       N       E                     dE             d eps       ncg     rms          ort
DAV:   1     0.110988230953E+03    0.11099E+03   -0.53057E+03    36   0.303E+02
DAV:   2     0.269229262425E+02   -0.84065E+02   -0.84042E+02    36   0.676E+01
DAV:   3     0.430112072046E+01   -0.22622E+02   -0.22573E+02    36   0.441E+01
DAV:   4     0.189506185676E+00   -0.41116E+01   -0.37805E+01    36   0.192E+01
DAV:   5    -0.901393823184E+00   -0.10909E+01   -0.10840E+01    36   0.732E+00
SDA:   6    -0.147188519785E+01   -0.57049E+00   -0.25698E+01    36   0.642E+01 0.000E+00
DMP:   7    -0.228345329157E+01   -0.81157E+00   -0.13041E+01    36   0.408E+01-0.215E+01
DMP:   8    -0.208435729036E+01    0.19910E+00   -0.26277E+01    36   0.822E+01-0.431E+01
DMP:   9    -0.171407627458E+01    0.37028E+00   -0.44252E+01    36   0.142E+02-0.829E+01
DMP:  10    -0.135291125743E+01    0.36117E+00   -0.55723E+01    36   0.189E+02-0.130E+02
DMP:  11    -0.154811770208E+01   -0.19521E+00   -0.41181E+01    36   0.151E+02-0.125E+02
DMP:  12    -0.238681696647E+01   -0.83870E+00   -0.12876E+01    36   0.554E+01-0.607E+01
DMP:  13    -0.285333233597E+01   -0.46652E+00   -0.51057E-01    36   0.421E+00-0.767E+00
DMP:  14    -0.287193566987E+01   -0.18603E-01   -0.91823E-01    36   0.243E+00-0.342E-01
DMP:  15    -0.288038564186E+01   -0.84500E-02   -0.38362E-01    36   0.167E+00-0.187E+00
DMP:  16    -0.289868686961E+01   -0.18301E-01   -0.33484E-02    36   0.100E-01-0.437E-02
DMP:  17    -0.289736254460E+01    0.13243E-02   -0.59568E-02    36   0.206E-01-0.150E-01
DMP:  18    -0.289994296113E+01   -0.25804E-02   -0.34557E-03    36   0.162E-02-0.198E-02
DMP:  19    -0.289981255168E+01    0.13041E-03   -0.77909E-03    36   0.252E-02-0.151E-02
DMP:  20    -0.290017917180E+01   -0.36662E-03   -0.69265E-04    36   0.218E-03-0.117E-03
DMP:  21    -0.290016498547E+01    0.14186E-04   -0.99668E-04    36   0.344E-03-0.247E-03
DMP:  22    -0.290021627697E+01   -0.51291E-04   -0.18226E-04    36   0.426E-04 0.771E-05
DMP:  23    -0.290021624069E+01    0.36281E-07   -0.13404E-04    36   0.507E-04-0.449E-04
   1 F= -.29002162E+01 E0= -.28861118E+01  d E =-.290022E+01  mag=     4.0000
