<?xml version="1.0" encoding="ISO-8859-1"?>
<modeling>
 <generator>
  <i name="program" type="string">vasp </i>
  <i name="version" type="string">5.4.4.18Apr17-6-g9f103f2a35  </i>
  <i name="subversion" type="string">(build Nov 08 2019 15:19:53) gamma-only         parallel </i>
  <i name="platform" type="string">LinuxIFC </i>
  <i name="date" type="string">2020 11 30 </i>
  <i name="time" type="string">09:30:42 </i>
 </generator>
 <incar>
  <i type="string" name="PREC">accurate</i>
  <i type="string" name="ALGO"> D</i>
  <i type="int" name="ISPIN">     2</i>
  <i type="int" name="NELM">   300</i>
  <i type="int" name="IBRION">     2</i>
  <i name="EDIFF">      0.00005000</i>
  <i type="int" name="NSW">    99</i>
  <i type="int" name="ISIF">     2</i>
  <i name="ENCUT">    520.00000000</i>
  <v name="MAGMOM">      0.60000000</v>
  <i type="string" name="LREAL"> Auto</i>
  <i type="int" name="ISMEAR">     0</i>
  <i name="SIGMA">      0.05000000</i>
  <i type="logical" name="LWAVE"> F  </i>
  <i type="int" name="LORBIT">    11</i>
  <i type="logical" name="LASPH"> T  </i>
  <v type="int" name="KPOINT_BSE">    -1     0     0     0</v>
  <i type="int" name="NELM">   300</i>
  <i type="logical" name="LASPH"> T  </i>
 </incar>
 <structure name="primitive_cell" >
  <crystal>
   <varray name="basis" >
    <v>      10.00000000       0.00000000       0.00000000 </v>
    <v>       0.00000000      10.00000000       0.00000000 </v>
    <v>       0.00000000       0.00000000      10.00000000 </v>
   </varray>
   <i name="volume">   1000.00000000 </i>
   <varray name="rec_basis" >
    <v>       0.10000000       0.00000000       0.00000000 </v>
    <v>       0.00000000       0.10000000       0.00000000 </v>
    <v>       0.00000000       0.00000000       0.10000000 </v>
   </varray>
  </crystal>
  <varray name="positions" >
   <v>      -0.50000000      -0.50000000      -0.50000000 </v>
  </varray>
 </structure>
 <varray name="primitive_index" >
  <v type="int" >        1 </v>
 </varray>
 <kpoints>
  <generation param="Gamma">
   <v type="int" name="divisions">       1        1        1 </v>
   <v name="usershift">      0.00000000       0.00000000       0.00000000 </v>
   <v name="genvec1">      1.00000000       0.00000000       0.00000000 </v>
   <v name="genvec2">      0.00000000       1.00000000       0.00000000 </v>
   <v name="genvec3">      0.00000000       0.00000000       1.00000000 </v>
   <v name="shift">      0.00000000       0.00000000       0.00000000 </v>
  </generation>
  <varray name="kpointlist" >
   <v>       0.00000000       0.00000000       0.00000000 </v>
  </varray>
  <varray name="weights" >
   <v>       1.00000000 </v>
  </varray>
 </kpoints>
 <parameters>
  <separator name="general" >
   <i type="string" name="SYSTEM">unknown system</i>
   <i type="logical" name="LCOMPAT"> F  </i>
  </separator>
  <separator name="electronic" >
   <i type="string" name="PREC">accura</i>
   <i name="ENMAX">    520.00000000</i>
   <i name="ENAUG">    414.93200000</i>
   <i name="EDIFF">      0.00005000</i>
   <i type="int" name="IALGO">    53</i>
   <i type="int" name="IWAVPR">    11</i>
   <i type="int" name="NBANDS">    36</i>
   <i name="NELECT">     14.00000000</i>
   <i type="int" name="TURBO">     0</i>
   <i type="int" name="IRESTART">     0</i>
   <i type="int" name="NREBOOT">     0</i>
   <i type="int" name="NMIN">     0</i>
   <i name="EREF">      0.00000000</i>
   <separator name="electronic smearing" >
    <i type="int" name="ISMEAR">     0</i>
    <i name="SIGMA">      0.05000000</i>
    <i name="KSPACING">      0.50000000</i>
    <i type="logical" name="KGAMMA"> T  </i>
   </separator>
   <separator name="electronic projectors" >
    <i type="logical" name="LREAL"> T  </i>
    <v name="ROPT">     -0.00025000</v>
    <i type="int" name="LMAXPAW">  -100</i>
    <i type="int" name="LMAXMIX">     2</i>
    <i type="logical" name="NLSPLINE"> F  </i>
   </separator>
   <separator name="electronic startup" >
    <i type="int" name="ISTART">     0</i>
    <i type="int" name="ICHARG">     2</i>
    <i type="int" name="INIWAV">     1</i>
   </separator>
   <separator name="electronic spin" >
    <i type="int" name="ISPIN">     2</i>
    <i type="logical" name="LNONCOLLINEAR"> F  </i>
    <v name="MAGMOM">      0.60000000</v>
    <i name="NUPDOWN">     -1.00000000</i>
    <i type="logical" name="LSORBIT"> F  </i>
    <v name="SAXIS">      0.00000000      0.00000000      1.00000000</v>
    <i type="logical" name="LSPIRAL"> F  </i>
    <v name="QSPIRAL">      0.00000000      0.00000000      0.00000000</v>
    <i type="logical" name="LZEROZ"> F  </i>
   </separator>
   <separator name="electronic exchange-correlation" >
    <i type="logical" name="LASPH"> T  </i>
    <i type="logical" name="LMETAGGA"> F  </i>
   </separator>
   <separator name="electronic convergence" >
    <i type="int" name="NELM">   300</i>
    <i type="int" name="NELMDL">    -5</i>
    <i type="int" name="NELMIN">     2</i>
    <i name="ENINI">    520.00000000</i>
    <separator name="electronic convergence detail" >
     <i type="logical" name="LDIAG"> T  </i>
     <i type="logical" name="LSUBROT"> F  </i>
     <i name="WEIMIN">      0.00100000</i>
     <i name="EBREAK">      0.00000035</i>
     <i name="DEPER">      0.30000000</i>
     <i type="int" name="NRMM">     4</i>
     <i name="TIME">      0.40000000</i>
    </separator>
   </separator>
   <separator name="electronic mixer" >
    <i name="AMIX">      0.40000000</i>
    <i name="BMIX">      1.00000000</i>
    <i name="AMIN">      0.10000000</i>
    <i name="AMIX_MAG">      1.60000000</i>
    <i name="BMIX_MAG">      1.00000000</i>
    <separator name="electronic mixer details" >
     <i type="int" name="IMIX">     4</i>
     <i type="logical" name="MIXFIRST"> F  </i>
     <i type="int" name="MAXMIX">   -45</i>
     <i name="WC">    100.00000000</i>
     <i type="int" name="INIMIX">     1</i>
     <i type="int" name="MIXPRE">     1</i>
     <i type="int" name="MREMOVE">     5</i>
    </separator>
   </separator>
   <separator name="electronic dipolcorrection" >
    <i type="logical" name="LDIPOL"> F  </i>
    <i type="logical" name="LMONO"> F  </i>
    <i type="int" name="IDIPOL">     0</i>
    <i name="EPSILON">      1.00000000</i>
    <v name="DIPOL">   -100.00000000   -100.00000000   -100.00000000</v>
    <i name="EFIELD">      0.00000000</i>
   </separator>
  </separator>
  <separator name="grids" >
   <i type="int" name="NGX">    80</i>
   <i type="int" name="NGY">    80</i>
   <i type="int" name="NGZ">    80</i>
   <i type="int" name="NGXF">   160</i>
   <i type="int" name="NGYF">   160</i>
   <i type="int" name="NGZF">   160</i>
   <i type="logical" name="ADDGRID"> F  </i>
  </separator>
  <separator name="ionic" >
   <i type="int" name="NSW">    99</i>
   <i type="int" name="IBRION">     2</i>
   <i type="int" name="MDALGO">     0</i>
   <i type="int" name="ISIF">     2</i>
   <i name="PSTRESS">      0.00000000</i>
   <i name="EDIFFG">      0.00050000</i>
   <i type="int" name="NFREE">     1</i>
   <i name="POTIM">      0.50000000</i>
   <i name="SMASS">     -3.00000000</i>
   <i name="SCALEE">      1.00000000</i>
  </separator>
  <separator name="ionic md" >
   <i name="TEBEG">      0.00010000</i>
   <i name="TEEND">      0.00010000</i>
   <i type="int" name="NBLOCK">     1</i>
   <i type="int" name="KBLOCK">    99</i>
   <i type="int" name="NPACO">   256</i>
   <i name="APACO">     16.00000000</i>
  </separator>
  <separator name="symmetry" >
   <i type="int" name="ISYM">     2</i>
   <i name="SYMPREC">      0.00001000</i>
  </separator>
  <separator name="dos" >
   <i type="int" name="LORBIT">    11</i>
   <v name="RWIGS">     -1.00000000</v>
   <i type="int" name="NEDOS">   301</i>
   <i name="EMIN">     10.00000000</i>
   <i name="EMAX">    -10.00000000</i>
   <i name="EFERMI">      0.00000000</i>
  </separator>
  <separator name="writing" >
   <i type="int" name="NWRITE">     2</i>
   <i type="logical" name="LWAVE"> F  </i>
   <i type="logical" name="LDOWNSAMPLE"> F  </i>
   <i type="logical" name="LCHARG"> T  </i>
   <i type="logical" name="LPARD"> F  </i>
   <i type="logical" name="LVTOT"> F  </i>
   <i type="logical" name="LVHAR"> F  </i>
   <i type="logical" name="LELF"> F  </i>
   <i type="logical" name="LOPTICS"> F  </i>
   <v name="STM">      0.00000000      0.00000000      0.00000000      0.00000000      0.00000000      0.00000000      0.00000000</v>
  </separator>
  <separator name="performance" >
   <i type="int" name="NPAR">    36</i>
   <i type="int" name="NSIM">     4</i>
   <i type="int" name="NBLK">    -1</i>
   <i type="logical" name="LPLANE"> T  </i>
   <i type="logical" name="LSCALAPACK"> T  </i>
   <i type="logical" name="LSCAAWARE"> F  </i>
   <i type="logical" name="LSCALU"> F  </i>
   <i type="logical" name="LASYNC"> F  </i>
   <i type="logical" name="LORBITALREAL"> F  </i>
  </separator>
  <separator name="miscellaneous" >
   <i type="int" name="IDIOT">     3</i>
   <i type="int" name="ISPECIAL">     0</i>
   <i type="logical" name="LMUSIC"> F  </i>
   <v name="POMASS">    190.20000000</v>
   <v name="DARWINR">      0.00000000</v>
   <v name="DARWINV">      1.00000000</v>
   <i type="logical" name="LCORR"> T  </i>
  </separator>
  <i type="logical" name="GGA_COMPAT"> T  </i>
  <i type="logical" name="LBERRY"> F  </i>
  <i type="int" name="ICORELEVEL">     0</i>
  <i type="logical" name="LDAU"> F  </i>
  <i type="int" name="I_CONSTRAINED_M">     0</i>
  <separator name="electronic exchange-correlation" >
   <i type="string" name="GGA">--</i>
   <i type="int" name="VOSKOWN">     0</i>
   <i type="logical" name="LHFCALC"> F  </i>
   <i type="string" name="PRECFOCK"></i>
   <i type="logical" name="LSYMGRAD"> F  </i>
   <i type="logical" name="LHFONE"> F  </i>
   <i type="logical" name="LRHFCALC"> F  </i>
   <i type="logical" name="LTHOMAS"> F  </i>
   <i type="logical" name="LMODELHF"> F  </i>
   <i name="ENCUT4O">     -1.00000000</i>
   <i type="int" name="EXXOEP">     0</i>
   <i type="int" name="FOURORBIT">     0</i>
   <i name="AEXX">      0.00000000</i>
   <i name="HFALPHA">      0.00000000</i>
   <i name="MCALPHA">      0.00000000</i>
   <i name="ALDAX">      1.00000000</i>
   <i name="AGGAX">      1.00000000</i>
   <i name="ALDAC">      1.00000000</i>
   <i name="AGGAC">      1.00000000</i>
   <i type="int" name="NKREDX">     1</i>
   <i type="int" name="NKREDY">     1</i>
   <i type="int" name="NKREDZ">     1</i>
   <i type="logical" name="SHIFTRED"> F  </i>
   <i type="logical" name="ODDONLY"> F  </i>
   <i type="logical" name="EVENONLY"> F  </i>
   <i type="int" name="LMAXFOCK">     0</i>
   <i type="int" name="NMAXFOCKAE">     0</i>
   <i type="logical" name="LFOCKAEDFT"> F  </i>
   <i name="HFSCREEN">      0.00000000</i>
   <i name="HFSCREENC">      0.00000000</i>
   <i type="int" name="NBANDSGWLOW">     0</i>
  </separator>
  <separator name="vdW DFT" >
   <i type="logical" name="LUSE_VDW"> F  </i>
   <i name="Zab_VDW">     -0.84910000</i>
   <i name="PARAM1">      0.12340000</i>
   <i name="PARAM2">      1.00000000</i>
   <i name="PARAM3">      0.00000000</i>
  </separator>
  <separator name="model GW" >
   <i type="int" name="MODEL_GW">     0</i>
   <i name="MODEL_EPS0">    600.00000000</i>
   <i name="MODEL_ALPHA">      1.00000000</i>
  </separator>
  <separator name="linear response parameters" >
   <i type="logical" name="LEPSILON"> F  </i>
   <i type="logical" name="LRPA"> F  </i>
   <i type="logical" name="LNABLA"> F  </i>
   <i type="logical" name="LVEL"> F  </i>
   <i type="int" name="KINTER">     0</i>
   <i name="CSHIFT">      0.10000000</i>
   <i name="OMEGAMAX">     -1.00000000</i>
   <i name="DEG_THRESHOLD">      0.00200000</i>
   <i name="RTIME">     -0.10000000</i>
   <i name="WPLASMAI">      0.00000000</i>
   <v name="DFIELD">      0.00000000      0.00000000      0.00000000</v>
   <v name="WPLASMA">      0.00000000      0.00000000      0.00000000      0.00000000      0.00000000      0.00000000      0.00000000      0.00000000      0.00000000</v>
  </separator>
  <separator name="orbital magnetization" >
   <i type="logical" name="NUCIND"> F  </i>
   <v name="MAGPOS">      0.00000000      0.00000000      0.00000000</v>
   <i type="logical" name="LNICSALL"> T  </i>
   <i type="logical" name="ORBITALMAG"> F  </i>
   <i type="logical" name="LMAGBLOCH"> F  </i>
   <i type="logical" name="LCHIMAG"> F  </i>
   <i type="logical" name="LGAUGE"> T  </i>
   <i type="int" name="MAGATOM">     0</i>
   <v name="MAGDIPOL">      0.00000000      0.00000000      0.00000000</v>
   <v name="AVECCONST">      0.00000000      0.00000000      0.00000000</v>
  </separator>
  <separator name="response functions" >
   <i type="logical" name="LADDER"> F  </i>
   <i type="logical" name="LRPAFORCE"> F  </i>
   <i type="logical" name="LFXC"> F  </i>
   <i type="logical" name="LHARTREE"> T  </i>
   <i type="int" name="IBSE">     0</i>
   <v type="int" name="KPOINT">    -1     0     0     0</v>
   <i type="logical" name="LTCTE"> F  </i>
   <i type="logical" name="LTETE"> F  </i>
   <i type="logical" name="LTRIPLET"> F  </i>
   <i type="logical" name="LFXCEPS"> F  </i>
   <i type="logical" name="LFXHEG"> F  </i>
   <i type="int" name="NATURALO">     2</i>
   <i type="logical" name="L2ORDER"> F  </i>
   <i type="logical" name="LMP2LT"> F  </i>
   <i type="logical" name="LUSEW"> F  </i>
   <i name="ENCUTGW">     -2.00000000</i>
   <i name="ENCUTGWSOFT">     -2.00000000</i>
   <i name="ENCUTLF">     -1.00000000</i>
   <i type="int" name="LMAXMP2">    -1</i>
   <i name="SCISSOR">      0.00000000</i>
   <i type="int" name="NOMEGA">     0</i>
   <i type="int" name="NOMEGAR">     0</i>
   <i type="int" name="NBANDSGW">    -1</i>
   <i type="int" name="NBANDSO">    -1</i>
   <i type="int" name="NBANDSV">    -1</i>
   <i type="int" name="NELM">   300</i>
   <i type="int" name="NELMHF">     1</i>
   <i type="int" name="DIM">     3</i>
   <i type="int" name="ANTIRES">     0</i>
   <i name="OMEGAMAX">    -30.00000000</i>
   <i name="OMEGAMIN">    -30.00000000</i>
   <i name="OMEGATL">   -200.00000000</i>
   <i type="int" name="OMEGAGRID">   140</i>
   <i name="CSHIFT">     -0.10000000</i>
   <i type="logical" name="SELFENERGY"> F  </i>
   <i type="logical" name="LSPECTRAL"> F  </i>
   <i type="logical" name="LSPECTRALGW"> F  </i>
   <i type="logical" name="LSINGLES"> F  </i>
   <i type="logical" name="LFERMIGW"> F  </i>
   <i type="logical" name="ODDONLYGW"> F  </i>
   <i type="logical" name="EVENONLYGW"> F  </i>
   <i type="int" name="NKREDLFX">     1</i>
   <i type="int" name="NKREDLFY">     1</i>
   <i type="int" name="NKREDLFZ">     1</i>
   <i type="int" name="MAXMEM">  2800</i>
   <i type="int" name="TELESCOPE">     0</i>
   <i type="int" name="TAUPAR">     1</i>
   <i type="int" name="OMEGAPAR">    -1</i>
   <i name="LAMBDA">      1.00000000</i>
  </separator>
  <separator name="External order field" >
   <i name="OFIELD_KAPPA">      0.00000000</i>
   <v name="OFIELD_K">      0.00000000      0.00000000      0.00000000</v>
   <i name="OFIELD_Q6_NEAR">      0.00000000</i>
   <i name="OFIELD_Q6_FAR">      0.00000000</i>
   <i name="OFIELD_A">      0.00000000</i>
  </separator>
 </parameters>
 <atominfo>
  <atoms>       1 </atoms>
  <types>       1 </types>
  <array name="atoms" >
   <dimension dim="1">ion</dimension>
   <field type="string">element</field>
   <field type="int">atomtype</field>
   <set>
    <rc><c>Os</c><c>   1</c></rc>
   </set>
  </array>
  <array name="atomtypes" >
   <dimension dim="1">type</dimension>
   <field type="int">atomspertype</field>
   <field type="string">element</field>
   <field>mass</field>
   <field>valence</field>
   <field type="string">pseudopotential</field>
   <set>
    <rc><c>   1</c><c>Os</c><c>    190.20000000</c><c>     14.00000000</c><c>  PAW_PBE Os_pv 20Jan2003               </c></rc>
   </set>
  </array>
 </atominfo>
 <structure name="initialpos" >
  <crystal>
   <varray name="basis" >
    <v>      10.00000000       0.00000000       0.00000000 </v>
    <v>       0.00000000      10.00000000       0.00000000 </v>
    <v>       0.00000000       0.00000000      10.00000000 </v>
   </varray>
   <i name="volume">   1000.00000000 </i>
   <varray name="rec_basis" >
    <v>       0.10000000       0.00000000       0.00000000 </v>
    <v>       0.00000000       0.10000000       0.00000000 </v>
    <v>       0.00000000       0.00000000       0.10000000 </v>
   </varray>
  </crystal>
  <varray name="positions" >
   <v>       0.50000000       0.50000000       0.50000000 </v>
  </varray>
 </structure>
 <calculation>
  <scstep>
   <time name="total">    0.98    0.98</time>
   <energy>
    <i name="alphaZ">      2.98583642 </i>
    <i name="ewald">   -400.39350411 </i>
    <i name="hartreedc">  -1141.84473265 </i>
    <i name="XCdc">     50.62363853 </i>
    <i name="pawpsdc">   1485.16576717 </i>
    <i name="pawaedc">  -1449.50743306 </i>
    <i name="eentropy">     -0.00000000 </i>
    <i name="bandstr">   -216.07163435 </i>
    <i name="atom">   1780.03029300 </i>
    <i name="e_fr_energy">    110.98823095 </i>
    <i name="e_wo_entrp">    110.98823095 </i>
    <i name="e_0_energy">    110.98823095 </i>
   </energy>
  </scstep>
  <scstep>
   <time name="total">    0.31    0.31</time>
   <energy>
    <i name="e_fr_energy">     26.92292624 </i>
    <i name="e_wo_entrp">     26.95698458 </i>
    <i name="e_0_energy">     26.93995541 </i>
   </energy>
  </scstep>
  <scstep>
   <time name="total">    0.40    0.40</time>
   <energy>
    <i name="e_fr_energy">      4.30112072 </i>
    <i name="e_wo_entrp">      4.31038503 </i>
    <i name="e_0_energy">      4.30575287 </i>
   </energy>
  </scstep>
  <scstep>
   <time name="total">    0.40    0.40</time>
   <energy>
    <i name="e_fr_energy">      0.18950619 </i>
    <i name="e_wo_entrp">      0.21663075 </i>
    <i name="e_0_energy">      0.20306847 </i>
   </energy>
  </scstep>
  <scstep>
   <time name="total">    0.62    0.62</time>
   <energy>
    <i name="e_fr_energy">     -0.90139382 </i>
    <i name="e_wo_entrp">     -0.86213531 </i>
    <i name="e_0_energy">     -0.88176457 </i>
   </energy>
  </scstep>
  <scstep>
   <time name="total">    0.93    0.94</time>
   <energy>
    <i name="e_fr_energy">     -1.47188520 </i>
    <i name="e_wo_entrp">     -1.43302072 </i>
    <i name="e_0_energy">     -1.45245296 </i>
   </energy>
  </scstep>
  <scstep>
   <time name="total">    0.91    0.91</time>
   <energy>
    <i name="e_fr_energy">     -2.28345329 </i>
    <i name="e_wo_entrp">     -2.24301657 </i>
    <i name="e_0_energy">     -2.26323493 </i>
   </energy>
  </scstep>
  <scstep>
   <time name="total">    0.91    0.91</time>
   <energy>
    <i name="e_fr_energy">     -2.08435729 </i>
    <i name="e_wo_entrp">     -2.04154080 </i>
    <i name="e_0_energy">     -2.06294904 </i>
   </energy>
  </scstep>
  <scstep>
   <time name="total">    0.89    0.89</time>
   <energy>
    <i name="e_fr_energy">     -1.71407627 </i>
    <i name="e_wo_entrp">     -1.66952393 </i>
    <i name="e_0_energy">     -1.69180010 </i>
   </energy>
  </scstep>
  <scstep>
   <time name="total">    0.89    0.89</time>
   <energy>
    <i name="e_fr_energy">     -1.35291126 </i>
    <i name="e_wo_entrp">     -1.31024915 </i>
    <i name="e_0_energy">     -1.33158020 </i>
   </energy>
  </scstep>
  <scstep>
   <time name="total">    0.89    0.89</time>
   <energy>
    <i name="e_fr_energy">     -1.54811770 </i>
    <i name="e_wo_entrp">     -1.51590921 </i>
    <i name="e_0_energy">     -1.53201346 </i>
   </energy>
  </scstep>
  <scstep>
   <time name="total">    0.89    0.89</time>
   <energy>
    <i name="e_fr_energy">     -2.38681697 </i>
    <i name="e_wo_entrp">     -2.35864279 </i>
    <i name="e_0_energy">     -2.37272988 </i>
   </energy>
  </scstep>
  <scstep>
   <time name="total">    0.90    0.90</time>
   <energy>
    <i name="e_fr_energy">     -2.85333234 </i>
    <i name="e_wo_entrp">     -2.82514416 </i>
    <i name="e_0_energy">     -2.83923825 </i>
   </energy>
  </scstep>
  <scstep>
   <time name="total">    0.90    0.90</time>
   <energy>
    <i name="e_fr_energy">     -2.87193567 </i>
    <i name="e_wo_entrp">     -2.84373623 </i>
    <i name="e_0_energy">     -2.85783595 </i>
   </energy>
  </scstep>
  <scstep>
   <time name="total">    0.90    0.90</time>
   <energy>
    <i name="e_fr_energy">     -2.88038564 </i>
    <i name="e_wo_entrp">     -2.85218116 </i>
    <i name="e_0_energy">     -2.86628340 </i>
   </energy>
  </scstep>
  <scstep>
   <time name="total">    0.90    0.90</time>
   <energy>
    <i name="e_fr_energy">     -2.89868687 </i>
    <i name="e_wo_entrp">     -2.87048009 </i>
    <i name="e_0_energy">     -2.88458348 </i>
   </energy>
  </scstep>
  <scstep>
   <time name="total">    0.89    0.89</time>
   <energy>
    <i name="e_fr_energy">     -2.89736254 </i>
    <i name="e_wo_entrp">     -2.86915469 </i>
    <i name="e_0_energy">     -2.88325862 </i>
   </energy>
  </scstep>
  <scstep>
   <time name="total">    0.89    0.89</time>
   <energy>
    <i name="e_fr_energy">     -2.89994296 </i>
    <i name="e_wo_entrp">     -2.87173459 </i>
    <i name="e_0_energy">     -2.88583878 </i>
   </energy>
  </scstep>
  <scstep>
   <time name="total">    0.89    0.89</time>
   <energy>
    <i name="e_fr_energy">     -2.89981255 </i>
    <i name="e_wo_entrp">     -2.87160392 </i>
    <i name="e_0_energy">     -2.88570824 </i>
   </energy>
  </scstep>
  <scstep>
   <time name="total">    0.91    0.91</time>
   <energy>
    <i name="e_fr_energy">     -2.90017917 </i>
    <i name="e_wo_entrp">     -2.87197040 </i>
    <i name="e_0_energy">     -2.88607479 </i>
   </energy>
  </scstep>
  <scstep>
   <time name="total">    0.87    0.87</time>
   <energy>
    <i name="e_fr_energy">     -2.90016499 </i>
    <i name="e_wo_entrp">     -2.87195615 </i>
    <i name="e_0_energy">     -2.88606057 </i>
   </energy>
  </scstep>
  <scstep>
   <time name="total">    0.89    0.89</time>
   <energy>
    <i name="e_fr_energy">     -2.90021628 </i>
    <i name="e_wo_entrp">     -2.87200740 </i>
    <i name="e_0_energy">     -2.88611184 </i>
   </energy>
  </scstep>
  <scstep>
   <time name="total">    0.94    0.94</time>
   <energy>
    <i name="alphaZ">      2.98583642 </i>
    <i name="ewald">   -400.39350411 </i>
    <i name="hartreedc">  -1110.64111432 </i>
    <i name="XCdc">     50.56211153 </i>
    <i name="pawpsdc">   1490.77239565 </i>
    <i name="pawaedc">  -1462.76337978 </i>
    <i name="eentropy">     -0.02820889 </i>
    <i name="bandstr">   -353.42464576 </i>
    <i name="atom">   1780.03029300 </i>
    <i name="e_fr_energy">     -2.90021624 </i>
    <i name="e_wo_entrp">     -2.87200735 </i>
    <i name="e_0_energy">     -2.88611179 </i>
   </energy>
  </scstep>
  <structure>
   <crystal>
    <varray name="basis" >
     <v>      10.00000000       0.00000000       0.00000000 </v>
     <v>       0.00000000      10.00000000       0.00000000 </v>
     <v>       0.00000000       0.00000000      10.00000000 </v>
    </varray>
    <i name="volume">   1000.00000000 </i>
    <varray name="rec_basis" >
     <v>       0.10000000       0.00000000       0.00000000 </v>
     <v>       0.00000000       0.10000000       0.00000000 </v>
     <v>       0.00000000       0.00000000       0.10000000 </v>
    </varray>
   </crystal>
   <varray name="positions" >
    <v>       0.50000000       0.50000000       0.50000000 </v>
   </varray>
  </structure>
  <varray name="forces" >
   <v>       0.00000000       0.00000000       0.00000000 </v>
  </varray>
  <varray name="stress" >
   <v>      -0.04724167      -0.00000000      -0.00000000 </v>
   <v>       0.00000000      -0.04724167       0.00000000 </v>
   <v>      -0.00000000       0.00000000      -0.04724167 </v>
  </varray>
  <energy>
   <i name="e_fr_energy">     -2.90021624 </i>
   <i name="e_wo_entrp">     -2.88611179 </i>
   <i name="e_0_energy">     -0.02820889 </i>
  </energy>
  <time name="totalsc">   26.34   26.65</time>
  <eigenvalues>
   <array>
    <dimension dim="1">band</dimension>
    <dimension dim="2">kpoint</dimension>
    <dimension dim="3">spin</dimension>
    <field>eigene</field>
    <field>occ</field>
    <set>
     <set comment="spin 1">
      <set comment="kpoint 1">
       <r>  -51.4489    1.0000 </r>
       <r>  -51.4489    1.0000 </r>
       <r>  -51.4489    1.0000 </r>
       <r>   -7.1424    1.0000 </r>
       <r>   -7.1423    1.0000 </r>
       <r>   -7.1423    1.0000 </r>
       <r>   -6.7777    1.0000 </r>
       <r>   -6.7777    1.0000 </r>
       <r>   -6.4572    1.0000 </r>
       <r>   -1.1975    0.0000 </r>
       <r>   -1.1971    0.0000 </r>
       <r>   -1.1962    0.0000 </r>
       <r>   -0.1434    0.0000 </r>
       <r>    1.0550    0.0000 </r>
       <r>    1.0550    0.0000 </r>
       <r>    1.7163    0.0000 </r>
       <r>    1.7171    0.0000 </r>
       <r>    1.7228    0.0000 </r>
       <r>    1.7490    0.0000 </r>
       <r>    2.1623    0.0000 </r>
       <r>    2.1641    0.0000 </r>
       <r>    2.1644    0.0000 </r>
       <r>    2.6358    0.0000 </r>
       <r>    2.6377    0.0000 </r>
       <r>    2.6427    0.0000 </r>
       <r>    2.6703    0.0000 </r>
       <r>    2.6800    0.0000 </r>
       <r>    3.6703    0.0000 </r>
       <r>    3.6731    0.0000 </r>
       <r>    3.7188    0.0000 </r>
       <r>    3.7477    0.0000 </r>
       <r>    3.9227    0.0000 </r>
       <r>    3.9509    0.0000 </r>
       <r>    3.9605    0.0000 </r>
       <r>    4.5596    0.0000 </r>
       <r>    4.5874    0.0000 </r>
      </set>
     </set>
     <set comment="spin 2">
      <set comment="kpoint 1">
       <r>  -49.2259    1.0000 </r>
       <r>  -49.2259    1.0000 </r>
       <r>  -49.2257    1.0000 </r>
       <r>   -5.1198    1.0000 </r>
       <r>   -4.8414    0.5026 </r>
       <r>   -4.8409    0.4974 </r>
       <r>   -4.3504    0.0000 </r>
       <r>   -4.3503    0.0000 </r>
       <r>   -4.3501    0.0000 </r>
       <r>   -0.6978    0.0000 </r>
       <r>   -0.6976    0.0000 </r>
       <r>   -0.6973    0.0000 </r>
       <r>   -0.1830    0.0000 </r>
       <r>    0.9532    0.0000 </r>
       <r>    0.9533    0.0000 </r>
       <r>    1.7013    0.0000 </r>
       <r>    1.7026    0.0000 </r>
       <r>    1.7030    0.0000 </r>
       <r>    1.7535    0.0000 </r>
       <r>    2.1879    0.0000 </r>
       <r>    2.1882    0.0000 </r>
       <r>    2.1887    0.0000 </r>
       <r>    2.5132    0.0000 </r>
       <r>    2.5204    0.0000 </r>
       <r>    2.5223    0.0000 </r>
       <r>    2.5709    0.0000 </r>
       <r>    2.5737    0.0000 </r>
       <r>    3.6902    0.0000 </r>
       <r>    3.7315    0.0000 </r>
       <r>    3.7862    0.0000 </r>
       <r>    3.7892    0.0000 </r>
       <r>    3.7972    0.0000 </r>
       <r>    3.8947    0.0000 </r>
       <r>    3.8950    0.0000 </r>
       <r>    4.4278    0.0000 </r>
       <r>    4.7114    0.0000 </r>
      </set>
     </set>
    </set>
   </array>
  </eigenvalues>
  <separator name="orbital magnetization" >
   <v name="MAGDIPOLOUT">      0.00000000      0.00000000      0.00000000</v>
  </separator>
  <dos>
   <i name="efermi">     -4.84117407 </i>
   <total>
    <array>
     <dimension dim="1">gridpoints</dimension>
     <dimension dim="2">spin</dimension>
     <field>energy</field>
     <field>total</field>
     <field>integrated</field>
     <set>
      <set comment="spin 1">
       <r>   -54.2569     0.0000     0.0000 </r>
       <r>   -54.0510     0.0000     0.0000 </r>
       <r>   -53.8451     0.0000     0.0000 </r>
       <r>   -53.6391     0.0000     0.0000 </r>
       <r>   -53.4332     0.0000     0.0000 </r>
       <r>   -53.2273     0.0000     0.0000 </r>
       <r>   -53.0214     0.0000     0.0000 </r>
       <r>   -52.8155     0.0000     0.0000 </r>
       <r>   -52.6095     0.0000     0.0000 </r>
       <r>   -52.4036     0.0000     0.0000 </r>
       <r>   -52.1977     0.0000     0.0000 </r>
       <r>   -51.9918     0.0000     0.0000 </r>
       <r>   -51.7858     0.0000     0.0000 </r>
       <r>   -51.5799     0.0015     0.0003 </r>
       <r>   -51.3740    14.3182     2.9487 </r>
       <r>   -51.1681     0.2490     3.0000 </r>
       <r>   -50.9622     0.0000     3.0000 </r>
       <r>   -50.7562     0.0000     3.0000 </r>
       <r>   -50.5503     0.0000     3.0000 </r>
       <r>   -50.3444     0.0000     3.0000 </r>
       <r>   -50.1385     0.0000     3.0000 </r>
       <r>   -49.9326     0.0000     3.0000 </r>
       <r>   -49.7266     0.0000     3.0000 </r>
       <r>   -49.5207     0.0000     3.0000 </r>
       <r>   -49.3148     0.0000     3.0000 </r>
       <r>   -49.1089     0.0000     3.0000 </r>
       <r>   -48.9030     0.0000     3.0000 </r>
       <r>   -48.6970     0.0000     3.0000 </r>
       <r>   -48.4911     0.0000     3.0000 </r>
       <r>   -48.2852     0.0000     3.0000 </r>
       <r>   -48.0793     0.0000     3.0000 </r>
       <r>   -47.8733     0.0000     3.0000 </r>
       <r>   -47.6674     0.0000     3.0000 </r>
       <r>   -47.4615     0.0000     3.0000 </r>
       <r>   -47.2556     0.0000     3.0000 </r>
       <r>   -47.0497     0.0000     3.0000 </r>
       <r>   -46.8437     0.0000     3.0000 </r>
       <r>   -46.6378     0.0000     3.0000 </r>
       <r>   -46.4319     0.0000     3.0000 </r>
       <r>   -46.2260     0.0000     3.0000 </r>
       <r>   -46.0201     0.0000     3.0000 </r>
       <r>   -45.8141     0.0000     3.0000 </r>
       <r>   -45.6082     0.0000     3.0000 </r>
       <r>   -45.4023     0.0000     3.0000 </r>
       <r>   -45.1964     0.0000     3.0000 </r>
       <r>   -44.9905     0.0000     3.0000 </r>
       <r>   -44.7845     0.0000     3.0000 </r>
       <r>   -44.5786     0.0000     3.0000 </r>
       <r>   -44.3727     0.0000     3.0000 </r>
       <r>   -44.1668     0.0000     3.0000 </r>
       <r>   -43.9608     0.0000     3.0000 </r>
       <r>   -43.7549     0.0000     3.0000 </r>
       <r>   -43.5490     0.0000     3.0000 </r>
       <r>   -43.3431     0.0000     3.0000 </r>
       <r>   -43.1372     0.0000     3.0000 </r>
       <r>   -42.9312     0.0000     3.0000 </r>
       <r>   -42.7253     0.0000     3.0000 </r>
       <r>   -42.5194     0.0000     3.0000 </r>
       <r>   -42.3135     0.0000     3.0000 </r>
       <r>   -42.1076     0.0000     3.0000 </r>
       <r>   -41.9016     0.0000     3.0000 </r>
       <r>   -41.6957     0.0000     3.0000 </r>
       <r>   -41.4898     0.0000     3.0000 </r>
       <r>   -41.2839     0.0000     3.0000 </r>
       <r>   -41.0780     0.0000     3.0000 </r>
       <r>   -40.8720     0.0000     3.0000 </r>
       <r>   -40.6661     0.0000     3.0000 </r>
       <r>   -40.4602     0.0000     3.0000 </r>
       <r>   -40.2543     0.0000     3.0000 </r>
       <r>   -40.0483     0.0000     3.0000 </r>
       <r>   -39.8424     0.0000     3.0000 </r>
       <r>   -39.6365     0.0000     3.0000 </r>
       <r>   -39.4306     0.0000     3.0000 </r>
       <r>   -39.2247     0.0000     3.0000 </r>
       <r>   -39.0187     0.0000     3.0000 </r>
       <r>   -38.8128     0.0000     3.0000 </r>
       <r>   -38.6069     0.0000     3.0000 </r>
       <r>   -38.4010     0.0000     3.0000 </r>
       <r>   -38.1951     0.0000     3.0000 </r>
       <r>   -37.9891     0.0000     3.0000 </r>
       <r>   -37.7832     0.0000     3.0000 </r>
       <r>   -37.5773     0.0000     3.0000 </r>
       <r>   -37.3714     0.0000     3.0000 </r>
       <r>   -37.1655     0.0000     3.0000 </r>
       <r>   -36.9595     0.0000     3.0000 </r>
       <r>   -36.7536     0.0000     3.0000 </r>
       <r>   -36.5477     0.0000     3.0000 </r>
       <r>   -36.3418     0.0000     3.0000 </r>
       <r>   -36.1358     0.0000     3.0000 </r>
       <r>   -35.9299     0.0000     3.0000 </r>
       <r>   -35.7240     0.0000     3.0000 </r>
       <r>   -35.5181     0.0000     3.0000 </r>
       <r>   -35.3122     0.0000     3.0000 </r>
       <r>   -35.1062     0.0000     3.0000 </r>
       <r>   -34.9003     0.0000     3.0000 </r>
       <r>   -34.6944     0.0000     3.0000 </r>
       <r>   -34.4885     0.0000     3.0000 </r>
       <r>   -34.2826     0.0000     3.0000 </r>
       <r>   -34.0766     0.0000     3.0000 </r>
       <r>   -33.8707     0.0000     3.0000 </r>
       <r>   -33.6648     0.0000     3.0000 </r>
       <r>   -33.4589     0.0000     3.0000 </r>
       <r>   -33.2530     0.0000     3.0000 </r>
       <r>   -33.0470     0.0000     3.0000 </r>
       <r>   -32.8411     0.0000     3.0000 </r>
       <r>   -32.6352     0.0000     3.0000 </r>
       <r>   -32.4293     0.0000     3.0000 </r>
       <r>   -32.2233     0.0000     3.0000 </r>
       <r>   -32.0174     0.0000     3.0000 </r>
       <r>   -31.8115     0.0000     3.0000 </r>
       <r>   -31.6056     0.0000     3.0000 </r>
       <r>   -31.3997     0.0000     3.0000 </r>
       <r>   -31.1937     0.0000     3.0000 </r>
       <r>   -30.9878     0.0000     3.0000 </r>
       <r>   -30.7819     0.0000     3.0000 </r>
       <r>   -30.5760     0.0000     3.0000 </r>
       <r>   -30.3701     0.0000     3.0000 </r>
       <r>   -30.1641     0.0000     3.0000 </r>
       <r>   -29.9582     0.0000     3.0000 </r>
       <r>   -29.7523     0.0000     3.0000 </r>
       <r>   -29.5464     0.0000     3.0000 </r>
       <r>   -29.3405     0.0000     3.0000 </r>
       <r>   -29.1345     0.0000     3.0000 </r>
       <r>   -28.9286     0.0000     3.0000 </r>
       <r>   -28.7227     0.0000     3.0000 </r>
       <r>   -28.5168     0.0000     3.0000 </r>
       <r>   -28.3109     0.0000     3.0000 </r>
       <r>   -28.1049     0.0000     3.0000 </r>
       <r>   -27.8990     0.0000     3.0000 </r>
       <r>   -27.6931     0.0000     3.0000 </r>
       <r>   -27.4872     0.0000     3.0000 </r>
       <r>   -27.2812     0.0000     3.0000 </r>
       <r>   -27.0753     0.0000     3.0000 </r>
       <r>   -26.8694     0.0000     3.0000 </r>
       <r>   -26.6635     0.0000     3.0000 </r>
       <r>   -26.4576     0.0000     3.0000 </r>
       <r>   -26.2516     0.0000     3.0000 </r>
       <r>   -26.0457     0.0000     3.0000 </r>
       <r>   -25.8398     0.0000     3.0000 </r>
       <r>   -25.6339     0.0000     3.0000 </r>
       <r>   -25.4280     0.0000     3.0000 </r>
       <r>   -25.2220     0.0000     3.0000 </r>
       <r>   -25.0161     0.0000     3.0000 </r>
       <r>   -24.8102     0.0000     3.0000 </r>
       <r>   -24.6043     0.0000     3.0000 </r>
       <r>   -24.3984     0.0000     3.0000 </r>
       <r>   -24.1924     0.0000     3.0000 </r>
       <r>   -23.9865     0.0000     3.0000 </r>
       <r>   -23.7806     0.0000     3.0000 </r>
       <r>   -23.5747     0.0000     3.0000 </r>
       <r>   -23.3687     0.0000     3.0000 </r>
       <r>   -23.1628     0.0000     3.0000 </r>
       <r>   -22.9569     0.0000     3.0000 </r>
       <r>   -22.7510     0.0000     3.0000 </r>
       <r>   -22.5451     0.0000     3.0000 </r>
       <r>   -22.3391     0.0000     3.0000 </r>
       <r>   -22.1332     0.0000     3.0000 </r>
       <r>   -21.9273     0.0000     3.0000 </r>
       <r>   -21.7214     0.0000     3.0000 </r>
       <r>   -21.5155     0.0000     3.0000 </r>
       <r>   -21.3095     0.0000     3.0000 </r>
       <r>   -21.1036     0.0000     3.0000 </r>
       <r>   -20.8977     0.0000     3.0000 </r>
       <r>   -20.6918     0.0000     3.0000 </r>
       <r>   -20.4859     0.0000     3.0000 </r>
       <r>   -20.2799     0.0000     3.0000 </r>
       <r>   -20.0740     0.0000     3.0000 </r>
       <r>   -19.8681     0.0000     3.0000 </r>
       <r>   -19.6622     0.0000     3.0000 </r>
       <r>   -19.4562     0.0000     3.0000 </r>
       <r>   -19.2503     0.0000     3.0000 </r>
       <r>   -19.0444     0.0000     3.0000 </r>
       <r>   -18.8385     0.0000     3.0000 </r>
       <r>   -18.6326     0.0000     3.0000 </r>
       <r>   -18.4266     0.0000     3.0000 </r>
       <r>   -18.2207     0.0000     3.0000 </r>
       <r>   -18.0148     0.0000     3.0000 </r>
       <r>   -17.8089     0.0000     3.0000 </r>
       <r>   -17.6030     0.0000     3.0000 </r>
       <r>   -17.3970     0.0000     3.0000 </r>
       <r>   -17.1911     0.0000     3.0000 </r>
       <r>   -16.9852     0.0000     3.0000 </r>
       <r>   -16.7793     0.0000     3.0000 </r>
       <r>   -16.5734     0.0000     3.0000 </r>
       <r>   -16.3674     0.0000     3.0000 </r>
       <r>   -16.1615     0.0000     3.0000 </r>
       <r>   -15.9556     0.0000     3.0000 </r>
       <r>   -15.7497     0.0000     3.0000 </r>
       <r>   -15.5437     0.0000     3.0000 </r>
       <r>   -15.3378     0.0000     3.0000 </r>
       <r>   -15.1319     0.0000     3.0000 </r>
       <r>   -14.9260     0.0000     3.0000 </r>
       <r>   -14.7201     0.0000     3.0000 </r>
       <r>   -14.5141     0.0000     3.0000 </r>
       <r>   -14.3082     0.0000     3.0000 </r>
       <r>   -14.1023     0.0000     3.0000 </r>
       <r>   -13.8964     0.0000     3.0000 </r>
       <r>   -13.6905     0.0000     3.0000 </r>
       <r>   -13.4845     0.0000     3.0000 </r>
       <r>   -13.2786     0.0000     3.0000 </r>
       <r>   -13.0727     0.0000     3.0000 </r>
       <r>   -12.8668     0.0000     3.0000 </r>
       <r>   -12.6609     0.0000     3.0000 </r>
       <r>   -12.4549     0.0000     3.0000 </r>
       <r>   -12.2490     0.0000     3.0000 </r>
       <r>   -12.0431     0.0000     3.0000 </r>
       <r>   -11.8372     0.0000     3.0000 </r>
       <r>   -11.6312     0.0000     3.0000 </r>
       <r>   -11.4253     0.0000     3.0000 </r>
       <r>   -11.2194     0.0000     3.0000 </r>
       <r>   -11.0135     0.0000     3.0000 </r>
       <r>   -10.8076     0.0000     3.0000 </r>
       <r>   -10.6016     0.0000     3.0000 </r>
       <r>   -10.3957     0.0000     3.0000 </r>
       <r>   -10.1898     0.0000     3.0000 </r>
       <r>    -9.9839     0.0000     3.0000 </r>
       <r>    -9.7780     0.0000     3.0000 </r>
       <r>    -9.5720     0.0000     3.0000 </r>
       <r>    -9.3661     0.0000     3.0000 </r>
       <r>    -9.1602     0.0000     3.0000 </r>
       <r>    -8.9543     0.0000     3.0000 </r>
       <r>    -8.7484     0.0000     3.0000 </r>
       <r>    -8.5424     0.0000     3.0000 </r>
       <r>    -8.3365     0.0000     3.0000 </r>
       <r>    -8.1306     0.0000     3.0000 </r>
       <r>    -7.9247     0.0000     3.0000 </r>
       <r>    -7.7188     0.0000     3.0000 </r>
       <r>    -7.5128     0.0000     3.0000 </r>
       <r>    -7.3069     0.0000     3.0000 </r>
       <r>    -7.1010    12.8056     5.6369 </r>
       <r>    -6.8951     1.7675     6.0009 </r>
       <r>    -6.6891     9.6485     7.9877 </r>
       <r>    -6.4832     1.1795     8.2306 </r>
       <r>    -6.2773     3.7363     9.0000 </r>
       <r>    -6.0714     0.0000     9.0000 </r>
       <r>    -5.8655     0.0000     9.0000 </r>
       <r>    -5.6595     0.0000     9.0000 </r>
       <r>    -5.4536     0.0000     9.0000 </r>
       <r>    -5.2477     0.0000     9.0000 </r>
       <r>    -5.0418     0.0000     9.0000 </r>
       <r>    -4.8359     0.0000     9.0000 </r>
       <r>    -4.6299     0.0000     9.0000 </r>
       <r>    -4.4240     0.0000     9.0000 </r>
       <r>    -4.2181     0.0000     9.0000 </r>
       <r>    -4.0122     0.0000     9.0000 </r>
       <r>    -3.8063     0.0000     9.0000 </r>
       <r>    -3.6003     0.0000     9.0000 </r>
       <r>    -3.3944     0.0000     9.0000 </r>
       <r>    -3.1885     0.0000     9.0000 </r>
       <r>    -2.9826     0.0000     9.0000 </r>
       <r>    -2.7766     0.0000     9.0000 </r>
       <r>    -2.5707     0.0000     9.0000 </r>
       <r>    -2.3648     0.0000     9.0000 </r>
       <r>    -2.1589     0.0000     9.0000 </r>
       <r>    -1.9530     0.0000     9.0000 </r>
       <r>    -1.7470     0.0000     9.0000 </r>
       <r>    -1.5411     0.0000     9.0000 </r>
       <r>    -1.3352     0.0007     9.0001 </r>
       <r>    -1.1293    14.1627    11.9165 </r>
       <r>    -0.9234     0.4053    12.0000 </r>
       <r>    -0.7174     0.0000    12.0000 </r>
       <r>    -0.5115     0.0000    12.0000 </r>
       <r>    -0.3056     0.0000    12.0000 </r>
       <r>    -0.0997     4.3315    12.8919 </r>
       <r>     0.1062     0.5247    13.0000 </r>
       <r>     0.3122     0.0000    13.0000 </r>
       <r>     0.5181     0.0000    13.0000 </r>
       <r>     0.7240     0.0000    13.0000 </r>
       <r>     0.9299     0.0020    13.0004 </r>
       <r>     1.1359     9.6025    14.9778 </r>
       <r>     1.3418     0.1080    15.0000 </r>
       <r>     1.5477     0.0000    15.0000 </r>
       <r>     1.7536    14.8795    18.0640 </r>
       <r>     1.9595     4.5455    19.0000 </r>
       <r>     2.1655     7.5856    20.5620 </r>
       <r>     2.3714     6.9831    22.0000 </r>
       <r>     2.5773     0.6358    22.1309 </r>
       <r>     2.7832    23.6331    26.9975 </r>
       <r>     2.9891     0.0123    27.0000 </r>
       <r>     3.1951     0.0000    27.0000 </r>
       <r>     3.4010     0.0000    27.0000 </r>
       <r>     3.6069     0.3294    27.0678 </r>
       <r>     3.8128    18.9219    30.9642 </r>
       <r>     4.0187    14.3512    33.9195 </r>
       <r>     4.2247     0.3911    34.0000 </r>
       <r>     4.4306     0.0007    34.0001 </r>
       <r>     4.6365     9.2407    35.9030 </r>
       <r>     4.8424     0.4711    36.0000 </r>
       <r>     5.0484     0.0000    36.0000 </r>
       <r>     5.2543     0.0000    36.0000 </r>
       <r>     5.4602     0.0000    36.0000 </r>
       <r>     5.6661     0.0000    36.0000 </r>
       <r>     5.8720     0.0000    36.0000 </r>
       <r>     6.0780     0.0000    36.0000 </r>
       <r>     6.2839     0.0000    36.0000 </r>
       <r>     6.4898     0.0000    36.0000 </r>
       <r>     6.6957     0.0000    36.0000 </r>
       <r>     6.9016     0.0000    36.0000 </r>
       <r>     7.1076     0.0000    36.0000 </r>
       <r>     7.3135     0.0000    36.0000 </r>
       <r>     7.5194     0.0000    36.0000 </r>
      </set>
      <set comment="spin 2">
       <r>   -54.2569     0.0000     0.0000 </r>
       <r>   -54.0510     0.0000     0.0000 </r>
       <r>   -53.8451     0.0000     0.0000 </r>
       <r>   -53.6391     0.0000     0.0000 </r>
       <r>   -53.4332     0.0000     0.0000 </r>
       <r>   -53.2273     0.0000     0.0000 </r>
       <r>   -53.0214     0.0000     0.0000 </r>
       <r>   -52.8155     0.0000     0.0000 </r>
       <r>   -52.6095     0.0000     0.0000 </r>
       <r>   -52.4036     0.0000     0.0000 </r>
       <r>   -52.1977     0.0000     0.0000 </r>
       <r>   -51.9918     0.0000     0.0000 </r>
       <r>   -51.7858     0.0000     0.0000 </r>
       <r>   -51.5799     0.0000     0.0000 </r>
       <r>   -51.3740     0.0000     0.0000 </r>
       <r>   -51.1681     0.0000     0.0000 </r>
       <r>   -50.9622     0.0000     0.0000 </r>
       <r>   -50.7562     0.0000     0.0000 </r>
       <r>   -50.5503     0.0000     0.0000 </r>
       <r>   -50.3444     0.0000     0.0000 </r>
       <r>   -50.1385     0.0000     0.0000 </r>
       <r>   -49.9326     0.0000     0.0000 </r>
       <r>   -49.7266     0.0000     0.0000 </r>
       <r>   -49.5207     0.0000     0.0000 </r>
       <r>   -49.3148     0.0863     0.0178 </r>
       <r>   -49.1089    14.4755     2.9986 </r>
       <r>   -48.9030     0.0068     3.0000 </r>
       <r>   -48.6970     0.0000     3.0000 </r>
       <r>   -48.4911     0.0000     3.0000 </r>
       <r>   -48.2852     0.0000     3.0000 </r>
       <r>   -48.0793     0.0000     3.0000 </r>
       <r>   -47.8733     0.0000     3.0000 </r>
       <r>   -47.6674     0.0000     3.0000 </r>
       <r>   -47.4615     0.0000     3.0000 </r>
       <r>   -47.2556     0.0000     3.0000 </r>
       <r>   -47.0497     0.0000     3.0000 </r>
       <r>   -46.8437     0.0000     3.0000 </r>
       <r>   -46.6378     0.0000     3.0000 </r>
       <r>   -46.4319     0.0000     3.0000 </r>
       <r>   -46.2260     0.0000     3.0000 </r>
       <r>   -46.0201     0.0000     3.0000 </r>
       <r>   -45.8141     0.0000     3.0000 </r>
       <r>   -45.6082     0.0000     3.0000 </r>
       <r>   -45.4023     0.0000     3.0000 </r>
       <r>   -45.1964     0.0000     3.0000 </r>
       <r>   -44.9905     0.0000     3.0000 </r>
       <r>   -44.7845     0.0000     3.0000 </r>
       <r>   -44.5786     0.0000     3.0000 </r>
       <r>   -44.3727     0.0000     3.0000 </r>
       <r>   -44.1668     0.0000     3.0000 </r>
       <r>   -43.9608     0.0000     3.0000 </r>
       <r>   -43.7549     0.0000     3.0000 </r>
       <r>   -43.5490     0.0000     3.0000 </r>
       <r>   -43.3431     0.0000     3.0000 </r>
       <r>   -43.1372     0.0000     3.0000 </r>
       <r>   -42.9312     0.0000     3.0000 </r>
       <r>   -42.7253     0.0000     3.0000 </r>
       <r>   -42.5194     0.0000     3.0000 </r>
       <r>   -42.3135     0.0000     3.0000 </r>
       <r>   -42.1076     0.0000     3.0000 </r>
       <r>   -41.9016     0.0000     3.0000 </r>
       <r>   -41.6957     0.0000     3.0000 </r>
       <r>   -41.4898     0.0000     3.0000 </r>
       <r>   -41.2839     0.0000     3.0000 </r>
       <r>   -41.0780     0.0000     3.0000 </r>
       <r>   -40.8720     0.0000     3.0000 </r>
       <r>   -40.6661     0.0000     3.0000 </r>
       <r>   -40.4602     0.0000     3.0000 </r>
       <r>   -40.2543     0.0000     3.0000 </r>
       <r>   -40.0483     0.0000     3.0000 </r>
       <r>   -39.8424     0.0000     3.0000 </r>
       <r>   -39.6365     0.0000     3.0000 </r>
       <r>   -39.4306     0.0000     3.0000 </r>
       <r>   -39.2247     0.0000     3.0000 </r>
       <r>   -39.0187     0.0000     3.0000 </r>
       <r>   -38.8128     0.0000     3.0000 </r>
       <r>   -38.6069     0.0000     3.0000 </r>
       <r>   -38.4010     0.0000     3.0000 </r>
       <r>   -38.1951     0.0000     3.0000 </r>
       <r>   -37.9891     0.0000     3.0000 </r>
       <r>   -37.7832     0.0000     3.0000 </r>
       <r>   -37.5773     0.0000     3.0000 </r>
       <r>   -37.3714     0.0000     3.0000 </r>
       <r>   -37.1655     0.0000     3.0000 </r>
       <r>   -36.9595     0.0000     3.0000 </r>
       <r>   -36.7536     0.0000     3.0000 </r>
       <r>   -36.5477     0.0000     3.0000 </r>
       <r>   -36.3418     0.0000     3.0000 </r>
       <r>   -36.1358     0.0000     3.0000 </r>
       <r>   -35.9299     0.0000     3.0000 </r>
       <r>   -35.7240     0.0000     3.0000 </r>
       <r>   -35.5181     0.0000     3.0000 </r>
       <r>   -35.3122     0.0000     3.0000 </r>
       <r>   -35.1062     0.0000     3.0000 </r>
       <r>   -34.9003     0.0000     3.0000 </r>
       <r>   -34.6944     0.0000     3.0000 </r>
       <r>   -34.4885     0.0000     3.0000 </r>
       <r>   -34.2826     0.0000     3.0000 </r>
       <r>   -34.0766     0.0000     3.0000 </r>
       <r>   -33.8707     0.0000     3.0000 </r>
       <r>   -33.6648     0.0000     3.0000 </r>
       <r>   -33.4589     0.0000     3.0000 </r>
       <r>   -33.2530     0.0000     3.0000 </r>
       <r>   -33.0470     0.0000     3.0000 </r>
       <r>   -32.8411     0.0000     3.0000 </r>
       <r>   -32.6352     0.0000     3.0000 </r>
       <r>   -32.4293     0.0000     3.0000 </r>
       <r>   -32.2233     0.0000     3.0000 </r>
       <r>   -32.0174     0.0000     3.0000 </r>
       <r>   -31.8115     0.0000     3.0000 </r>
       <r>   -31.6056     0.0000     3.0000 </r>
       <r>   -31.3997     0.0000     3.0000 </r>
       <r>   -31.1937     0.0000     3.0000 </r>
       <r>   -30.9878     0.0000     3.0000 </r>
       <r>   -30.7819     0.0000     3.0000 </r>
       <r>   -30.5760     0.0000     3.0000 </r>
       <r>   -30.3701     0.0000     3.0000 </r>
       <r>   -30.1641     0.0000     3.0000 </r>
       <r>   -29.9582     0.0000     3.0000 </r>
       <r>   -29.7523     0.0000     3.0000 </r>
       <r>   -29.5464     0.0000     3.0000 </r>
       <r>   -29.3405     0.0000     3.0000 </r>
       <r>   -29.1345     0.0000     3.0000 </r>
       <r>   -28.9286     0.0000     3.0000 </r>
       <r>   -28.7227     0.0000     3.0000 </r>
       <r>   -28.5168     0.0000     3.0000 </r>
       <r>   -28.3109     0.0000     3.0000 </r>
       <r>   -28.1049     0.0000     3.0000 </r>
       <r>   -27.8990     0.0000     3.0000 </r>
       <r>   -27.6931     0.0000     3.0000 </r>
       <r>   -27.4872     0.0000     3.0000 </r>
       <r>   -27.2812     0.0000     3.0000 </r>
       <r>   -27.0753     0.0000     3.0000 </r>
       <r>   -26.8694     0.0000     3.0000 </r>
       <r>   -26.6635     0.0000     3.0000 </r>
       <r>   -26.4576     0.0000     3.0000 </r>
       <r>   -26.2516     0.0000     3.0000 </r>
       <r>   -26.0457     0.0000     3.0000 </r>
       <r>   -25.8398     0.0000     3.0000 </r>
       <r>   -25.6339     0.0000     3.0000 </r>
       <r>   -25.4280     0.0000     3.0000 </r>
       <r>   -25.2220     0.0000     3.0000 </r>
       <r>   -25.0161     0.0000     3.0000 </r>
       <r>   -24.8102     0.0000     3.0000 </r>
       <r>   -24.6043     0.0000     3.0000 </r>
       <r>   -24.3984     0.0000     3.0000 </r>
       <r>   -24.1924     0.0000     3.0000 </r>
       <r>   -23.9865     0.0000     3.0000 </r>
       <r>   -23.7806     0.0000     3.0000 </r>
       <r>   -23.5747     0.0000     3.0000 </r>
       <r>   -23.3687     0.0000     3.0000 </r>
       <r>   -23.1628     0.0000     3.0000 </r>
       <r>   -22.9569     0.0000     3.0000 </r>
       <r>   -22.7510     0.0000     3.0000 </r>
       <r>   -22.5451     0.0000     3.0000 </r>
       <r>   -22.3391     0.0000     3.0000 </r>
       <r>   -22.1332     0.0000     3.0000 </r>
       <r>   -21.9273     0.0000     3.0000 </r>
       <r>   -21.7214     0.0000     3.0000 </r>
       <r>   -21.5155     0.0000     3.0000 </r>
       <r>   -21.3095     0.0000     3.0000 </r>
       <r>   -21.1036     0.0000     3.0000 </r>
       <r>   -20.8977     0.0000     3.0000 </r>
       <r>   -20.6918     0.0000     3.0000 </r>
       <r>   -20.4859     0.0000     3.0000 </r>
       <r>   -20.2799     0.0000     3.0000 </r>
       <r>   -20.0740     0.0000     3.0000 </r>
       <r>   -19.8681     0.0000     3.0000 </r>
       <r>   -19.6622     0.0000     3.0000 </r>
       <r>   -19.4562     0.0000     3.0000 </r>
       <r>   -19.2503     0.0000     3.0000 </r>
       <r>   -19.0444     0.0000     3.0000 </r>
       <r>   -18.8385     0.0000     3.0000 </r>
       <r>   -18.6326     0.0000     3.0000 </r>
       <r>   -18.4266     0.0000     3.0000 </r>
       <r>   -18.2207     0.0000     3.0000 </r>
       <r>   -18.0148     0.0000     3.0000 </r>
       <r>   -17.8089     0.0000     3.0000 </r>
       <r>   -17.6030     0.0000     3.0000 </r>
       <r>   -17.3970     0.0000     3.0000 </r>
       <r>   -17.1911     0.0000     3.0000 </r>
       <r>   -16.9852     0.0000     3.0000 </r>
       <r>   -16.7793     0.0000     3.0000 </r>
       <r>   -16.5734     0.0000     3.0000 </r>
       <r>   -16.3674     0.0000     3.0000 </r>
       <r>   -16.1615     0.0000     3.0000 </r>
       <r>   -15.9556     0.0000     3.0000 </r>
       <r>   -15.7497     0.0000     3.0000 </r>
       <r>   -15.5437     0.0000     3.0000 </r>
       <r>   -15.3378     0.0000     3.0000 </r>
       <r>   -15.1319     0.0000     3.0000 </r>
       <r>   -14.9260     0.0000     3.0000 </r>
       <r>   -14.7201     0.0000     3.0000 </r>
       <r>   -14.5141     0.0000     3.0000 </r>
       <r>   -14.3082     0.0000     3.0000 </r>
       <r>   -14.1023     0.0000     3.0000 </r>
       <r>   -13.8964     0.0000     3.0000 </r>
       <r>   -13.6905     0.0000     3.0000 </r>
       <r>   -13.4845     0.0000     3.0000 </r>
       <r>   -13.2786     0.0000     3.0000 </r>
       <r>   -13.0727     0.0000     3.0000 </r>
       <r>   -12.8668     0.0000     3.0000 </r>
       <r>   -12.6609     0.0000     3.0000 </r>
       <r>   -12.4549     0.0000     3.0000 </r>
       <r>   -12.2490     0.0000     3.0000 </r>
       <r>   -12.0431     0.0000     3.0000 </r>
       <r>   -11.8372     0.0000     3.0000 </r>
       <r>   -11.6312     0.0000     3.0000 </r>
       <r>   -11.4253     0.0000     3.0000 </r>
       <r>   -11.2194     0.0000     3.0000 </r>
       <r>   -11.0135     0.0000     3.0000 </r>
       <r>   -10.8076     0.0000     3.0000 </r>
       <r>   -10.6016     0.0000     3.0000 </r>
       <r>   -10.3957     0.0000     3.0000 </r>
       <r>   -10.1898     0.0000     3.0000 </r>
       <r>    -9.9839     0.0000     3.0000 </r>
       <r>    -9.7780     0.0000     3.0000 </r>
       <r>    -9.5720     0.0000     3.0000 </r>
       <r>    -9.3661     0.0000     3.0000 </r>
       <r>    -9.1602     0.0000     3.0000 </r>
       <r>    -8.9543     0.0000     3.0000 </r>
       <r>    -8.7484     0.0000     3.0000 </r>
       <r>    -8.5424     0.0000     3.0000 </r>
       <r>    -8.3365     0.0000     3.0000 </r>
       <r>    -8.1306     0.0000     3.0000 </r>
       <r>    -7.9247     0.0000     3.0000 </r>
       <r>    -7.7188     0.0000     3.0000 </r>
       <r>    -7.5128     0.0000     3.0000 </r>
       <r>    -7.3069     0.0000     3.0000 </r>
       <r>    -7.1010     0.0000     3.0000 </r>
       <r>    -6.8951     0.0000     3.0000 </r>
       <r>    -6.6891     0.0000     3.0000 </r>
       <r>    -6.4832     0.0000     3.0000 </r>
       <r>    -6.2773     0.0000     3.0000 </r>
       <r>    -6.0714     0.0000     3.0000 </r>
       <r>    -5.8655     0.0000     3.0000 </r>
       <r>    -5.6595     0.0000     3.0000 </r>
       <r>    -5.4536     0.0000     3.0000 </r>
       <r>    -5.2477     0.0007     3.0001 </r>
       <r>    -5.0418     4.7890     3.9863 </r>
       <r>    -4.8359     5.5033     5.1196 </r>
       <r>    -4.6299     4.2756     6.0000 </r>
       <r>    -4.4240     0.2693     6.0555 </r>
       <r>    -4.2181    14.2980     8.9997 </r>
       <r>    -4.0122     0.0013     9.0000 </r>
       <r>    -3.8063     0.0000     9.0000 </r>
       <r>    -3.6003     0.0000     9.0000 </r>
       <r>    -3.3944     0.0000     9.0000 </r>
       <r>    -3.1885     0.0000     9.0000 </r>
       <r>    -2.9826     0.0000     9.0000 </r>
       <r>    -2.7766     0.0000     9.0000 </r>
       <r>    -2.5707     0.0000     9.0000 </r>
       <r>    -2.3648     0.0000     9.0000 </r>
       <r>    -2.1589     0.0000     9.0000 </r>
       <r>    -1.9530     0.0000     9.0000 </r>
       <r>    -1.7470     0.0000     9.0000 </r>
       <r>    -1.5411     0.0000     9.0000 </r>
       <r>    -1.3352     0.0000     9.0000 </r>
       <r>    -1.1293     0.0000     9.0000 </r>
       <r>    -0.9234     0.0000     9.0000 </r>
       <r>    -0.7174     4.1864     9.8621 </r>
       <r>    -0.5115    10.3823    12.0000 </r>
       <r>    -0.3056     0.0013    12.0003 </r>
       <r>    -0.0997     4.8102    12.9908 </r>
       <r>     0.1062     0.0447    13.0000 </r>
       <r>     0.3122     0.0000    13.0000 </r>
       <r>     0.5181     0.0000    13.0000 </r>
       <r>     0.7240     0.0000    13.0000 </r>
       <r>     0.9299     2.4707    13.5088 </r>
       <r>     1.1359     7.2417    15.0000 </r>
       <r>     1.3418     0.0000    15.0000 </r>
       <r>     1.5477     0.0001    15.0000 </r>
       <r>     1.7536    15.9354    18.2815 </r>
       <r>     1.9595     3.4894    19.0000 </r>
       <r>     2.1655     3.7802    19.7784 </r>
       <r>     2.3714    10.7887    22.0001 </r>
       <r>     2.5773    19.2509    25.9642 </r>
       <r>     2.7832     5.0300    27.0000 </r>
       <r>     2.9891     0.0000    27.0000 </r>
       <r>     3.1951     0.0000    27.0000 </r>
       <r>     3.4010     0.0000    27.0000 </r>
       <r>     3.6069     0.0459    27.0095 </r>
       <r>     3.8128    20.3638    31.2028 </r>
       <r>     4.0187    13.5817    33.9995 </r>
       <r>     4.2247     0.0022    34.0000 </r>
       <r>     4.4306     2.5792    34.5311 </r>
       <r>     4.6365     2.3600    35.0171 </r>
       <r>     4.8424     4.7727    35.9999 </r>
       <r>     5.0484     0.0005    36.0000 </r>
       <r>     5.2543     0.0000    36.0000 </r>
       <r>     5.4602     0.0000    36.0000 </r>
       <r>     5.6661     0.0000    36.0000 </r>
       <r>     5.8720     0.0000    36.0000 </r>
       <r>     6.0780     0.0000    36.0000 </r>
       <r>     6.2839     0.0000    36.0000 </r>
       <r>     6.4898     0.0000    36.0000 </r>
       <r>     6.6957     0.0000    36.0000 </r>
       <r>     6.9016     0.0000    36.0000 </r>
       <r>     7.1076     0.0000    36.0000 </r>
       <r>     7.3135     0.0000    36.0000 </r>
       <r>     7.5194     0.0000    36.0000 </r>
      </set>
     </set>
    </array>
   </total>
   <partial>
    <array>
     <dimension dim="1">gridpoints</dimension>
     <dimension dim="2">spin</dimension>
     <dimension dim="3">ion</dimension>
     <field>energy</field>
     <field>    s</field>
     <field>   py</field>
     <field>   pz</field>
     <field>   px</field>
     <field>  dxy</field>
     <field>  dyz</field>
     <field>  dz2</field>
     <field>  dxz</field>
     <field>x2-y2</field>
     <set>
      <set comment="ion 1">
       <set comment="spin 1">
        <r>   -54.2569     0.0000     0.0000     0.0000     0.0000     0.0000     0.0000     0.0000     0.0000     0.0000 </r>
        <r>   -54.0510     0.0000     0.0000     0.0000     0.0000     0.0000     0.0000     0.0000     0.0000     0.0000 </r>
        <r>   -53.8451     0.0000     0.0000     0.0000     0.0000     0.0000     0.0000     0.0000     0.0000     0.0000 </r>
        <r>   -53.6391     0.0000     0.0000     0.0000     0.0000     0.0000     0.0000     0.0000     0.0000     0.0000 </r>
        <r>   -53.4332     0.0000     0.0000     0.0000     0.0000     0.0000     0.0000     0.0000     0.0000     0.0000 </r>
        <r>   -53.2273     0.0000     0.0000     0.0000     0.0000     0.0000     0.0000     0.0000     0.0000     0.0000 </r>
        <r>   -53.0214     0.0000     0.0000     0.0000     0.0000     0.0000     0.0000     0.0000     0.0000     0.0000 </r>
        <r>   -52.8155     0.0000     0.0000     0.0000     0.0000     0.0000     0.0000     0.0000     0.0000     0.0000 </r>
        <r>   -52.6095     0.0000     0.0000     0.0000     0.0000     0.0000     0.0000     0.0000     0.0000     0.0000 </r>
        <r>   -52.4036     0.0000     0.0000     0.0000     0.0000     0.0000     0.0000     0.0000     0.0000     0.0000 </r>
        <r>   -52.1977     0.0000     0.0000     0.0000     0.0000     0.0000     0.0000     0.0000     0.0000     0.0000 </r>
        <r>   -51.9918     0.0000     0.0000     0.0000     0.0000     0.0000     0.0000     0.0000     0.0000     0.0000 </r>
        <r>   -51.7858     0.0000     0.0000     0.0000     0.0000     0.0000     0.0000     0.0000     0.0000     0.0000 </r>
        <r>   -51.5799     0.0000     0.0005     0.0005     0.0005     0.0000     0.0000     0.0000     0.0000     0.0000 </r>
        <r>   -51.3740     0.0000     4.7470     4.7470     4.7470     0.0000     0.0000     0.0000     0.0000     0.0000 </r>
        <r>   -51.1681     0.0000     0.0826     0.0826     0.0825     0.0000     0.0000     0.0000     0.0000     0.0000 </r>
        <r>   -50.9622     0.0000     0.0000     0.0000     0.0000     0.0000     0.0000     0.0000     0.0000     0.0000 </r>
        <r>   -50.7562     0.0000     0.0000     0.0000     0.0000     0.0000     0.0000     0.0000     0.0000     0.0000 </r>
        <r>   -50.5503     0.0000     0.0000     0.0000     0.0000     0.0000     0.0000     0.0000     0.0000     0.0000 </r>
        <r>   -50.3444     0.0000     0.0000     0.0000     0.0000     0.0000     0.0000     0.0000     0.0000     0.0000 </r>
        <r>   -50.1385     0.0000     0.0000     0.0000     0.0000     0.0000     0.0000     0.0000     0.0000     0.0000 </r>
        <r>   -49.9326     0.0000     0.0000     0.0000     0.0000     0.0000     0.0000     0.0000     0.0000     0.0000 </r>
        <r>   -49.7266     0.0000     0.0000     0.0000     0.0000     0.0000     0.0000     0.0000     0.0000     0.0000 </r>
        <r>   -49.5207     0.0000     0.0000     0.0000     0.0000     0.0000     0.0000     0.0000     0.0000     0.0000 </r>
        <r>   -49.3148     0.0000     0.0000     0.0000     0.0000     0.0000     0.0000     0.0000     0.0000     0.0000 </r>
        <r>   -49.1089     0.0000     0.0000     0.0000     0.0000     0.0000     0.0000     0.0000     0.0000     0.0000 </r>
        <r>   -48.9030     0.0000     0.0000     0.0000     0.0000     0.0000     0.0000     0.0000     0.0000     0.0000 </r>
        <r>   -48.6970     0.0000     0.0000     0.0000     0.0000     0.0000     0.0000     0.0000     0.0000     0.0000 </r>
        <r>   -48.4911     0.0000     0.0000     0.0000     0.0000     0.0000     0.0000     0.0000     0.0000     0.0000 </r>
        <r>   -48.2852     0.0000     0.0000     0.0000     0.0000     0.0000     0.0000     0.0000     0.0000     0.0000 </r>
        <r>   -48.0793     0.0000     0.0000     0.0000     0.0000     0.0000     0.0000     0.0000     0.0000     0.0000 </r>
        <r>   -47.8733     0.0000     0.0000     0.0000     0.0000     0.0000     0.0000     0.0000     0.0000     0.0000 </r>
        <r>   -47.6674     0.0000     0.0000     0.0000     0.0000     0.0000     0.0000     0.0000     0.0000     0.0000 </r>
        <r>   -47.4615     0.0000     0.0000     0.0000     0.0000     0.0000     0.0000     0.0000     0.0000     0.0000 </r>
        <r>   -47.2556     0.0000     0.0000     0.0000     0.0000     0.0000     0.0000     0.0000     0.0000     0.0000 </r>
        <r>   -47.0497     0.0000     0.0000     0.0000     0.0000     0.0000     0.0000     0.0000     0.0000     0.0000 </r>
        <r>   -46.8437     0.0000     0.0000     0.0000     0.0000     0.0000     0.0000     0.0000     0.0000     0.0000 </r>
        <r>   -46.6378     0.0000     0.0000     0.0000     0.0000     0.0000     0.0000     0.0000     0.0000     0.0000 </r>
        <r>   -46.4319     0.0000     0.0000     0.0000     0.0000     0.0000     0.0000     0.0000     0.0000     0.0000 </r>
        <r>   -46.2260     0.0000     0.0000     0.0000     0.0000     0.0000     0.0000     0.0000     0.0000     0.0000 </r>
        <r>   -46.0201     0.0000     0.0000     0.0000     0.0000     0.0000     0.0000     0.0000     0.0000     0.0000 </r>
        <r>   -45.8141     0.0000     0.0000     0.0000     0.0000     0.0000     0.0000     0.0000     0.0000     0.0000 </r>
        <r>   -45.6082     0.0000     0.0000     0.0000     0.0000     0.0000     0.0000     0.0000     0.0000     0.0000 </r>
        <r>   -45.4023     0.0000     0.0000     0.0000     0.0000     0.0000     0.0000     0.0000     0.0000     0.0000 </r>
        <r>   -45.1964     0.0000     0.0000     0.0000     0.0000     0.0000     0.0000     0.0000     0.0000     0.0000 </r>
        <r>   -44.9905     0.0000     0.0000     0.0000     0.0000     0.0000     0.0000     0.0000     0.0000     0.0000 </r>
        <r>   -44.7845     0.0000     0.0000     0.0000     0.0000     0.0000     0.0000     0.0000     0.0000     0.0000 </r>
        <r>   -44.5786     0.0000     0.0000     0.0000     0.0000     0.0000     0.0000     0.0000     0.0000     0.0000 </r>
        <r>   -44.3727     0.0000     0.0000     0.0000     0.0000     0.0000     0.0000     0.0000     0.0000     0.0000 </r>
        <r>   -44.1668     0.0000     0.0000     0.0000     0.0000     0.0000     0.0000     0.0000     0.0000     0.0000 </r>
        <r>   -43.9608     0.0000     0.0000     0.0000     0.0000     0.0000     0.0000     0.0000     0.0000     0.0000 </r>
        <r>   -43.7549     0.0000     0.0000     0.0000     0.0000     0.0000     0.0000     0.0000     0.0000     0.0000 </r>
        <r>   -43.5490     0.0000     0.0000     0.0000     0.0000     0.0000     0.0000     0.0000     0.0000     0.0000 </r>
        <r>   -43.3431     0.0000     0.0000     0.0000     0.0000     0.0000     0.0000     0.0000     0.0000     0.0000 </r>
        <r>   -43.1372     0.0000     0.0000     0.0000     0.0000     0.0000     0.0000     0.0000     0.0000     0.0000 </r>
        <r>   -42.9312     0.0000     0.0000     0.0000     0.0000     0.0000     0.0000     0.0000     0.0000     0.0000 </r>
        <r>   -42.7253     0.0000     0.0000     0.0000     0.0000     0.0000     0.0000     0.0000     0.0000     0.0000 </r>
        <r>   -42.5194     0.0000     0.0000     0.0000     0.0000     0.0000     0.0000     0.0000     0.0000     0.0000 </r>
        <r>   -42.3135     0.0000     0.0000     0.0000     0.0000     0.0000     0.0000     0.0000     0.0000     0.0000 </r>
        <r>   -42.1076     0.0000     0.0000     0.0000     0.0000     0.0000     0.0000     0.0000     0.0000     0.0000 </r>
        <r>   -41.9016     0.0000     0.0000     0.0000     0.0000     0.0000     0.0000     0.0000     0.0000     0.0000 </r>
        <r>   -41.6957     0.0000     0.0000     0.0000     0.0000     0.0000     0.0000     0.0000     0.0000     0.0000 </r>
        <r>   -41.4898     0.0000     0.0000     0.0000     0.0000     0.0000     0.0000     0.0000     0.0000     0.0000 </r>
        <r>   -41.2839     0.0000     0.0000     0.0000     0.0000     0.0000     0.0000     0.0000     0.0000     0.0000 </r>
        <r>   -41.0780     0.0000     0.0000     0.0000     0.0000     0.0000     0.0000     0.0000     0.0000     0.0000 </r>
        <r>   -40.8720     0.0000     0.0000     0.0000     0.0000     0.0000     0.0000     0.0000     0.0000     0.0000 </r>
        <r>   -40.6661     0.0000     0.0000     0.0000     0.0000     0.0000     0.0000     0.0000     0.0000     0.0000 </r>
        <r>   -40.4602     0.0000     0.0000     0.0000     0.0000     0.0000     0.0000     0.0000     0.0000     0.0000 </r>
        <r>   -40.2543     0.0000     0.0000     0.0000     0.0000     0.0000     0.0000     0.0000     0.0000     0.0000 </r>
        <r>   -40.0483     0.0000     0.0000     0.0000     0.0000     0.0000     0.0000     0.0000     0.0000     0.0000 </r>
        <r>   -39.8424     0.0000     0.0000     0.0000     0.0000     0.0000     0.0000     0.0000     0.0000     0.0000 </r>
        <r>   -39.6365     0.0000     0.0000     0.0000     0.0000     0.0000     0.0000     0.0000     0.0000     0.0000 </r>
        <r>   -39.4306     0.0000     0.0000     0.0000     0.0000     0.0000     0.0000     0.0000     0.0000     0.0000 </r>
        <r>   -39.2247     0.0000     0.0000     0.0000     0.0000     0.0000     0.0000     0.0000     0.0000     0.0000 </r>
        <r>   -39.0187     0.0000     0.0000     0.0000     0.0000     0.0000     0.0000     0.0000     0.0000     0.0000 </r>
        <r>   -38.8128     0.0000     0.0000     0.0000     0.0000     0.0000     0.0000     0.0000     0.0000     0.0000 </r>
        <r>   -38.6069     0.0000     0.0000     0.0000     0.0000     0.0000     0.0000     0.0000     0.0000     0.0000 </r>
        <r>   -38.4010     0.0000     0.0000     0.0000     0.0000     0.0000     0.0000     0.0000     0.0000     0.0000 </r>
        <r>   -38.1951     0.0000     0.0000     0.0000     0.0000     0.0000     0.0000     0.0000     0.0000     0.0000 </r>
        <r>   -37.9891     0.0000     0.0000     0.0000     0.0000     0.0000     0.0000     0.0000     0.0000     0.0000 </r>
        <r>   -37.7832     0.0000     0.0000     0.0000     0.0000     0.0000     0.0000     0.0000     0.0000     0.0000 </r>
        <r>   -37.5773     0.0000     0.0000     0.0000     0.0000     0.0000     0.0000     0.0000     0.0000     0.0000 </r>
        <r>   -37.3714     0.0000     0.0000     0.0000     0.0000     0.0000     0.0000     0.0000     0.0000     0.0000 </r>
        <r>   -37.1655     0.0000     0.0000     0.0000     0.0000     0.0000     0.0000     0.0000     0.0000     0.0000 </r>
        <r>   -36.9595     0.0000     0.0000     0.0000     0.0000     0.0000     0.0000     0.0000     0.0000     0.0000 </r>
        <r>   -36.7536     0.0000     0.0000     0.0000     0.0000     0.0000     0.0000     0.0000     0.0000     0.0000 </r>
        <r>   -36.5477     0.0000     0.0000     0.0000     0.0000     0.0000     0.0000     0.0000     0.0000     0.0000 </r>
        <r>   -36.3418     0.0000     0.0000     0.0000     0.0000     0.0000     0.0000     0.0000     0.0000     0.0000 </r>
        <r>   -36.1358     0.0000     0.0000     0.0000     0.0000     0.0000     0.0000     0.0000     0.0000     0.0000 </r>
        <r>   -35.9299     0.0000     0.0000     0.0000     0.0000     0.0000     0.0000     0.0000     0.0000     0.0000 </r>
        <r>   -35.7240     0.0000     0.0000     0.0000     0.0000     0.0000     0.0000     0.0000     0.0000     0.0000 </r>
        <r>   -35.5181     0.0000     0.0000     0.0000     0.0000     0.0000     0.0000     0.0000     0.0000     0.0000 </r>
        <r>   -35.3122     0.0000     0.0000     0.0000     0.0000     0.0000     0.0000     0.0000     0.0000     0.0000 </r>
        <r>   -35.1062     0.0000     0.0000     0.0000     0.0000     0.0000     0.0000     0.0000     0.0000     0.0000 </r>
        <r>   -34.9003     0.0000     0.0000     0.0000     0.0000     0.0000     0.0000     0.0000     0.0000     0.0000 </r>
        <r>   -34.6944     0.0000     0.0000     0.0000     0.0000     0.0000     0.0000     0.0000     0.0000     0.0000 </r>
        <r>   -34.4885     0.0000     0.0000     0.0000     0.0000     0.0000     0.0000     0.0000     0.0000     0.0000 </r>
        <r>   -34.2826     0.0000     0.0000     0.0000     0.0000     0.0000     0.0000     0.0000     0.0000     0.0000 </r>
        <r>   -34.0766     0.0000     0.0000     0.0000     0.0000     0.0000     0.0000     0.0000     0.0000     0.0000 </r>
        <r>   -33.8707     0.0000     0.0000     0.0000     0.0000     0.0000     0.0000     0.0000     0.0000     0.0000 </r>
        <r>   -33.6648     0.0000     0.0000     0.0000     0.0000     0.0000     0.0000     0.0000     0.0000     0.0000 </r>
        <r>   -33.4589     0.0000     0.0000     0.0000     0.0000     0.0000     0.0000     0.0000     0.0000     0.0000 </r>
        <r>   -33.2530     0.0000     0.0000     0.0000     0.0000     0.0000     0.0000     0.0000     0.0000     0.0000 </r>
        <r>   -33.0470     0.0000     0.0000     0.0000     0.0000     0.0000     0.0000     0.0000     0.0000     0.0000 </r>
        <r>   -32.8411     0.0000     0.0000     0.0000     0.0000     0.0000     0.0000     0.0000     0.0000     0.0000 </r>
        <r>   -32.6352     0.0000     0.0000     0.0000     0.0000     0.0000     0.0000     0.0000     0.0000     0.0000 </r>
        <r>   -32.4293     0.0000     0.0000     0.0000     0.0000     0.0000     0.0000     0.0000     0.0000     0.0000 </r>
        <r>   -32.2233     0.0000     0.0000     0.0000     0.0000     0.0000     0.0000     0.0000     0.0000     0.0000 </r>
        <r>   -32.0174     0.0000     0.0000     0.0000     0.0000     0.0000     0.0000     0.0000     0.0000     0.0000 </r>
        <r>   -31.8115     0.0000     0.0000     0.0000     0.0000     0.0000     0.0000     0.0000     0.0000     0.0000 </r>
        <r>   -31.6056     0.0000     0.0000     0.0000     0.0000     0.0000     0.0000     0.0000     0.0000     0.0000 </r>
        <r>   -31.3997     0.0000     0.0000     0.0000     0.0000     0.0000     0.0000     0.0000     0.0000     0.0000 </r>
        <r>   -31.1937     0.0000     0.0000     0.0000     0.0000     0.0000     0.0000     0.0000     0.0000     0.0000 </r>
        <r>   -30.9878     0.0000     0.0000     0.0000     0.0000     0.0000     0.0000     0.0000     0.0000     0.0000 </r>
        <r>   -30.7819     0.0000     0.0000     0.0000     0.0000     0.0000     0.0000     0.0000     0.0000     0.0000 </r>
        <r>   -30.5760     0.0000     0.0000     0.0000     0.0000     0.0000     0.0000     0.0000     0.0000     0.0000 </r>
        <r>   -30.3701     0.0000     0.0000     0.0000     0.0000     0.0000     0.0000     0.0000     0.0000     0.0000 </r>
        <r>   -30.1641     0.0000     0.0000     0.0000     0.0000     0.0000     0.0000     0.0000     0.0000     0.0000 </r>
        <r>   -29.9582     0.0000     0.0000     0.0000     0.0000     0.0000     0.0000     0.0000     0.0000     0.0000 </r>
        <r>   -29.7523     0.0000     0.0000     0.0000     0.0000     0.0000     0.0000     0.0000     0.0000     0.0000 </r>
        <r>   -29.5464     0.0000     0.0000     0.0000     0.0000     0.0000     0.0000     0.0000     0.0000     0.0000 </r>
        <r>   -29.3405     0.0000     0.0000     0.0000     0.0000     0.0000     0.0000     0.0000     0.0000     0.0000 </r>
        <r>   -29.1345     0.0000     0.0000     0.0000     0.0000     0.0000     0.0000     0.0000     0.0000     0.0000 </r>
        <r>   -28.9286     0.0000     0.0000     0.0000     0.0000     0.0000     0.0000     0.0000     0.0000     0.0000 </r>
        <r>   -28.7227     0.0000     0.0000     0.0000     0.0000     0.0000     0.0000     0.0000     0.0000     0.0000 </r>
        <r>   -28.5168     0.0000     0.0000     0.0000     0.0000     0.0000     0.0000     0.0000     0.0000     0.0000 </r>
        <r>   -28.3109     0.0000     0.0000     0.0000     0.0000     0.0000     0.0000     0.0000     0.0000     0.0000 </r>
        <r>   -28.1049     0.0000     0.0000     0.0000     0.0000     0.0000     0.0000     0.0000     0.0000     0.0000 </r>
        <r>   -27.8990     0.0000     0.0000     0.0000     0.0000     0.0000     0.0000     0.0000     0.0000     0.0000 </r>
        <r>   -27.6931     0.0000     0.0000     0.0000     0.0000     0.0000     0.0000     0.0000     0.0000     0.0000 </r>
        <r>   -27.4872     0.0000     0.0000     0.0000     0.0000     0.0000     0.0000     0.0000     0.0000     0.0000 </r>
        <r>   -27.2812     0.0000     0.0000     0.0000     0.0000     0.0000     0.0000     0.0000     0.0000     0.0000 </r>
        <r>   -27.0753     0.0000     0.0000     0.0000     0.0000     0.0000     0.0000     0.0000     0.0000     0.0000 </r>
        <r>   -26.8694     0.0000     0.0000     0.0000     0.0000     0.0000     0.0000     0.0000     0.0000     0.0000 </r>
        <r>   -26.6635     0.0000     0.0000     0.0000     0.0000     0.0000     0.0000     0.0000     0.0000     0.0000 </r>
        <r>   -26.4576     0.0000     0.0000     0.0000     0.0000     0.0000     0.0000     0.0000     0.0000     0.0000 </r>
        <r>   -26.2516     0.0000     0.0000     0.0000     0.0000     0.0000     0.0000     0.0000     0.0000     0.0000 </r>
        <r>   -26.0457     0.0000     0.0000     0.0000     0.0000     0.0000     0.0000     0.0000     0.0000     0.0000 </r>
        <r>   -25.8398     0.0000     0.0000     0.0000     0.0000     0.0000     0.0000     0.0000     0.0000     0.0000 </r>
        <r>   -25.6339     0.0000     0.0000     0.0000     0.0000     0.0000     0.0000     0.0000     0.0000     0.0000 </r>
        <r>   -25.4280     0.0000     0.0000     0.0000     0.0000     0.0000     0.0000     0.0000     0.0000     0.0000 </r>
        <r>   -25.2220     0.0000     0.0000     0.0000     0.0000     0.0000     0.0000     0.0000     0.0000     0.0000 </r>
        <r>   -25.0161     0.0000     0.0000     0.0000     0.0000     0.0000     0.0000     0.0000     0.0000     0.0000 </r>
        <r>   -24.8102     0.0000     0.0000     0.0000     0.0000     0.0000     0.0000     0.0000     0.0000     0.0000 </r>
        <r>   -24.6043     0.0000     0.0000     0.0000     0.0000     0.0000     0.0000     0.0000     0.0000     0.0000 </r>
        <r>   -24.3984     0.0000     0.0000     0.0000     0.0000     0.0000     0.0000     0.0000     0.0000     0.0000 </r>
        <r>   -24.1924     0.0000     0.0000     0.0000     0.0000     0.0000     0.0000     0.0000     0.0000     0.0000 </r>
        <r>   -23.9865     0.0000     0.0000     0.0000     0.0000     0.0000     0.0000     0.0000     0.0000     0.0000 </r>
        <r>   -23.7806     0.0000     0.0000     0.0000     0.0000     0.0000     0.0000     0.0000     0.0000     0.0000 </r>
        <r>   -23.5747     0.0000     0.0000     0.0000     0.0000     0.0000     0.0000     0.0000     0.0000     0.0000 </r>
        <r>   -23.3687     0.0000     0.0000     0.0000     0.0000     0.0000     0.0000     0.0000     0.0000     0.0000 </r>
        <r>   -23.1628     0.0000     0.0000     0.0000     0.0000     0.0000     0.0000     0.0000     0.0000     0.0000 </r>
        <r>   -22.9569     0.0000     0.0000     0.0000     0.0000     0.0000     0.0000     0.0000     0.0000     0.0000 </r>
        <r>   -22.7510     0.0000     0.0000     0.0000     0.0000     0.0000     0.0000     0.0000     0.0000     0.0000 </r>
        <r>   -22.5451     0.0000     0.0000     0.0000     0.0000     0.0000     0.0000     0.0000     0.0000     0.0000 </r>
        <r>   -22.3391     0.0000     0.0000     0.0000     0.0000     0.0000     0.0000     0.0000     0.0000     0.0000 </r>
        <r>   -22.1332     0.0000     0.0000     0.0000     0.0000     0.0000     0.0000     0.0000     0.0000     0.0000 </r>
        <r>   -21.9273     0.0000     0.0000     0.0000     0.0000     0.0000     0.0000     0.0000     0.0000     0.0000 </r>
        <r>   -21.7214     0.0000     0.0000     0.0000     0.0000     0.0000     0.0000     0.0000     0.0000     0.0000 </r>
        <r>   -21.5155     0.0000     0.0000     0.0000     0.0000     0.0000     0.0000     0.0000     0.0000     0.0000 </r>
        <r>   -21.3095     0.0000     0.0000     0.0000     0.0000     0.0000     0.0000     0.0000     0.0000     0.0000 </r>
        <r>   -21.1036     0.0000     0.0000     0.0000     0.0000     0.0000     0.0000     0.0000     0.0000     0.0000 </r>
        <r>   -20.8977     0.0000     0.0000     0.0000     0.0000     0.0000     0.0000     0.0000     0.0000     0.0000 </r>
        <r>   -20.6918     0.0000     0.0000     0.0000     0.0000     0.0000     0.0000     0.0000     0.0000     0.0000 </r>
        <r>   -20.4859     0.0000     0.0000     0.0000     0.0000     0.0000     0.0000     0.0000     0.0000     0.0000 </r>
        <r>   -20.2799     0.0000     0.0000     0.0000     0.0000     0.0000     0.0000     0.0000     0.0000     0.0000 </r>
        <r>   -20.0740     0.0000     0.0000     0.0000     0.0000     0.0000     0.0000     0.0000     0.0000     0.0000 </r>
        <r>   -19.8681     0.0000     0.0000     0.0000     0.0000     0.0000     0.0000     0.0000     0.0000     0.0000 </r>
        <r>   -19.6622     0.0000     0.0000     0.0000     0.0000     0.0000     0.0000     0.0000     0.0000     0.0000 </r>
        <r>   -19.4562     0.0000     0.0000     0.0000     0.0000     0.0000     0.0000     0.0000     0.0000     0.0000 </r>
        <r>   -19.2503     0.0000     0.0000     0.0000     0.0000     0.0000     0.0000     0.0000     0.0000     0.0000 </r>
        <r>   -19.0444     0.0000     0.0000     0.0000     0.0000     0.0000     0.0000     0.0000     0.0000     0.0000 </r>
        <r>   -18.8385     0.0000     0.0000     0.0000     0.0000     0.0000     0.0000     0.0000     0.0000     0.0000 </r>
        <r>   -18.6326     0.0000     0.0000     0.0000     0.0000     0.0000     0.0000     0.0000     0.0000     0.0000 </r>
        <r>   -18.4266     0.0000     0.0000     0.0000     0.0000     0.0000     0.0000     0.0000     0.0000     0.0000 </r>
        <r>   -18.2207     0.0000     0.0000     0.0000     0.0000     0.0000     0.0000     0.0000     0.0000     0.0000 </r>
[...]
        <r>    -1.7470     0.0000     0.0000     0.0000     0.0000     0.0000     0.0000     0.0000     0.0000     0.0000 </r>
        <r>    -1.5411     0.0000     0.0000     0.0000     0.0000     0.0000     0.0000     0.0000     0.0000     0.0000 </r>
        <r>    -1.3352     0.0000     0.0000     0.0000     0.0000     0.0000     0.0000     0.0000     0.0000     0.0000 </r>
        <r>    -1.1293     0.0000     0.0000     0.0000     0.0000     0.0000     0.0000     0.0000     0.0000     0.0000 </r>
        <r>    -0.9234     0.0000     0.0000     0.0000     0.0000     0.0000     0.0000     0.0000     0.0000     0.0000 </r>
        <r>    -0.7174     0.0000     0.1262     0.1281     0.1268     0.0000     0.0000     0.0000     0.0000     0.0000 </r>
        <r>    -0.5115     0.0000     0.3146     0.3151     0.3153     0.0000     0.0000     0.0000     0.0000     0.0000 </r>
        <r>    -0.3056     0.0000     0.0000     0.0000     0.0000     0.0000     0.0000     0.0000     0.0000     0.0000 </r>
        <r>    -0.0997     0.1242     0.0000     0.0000     0.0000     0.0000     0.0000     0.0000     0.0000     0.0000 </r>
        <r>     0.1062     0.0012     0.0000     0.0000     0.0000     0.0000     0.0000     0.0000     0.0000     0.0000 </r>
        <r>     0.3122     0.0000     0.0000     0.0000     0.0000     0.0000     0.0000     0.0000     0.0000     0.0000 </r>
        <r>     0.5181     0.0000     0.0000     0.0000     0.0000     0.0000     0.0000     0.0000     0.0000     0.0000 </r>
        <r>     0.7240     0.0000     0.0000     0.0000     0.0000     0.0000     0.0000     0.0000     0.0000     0.0000 </r>
        <r>     0.9299     0.0000     0.0000     0.0000     0.0000     0.0000     0.0000     0.0135     0.0000     0.0134 </r>
        <r>     1.1359     0.0000     0.0000     0.0000     0.0000     0.0000     0.0000     0.0395     0.0000     0.0392 </r>
        <r>     1.3418     0.0000     0.0000     0.0000     0.0000     0.0000     0.0000     0.0000     0.0000     0.0000 </r>
        <r>     1.5477     0.0000     0.0000     0.0000     0.0000     0.0000     0.0000     0.0000     0.0000     0.0000 </r>
        <r>     1.7536     0.0701     0.1207     0.1179     0.1190     0.0001     0.0001     0.0000     0.0001     0.0000 </r>
        <r>     1.9595     0.0649     0.0119     0.0094     0.0096     0.0000     0.0000     0.0000     0.0000     0.0000 </r>
        <r>     2.1655     0.0000     0.0000     0.0000     0.0000     0.0299     0.0305     0.0000     0.0304     0.0000 </r>
        <r>     2.3714     0.0000     0.0000     0.0000     0.0001     0.0867     0.0860     0.0000     0.0864     0.0000 </r>
        <r>     2.5773     0.0000     0.0001     0.0001     0.0001     0.0002     0.0001     0.0183     0.0001     0.0195 </r>
        <r>     2.7832     0.0000     0.0000     0.0000     0.0000     0.0000     0.0000     0.0126     0.0000     0.0114 </r>
        <r>     2.9891     0.0000     0.0000     0.0000     0.0000     0.0000     0.0000     0.0000     0.0000     0.0000 </r>
        <r>     3.1951     0.0000     0.0000     0.0000     0.0000     0.0000     0.0000     0.0000     0.0000     0.0000 </r>
        <r>     3.4010     0.0000     0.0000     0.0000     0.0000     0.0000     0.0000     0.0000     0.0000     0.0000 </r>
        <r>     3.6069     0.0000     0.0000     0.0012     0.0000     0.0000     0.0000     0.0000     0.0000     0.0000 </r>
        <r>     3.8128     0.1031     0.0418     0.1397     0.0859     0.0220     0.0121     0.0000     0.0113     0.0000 </r>
        <r>     4.0187     0.0350     0.0197     0.0146     0.0367     0.0287     0.0381     0.0000     0.0398     0.0000 </r>
        <r>     4.2247     0.0000     0.0000     0.0000     0.0000     0.0000     0.0000     0.0000     0.0000     0.0000 </r>
        <r>     4.4306     0.0246     0.0008     0.0006     0.0016     0.0001     0.0002     0.0020     0.0001     0.0031 </r>
        <r>     4.6365     0.0229     0.0009     0.0006     0.0015     0.0001     0.0002     0.0018     0.0001     0.0040 </r>
        <r>     4.8424     0.0700     0.0116     0.0004     0.0044     0.0001     0.0002     0.0027     0.0000     0.0698 </r>
        <r>     5.0484     0.0000     0.0000     0.0000     0.0000     0.0000     0.0000     0.0000     0.0000     0.0000 </r>
        <r>     5.2543     0.0000     0.0000     0.0000     0.0000     0.0000     0.0000     0.0000     0.0000     0.0000 </r>
        <r>     5.4602     0.0000     0.0000     0.0000     0.0000     0.0000     0.0000     0.0000     0.0000     0.0000 </r>
        <r>     5.6661     0.0000     0.0000     0.0000     0.0000     0.0000     0.0000     0.0000     0.0000     0.0000 </r>
        <r>     5.8720     0.0000     0.0000     0.0000     0.0000     0.0000     0.0000     0.0000     0.0000     0.0000 </r>
        <r>     6.0780     0.0000     0.0000     0.0000     0.0000     0.0000     0.0000     0.0000     0.0000     0.0000 </r>
        <r>     6.2839     0.0000     0.0000     0.0000     0.0000     0.0000     0.0000     0.0000     0.0000     0.0000 </r>
        <r>     6.4898     0.0000     0.0000     0.0000     0.0000     0.0000     0.0000     0.0000     0.0000     0.0000 </r>
        <r>     6.6957     0.0000     0.0000     0.0000     0.0000     0.0000     0.0000     0.0000     0.0000     0.0000 </r>
        <r>     6.9016     0.0000     0.0000     0.0000     0.0000     0.0000     0.0000     0.0000     0.0000     0.0000 </r>
        <r>     7.1076     0.0000     0.0000     0.0000     0.0000     0.0000     0.0000     0.0000     0.0000     0.0000 </r>
        <r>     7.3135     0.0000     0.0000     0.0000     0.0000     0.0000     0.0000     0.0000     0.0000     0.0000 </r>
        <r>     7.5194     0.0000     0.0000     0.0000     0.0000     0.0000     0.0000     0.0000     0.0000     0.0000 </r>
       </set>
      </set>
     </set>
    </array>
   </partial>
  </dos>
  <projected>
   <eigenvalues>
    <array>
     <dimension dim="1">band</dimension>
     <dimension dim="2">kpoint</dimension>
     <dimension dim="3">spin</dimension>
     <field>eigene</field>
     <field>occ</field>
     <set>
      <set comment="spin 1">
       <set comment="kpoint 1">
        <r>  -51.4489    1.0000 </r>
        <r>  -51.4489    1.0000 </r>
        <r>  -51.4489    1.0000 </r>
        <r>   -7.1424    1.0000 </r>
        <r>   -7.1423    1.0000 </r>
        <r>   -7.1423    1.0000 </r>
        <r>   -6.7777    1.0000 </r>
        <r>   -6.7777    1.0000 </r>
        <r>   -6.4572    1.0000 </r>
        <r>   -1.1975    0.0000 </r>
        <r>   -1.1971    0.0000 </r>
        <r>   -1.1962    0.0000 </r>
        <r>   -0.1434    0.0000 </r>
        <r>    1.0550    0.0000 </r>
        <r>    1.0550    0.0000 </r>
        <r>    1.7163    0.0000 </r>
        <r>    1.7171    0.0000 </r>
        <r>    1.7228    0.0000 </r>
        <r>    1.7490    0.0000 </r>
        <r>    2.1623    0.0000 </r>
        <r>    2.1641    0.0000 </r>
        <r>    2.1644    0.0000 </r>
        <r>    2.6358    0.0000 </r>
        <r>    2.6377    0.0000 </r>
        <r>    2.6427    0.0000 </r>
        <r>    2.6703    0.0000 </r>
        <r>    2.6800    0.0000 </r>
        <r>    3.6703    0.0000 </r>
        <r>    3.6731    0.0000 </r>
        <r>    3.7188    0.0000 </r>
        <r>    3.7477    0.0000 </r>
        <r>    3.9227    0.0000 </r>
        <r>    3.9509    0.0000 </r>
        <r>    3.9605    0.0000 </r>
        <r>    4.5596    0.0000 </r>
        <r>    4.5874    0.0000 </r>
       </set>
      </set>
      <set comment="spin 2">
       <set comment="kpoint 1">
        <r>  -49.2259    1.0000 </r>
        <r>  -49.2259    1.0000 </r>
        <r>  -49.2257    1.0000 </r>
        <r>   -5.1198    1.0000 </r>
        <r>   -4.8414    0.5025 </r>
        <r>   -4.8409    0.4975 </r>
        <r>   -4.3504    0.0000 </r>
        <r>   -4.3503    0.0000 </r>
        <r>   -4.3501    0.0000 </r>
        <r>   -0.6978    0.0000 </r>
        <r>   -0.6976    0.0000 </r>
        <r>   -0.6973    0.0000 </r>
        <r>   -0.1830    0.0000 </r>
        <r>    0.9532    0.0000 </r>
        <r>    0.9533    0.0000 </r>
        <r>    1.7013    0.0000 </r>
        <r>    1.7026    0.0000 </r>
        <r>    1.7030    0.0000 </r>
        <r>    1.7535    0.0000 </r>
        <r>    2.1879    0.0000 </r>
        <r>    2.1882    0.0000 </r>
        <r>    2.1887    0.0000 </r>
        <r>    2.5132    0.0000 </r>
        <r>    2.5204    0.0000 </r>
        <r>    2.5223    0.0000 </r>
        <r>    2.5709    0.0000 </r>
        <r>    2.5737    0.0000 </r>
        <r>    3.6902    0.0000 </r>
        <r>    3.7315    0.0000 </r>
        <r>    3.7862    0.0000 </r>
        <r>    3.7892    0.0000 </r>
        <r>    3.7972    0.0000 </r>
        <r>    3.8947    0.0000 </r>
        <r>    3.8950    0.0000 </r>
        <r>    4.4278    0.0000 </r>
        <r>    4.7114    0.0000 </r>
       </set>
      </set>
     </set>
    </array>
   </eigenvalues>
   <array>
    <dimension dim="1">ion</dimension>
    <dimension dim="2">band</dimension>
    <dimension dim="3">kpoint</dimension>
    <dimension dim="4">spin</dimension>
    <field>    s</field>
    <field>   py</field>
    <field>   pz</field>
    <field>   px</field>
    <field>  dxy</field>
    <field>  dyz</field>
    <field>  dz2</field>
    <field>  dxz</field>
    <field>x2-y2</field>
    <set>
     <set comment="spin1">
      <set comment="kpoint 1">
       <set comment="band 1">
        <r>  0.0000  0.0000  0.0000  0.9946  0.0000  0.0000  0.0000  0.0000  0.0000 </r>
       </set>
       <set comment="band 2">
        <r>  0.0000  0.9199  0.0747  0.0000  0.0000  0.0000  0.0000  0.0000  0.0000 </r>
       </set>
       <set comment="band 3">
        <r>  0.0000  0.0747  0.9199  0.0001  0.0000  0.0000  0.0000  0.0000  0.0000 </r>
       </set>
       <set comment="band 4">
        <r>  0.0000  0.0000  0.0000  0.0000  0.8641  0.0000  0.0000  0.0000  0.0000 </r>
       </set>
       <set comment="band 5">
        <r>  0.0000  0.0000  0.0000  0.0000  0.0000  0.0000  0.0000  0.8641  0.0000 </r>
       </set>
       <set comment="band 6">
        <r>  0.0000  0.0000  0.0000  0.0000  0.0000  0.8641  0.0000  0.0000  0.0000 </r>
       </set>
       <set comment="band 7">
        <r>  0.0000  0.0000  0.0000  0.0000  0.0000  0.0000  0.8570  0.0000  0.0023 </r>
       </set>
       <set comment="band 8">
        <r>  0.0000  0.0000  0.0000  0.0000  0.0000  0.0000  0.0023  0.0000  0.8570 </r>
       </set>
       <set comment="band 9">
        <r>  0.4102  0.0000  0.0000  0.0000  0.0000  0.0000  0.0000  0.0000  0.0000 </r>
       </set>
       <set comment="band 10">
        <r>  0.0000  0.0776  0.0219  0.0305  0.0000  0.0000  0.0000  0.0000  0.0000 </r>
       </set>
       <set comment="band 11">
        <r>  0.0000  0.0006  0.0850  0.0437  0.0000  0.0000  0.0000  0.0000  0.0000 </r>
       </set>
       <set comment="band 12">
        <r>  0.0000  0.0512  0.0223  0.0548  0.0000  0.0000  0.0000  0.0000  0.0000 </r>
       </set>
       <set comment="band 13">
        <r>  0.0233  0.0000  0.0000  0.0000  0.0000  0.0000  0.0000  0.0000  0.0000 </r>
       </set>
       <set comment="band 14">
        <r>  0.0000  0.0000  0.0000  0.0000  0.0000  0.0000  0.0079  0.0000  0.0001 </r>
       </set>
       <set comment="band 15">
        <r>  0.0000  0.0000  0.0000  0.0000  0.0000  0.0000  0.0001  0.0000  0.0079 </r>
       </set>
       <set comment="band 16">
        <r>  0.0001  0.0097  0.0145  0.0041  0.0000  0.0000  0.0000  0.0000  0.0000 </r>
       </set>
       <set comment="band 17">
        <r>  0.0005  0.0185  0.0096  0.0006  0.0000  0.0000  0.0000  0.0000  0.0000 </r>
       </set>
       <set comment="band 18">
        <r>  0.0002  0.0007  0.0045  0.0241  0.0000  0.0001  0.0000  0.0000  0.0000 </r>
       </set>
       <set comment="band 19">
        <r>  0.0264  0.0001  0.0006  0.0000  0.0000  0.0000  0.0000  0.0000  0.0000 </r>
       </set>
       <set comment="band 20">
        <r>  0.0000  0.0000  0.0001  0.0002  0.0016  0.0164  0.0000  0.0004  0.0000 </r>
       </set>
       <set comment="band 21">
        <r>  0.0000  0.0000  0.0000  0.0000  0.0007  0.0008  0.0000  0.0172  0.0000 </r>
       </set>
       <set comment="band 22">
        <r>  0.0000  0.0000  0.0000  0.0000  0.0164  0.0012  0.0000  0.0011  0.0000 </r>
       </set>
       <set comment="band 23">
        <r>  0.0000  0.0000  0.0001  0.0001  0.0000  0.0000  0.0001  0.0000  0.0000 </r>
       </set>
       <set comment="band 24">
        <r>  0.0000  0.0001  0.0001  0.0004  0.0000  0.0000  0.0000  0.0000  0.0000 </r>
       </set>
       <set comment="band 25">
        <r>  0.0000  0.0000  0.0000  0.0000  0.0000  0.0000  0.0011  0.0000  0.0000 </r>
       </set>
       <set comment="band 26">
        <r>  0.0000  0.0000  0.0000  0.0000  0.0000  0.0000  0.0043  0.0000  0.0000 </r>
       </set>
       <set comment="band 27">
        <r>  0.0000  0.0000  0.0000  0.0000  0.0000  0.0000  0.0000  0.0000  0.0055 </r>
       </set>
       <set comment="band 28">
        <r>  0.0041  0.0002  0.0031  0.0286  0.0000  0.0001  0.0000  0.0002  0.0000 </r>
       </set>
       <set comment="band 29">
        <r>  0.0000  0.0031  0.0299  0.0013  0.0001  0.0004  0.0000  0.0000  0.0000 </r>
       </set>
       <set comment="band 30">
        <r>  0.0007  0.0159  0.0066  0.0029  0.0002  0.0002  0.0007  0.0004  0.0000 </r>
       </set>
       <set comment="band 31">
        <r>  0.0265  0.0004  0.0001  0.0067  0.0000  0.0000  0.0000  0.0000  0.0000 </r>
       </set>
       <set comment="band 32">
        <r>  0.0003  0.0052  0.0010  0.0000  0.0001  0.0066  0.0000  0.0008  0.0000 </r>
       </set>
       <set comment="band 33">
        <r>  0.0000  0.0012  0.0014  0.0005  0.0000  0.0009  0.0000  0.0070  0.0000 </r>
       </set>
       <set comment="band 34">
        <r>  0.0000  0.0017  0.0000  0.0000  0.0081  0.0000  0.0000  0.0000  0.0000 </r>
       </set>
       <set comment="band 35">
        <r>  0.0151  0.0009  0.0000  0.0000  0.0000  0.0001  0.0007  0.0000  0.0054 </r>
       </set>
       <set comment="band 36">
        <r>  0.0026  0.0047  0.0067  0.0091  0.0000  0.0000  0.0000  0.0000  0.0050 </r>
       </set>
      </set>
     </set>
     <set comment="spin2">
      <set comment="kpoint 1">
       <set comment="band 1">
        <r>  0.0000  0.0000  0.9939  0.0000  0.0000  0.0000  0.0000  0.0000  0.0000 </r>
       </set>
       <set comment="band 2">
        <r>  0.0000  0.9939  0.0000  0.0000  0.0000  0.0000  0.0000  0.0000  0.0000 </r>
       </set>
       <set comment="band 3">
        <r>  0.0000  0.0000  0.0000  0.9939  0.0000  0.0000  0.0000  0.0000  0.0000 </r>
       </set>
       <set comment="band 4">
        <r>  0.3529  0.0000  0.0000  0.0000  0.0000  0.0000  0.0000  0.0000  0.0000 </r>
       </set>
       <set comment="band 5">
        <r>  0.0000  0.0000  0.0000  0.0000  0.0000  0.0000  0.0080  0.0000  0.8193 </r>
       </set>
       <set comment="band 6">
        <r>  0.0000  0.0000  0.0000  0.0000  0.0000  0.0000  0.8193  0.0000  0.0080 </r>
       </set>
       <set comment="band 7">
        <r>  0.0000  0.0000  0.0000  0.0000  0.1211  0.6446  0.0000  0.0585  0.0000 </r>
       </set>
       <set comment="band 8">
        <r>  0.0000  0.0000  0.0000  0.0000  0.1813  0.0032  0.0000  0.6397  0.0000 </r>
       </set>
       <set comment="band 9">
        <r>  0.0000  0.0000  0.0000  0.0000  0.5218  0.1764  0.0000  0.1260  0.0000 </r>
       </set>
       <set comment="band 10">
        <r>  0.0000  0.0020  0.0823  0.0072  0.0000  0.0000  0.0000  0.0000  0.0000 </r>
       </set>
       <set comment="band 11">
        <r>  0.0000  0.0404  0.0012  0.0495  0.0000  0.0000  0.0000  0.0000  0.0000 </r>
       </set>
       <set comment="band 12">
        <r>  0.0000  0.0484  0.0079  0.0343  0.0000  0.0000  0.0000  0.0000  0.0000 </r>
       </set>
       <set comment="band 13">
        <r>  0.0258  0.0000  0.0000  0.0000  0.0000  0.0000  0.0000  0.0000  0.0000 </r>
       </set>
       <set comment="band 14">
        <r>  0.0000  0.0000  0.0000  0.0000  0.0000  0.0000  0.0055  0.0000  0.0053 </r>
       </set>
       <set comment="band 15">
        <r>  0.0000  0.0000  0.0000  0.0000  0.0000  0.0000  0.0053  0.0000  0.0055 </r>
       </set>
       <set comment="band 16">
        <r>  0.0001  0.0006  0.0155  0.0099  0.0000  0.0000  0.0000  0.0000  0.0000 </r>
       </set>
       <set comment="band 17">
        <r>  0.0001  0.0016  0.0106  0.0146  0.0000  0.0000  0.0000  0.0000  0.0000 </r>
       </set>
       <set comment="band 18">
        <r>  0.0011  0.0242  0.0000  0.0018  0.0000  0.0000  0.0000  0.0000  0.0000 </r>
       </set>
       <set comment="band 19">
        <r>  0.0266  0.0009  0.0001  0.0001  0.0000  0.0000  0.0000  0.0000  0.0000 </r>
       </set>
       <set comment="band 20">
        <r>  0.0000  0.0000  0.0000  0.0000  0.0009  0.0184  0.0000  0.0047  0.0000 </r>
       </set>
       <set comment="band 21">
        <r>  0.0000  0.0000  0.0000  0.0000  0.0017  0.0056  0.0000  0.0167  0.0000 </r>
       </set>
       <set comment="band 22">
        <r>  0.0000  0.0000  0.0000  0.0000  0.0214  0.0001  0.0000  0.0026  0.0000 </r>
       </set>
       <set comment="band 23">
        <r>  0.0000  0.0000  0.0000  0.0000  0.0000  0.0000  0.0000  0.0000  0.0000 </r>
       </set>
       <set comment="band 24">
        <r>  0.0000  0.0000  0.0000  0.0000  0.0000  0.0000  0.0008  0.0000  0.0000 </r>
       </set>
       <set comment="band 25">
        <r>  0.0000  0.0000  0.0000  0.0000  0.0000  0.0000  0.0000  0.0000  0.0010 </r>
       </set>
       <set comment="band 26">
        <r>  0.0000  0.0000  0.0000  0.0000  0.0000  0.0000  0.0001  0.0000  0.0053 </r>
       </set>
       <set comment="band 27">
        <r>  0.0000  0.0000  0.0000  0.0000  0.0000  0.0000  0.0055  0.0000  0.0001 </r>
       </set>
       <set comment="band 28">
        <r>  0.0001  0.0010  0.0263  0.0010  0.0009  0.0000  0.0000  0.0003  0.0000 </r>
       </set>
       <set comment="band 29">
        <r>  0.0000  0.0002  0.0014  0.0033  0.0002  0.0000  0.0000  0.0002  0.0000 </r>
       </set>
       <set comment="band 30">
        <r>  0.0004  0.0077  0.0009  0.0064  0.0026  0.0003  0.0000  0.0020  0.0000 </r>
       </set>
       <set comment="band 31">
        <r>  0.0277  0.0005  0.0001  0.0001  0.0000  0.0000  0.0000  0.0000  0.0000 </r>
       </set>
       <set comment="band 32">
        <r>  0.0001  0.0016  0.0008  0.0124  0.0021  0.0032  0.0000  0.0004  0.0000 </r>
       </set>
       <set comment="band 33">
        <r>  0.0000  0.0017  0.0003  0.0011  0.0021  0.0068  0.0000  0.0006  0.0000 </r>
       </set>
       <set comment="band 34">
        <r>  0.0001  0.0000  0.0022  0.0009  0.0026  0.0000  0.0000  0.0071  0.0000 </r>
       </set>
       <set comment="band 35">
        <r>  0.0095  0.0003  0.0002  0.0006  0.0000  0.0001  0.0008  0.0000  0.0012 </r>
       </set>
       <set comment="band 36">
        <r>  0.0147  0.0024  0.0001  0.0009  0.0000  0.0000  0.0006  0.0000  0.0146 </r>
       </set>
      </set>
     </set>
    </set>
   </array>
  </projected>
 </calculation>
 <structure name="finalpos" >
  <crystal>
   <varray name="basis" >
    <v>      10.00000000       0.00000000       0.00000000 </v>
    <v>       0.00000000      10.00000000       0.00000000 </v>
    <v>       0.00000000       0.00000000      10.00000000 </v>
   </varray>
   <i name="volume">   1000.00000000 </i>
   <varray name="rec_basis" >
    <v>       0.10000000       0.00000000       0.00000000 </v>
    <v>       0.00000000       0.10000000       0.00000000 </v>
    <v>       0.00000000       0.00000000       0.10000000 </v>
   </varray>
  </crystal>
  <varray name="positions" >
   <v>       0.50000000       0.50000000       0.50000000 </v>
  </varray>
 </structure>
</modeling>
