       N       E                     dE             d eps       ncg     rms          ort
DAV:   1     0.728755920255E+02    0.72876E+02   -0.47825E+03    36   0.361E+02
DAV:   2     0.143422010031E+02   -0.58533E+02   -0.58533E+02    36   0.735E+01
DAV:   3     0.686622656947E+01   -0.74760E+01   -0.74760E+01    36   0.329E+01
DAV:   4     0.490732707761E+01   -0.19589E+01   -0.19589E+01    36   0.116E+01
DAV:   5     0.244569434525E+01   -0.24616E+01   -0.24554E+01    36   0.682E+00
SDA:   6     0.296579174028E+01    0.52010E+00   -0.30556E+01    36   0.764E+01 0.000E+00
DMP:   7     0.890643763461E+00   -0.20751E+01   -0.13098E+01    36   0.229E+01 0.259E+01
DMP:   8     0.570430637072E-01   -0.83360E+00   -0.82770E+00    36   0.182E+01 0.645E+00
DMP:   9    -0.550908779406E+00   -0.60795E+00   -0.34899E+00    36   0.763E+00 0.286E+00
DMP:  10    -0.684216274963E+00   -0.13331E+00   -0.77096E-01    36   0.148E+00 0.118E+00
DMP:  11    -0.731002219939E+00   -0.46786E-01   -0.23452E-01    36   0.450E-01 0.357E-01
DMP:  12    -0.745547801697E+00   -0.14546E-01   -0.10754E-01    36   0.218E-01 0.133E-01
DMP:  13    -0.752670821312E+00   -0.71230E-02   -0.44165E-02    36   0.782E-02 0.844E-02
DMP:  14    -0.755478589374E+00   -0.28078E-02   -0.14542E-02    36   0.253E-02 0.290E-02
DMP:  15    -0.756393906341E+00   -0.91532E-03   -0.63568E-03    36   0.123E-02 0.939E-03
DMP:  16    -0.756840646468E+00   -0.44674E-03   -0.30771E-03    36   0.520E-03 0.652E-03
DMP:  17    -0.757053356699E+00   -0.21271E-03   -0.11513E-03    36   0.174E-03 0.299E-03
DMP:  18    -0.757172399459E+00   -0.11904E-03   -0.21756E-03    36   0.285E-03 0.677E-03
DMP:  19    -0.758663481198E+00   -0.14911E-02   -0.32269E-02    36   0.384E-02 0.111E-01
DMP:  20    -0.766176129808E+00   -0.75126E-02   -0.90795E-02    36   0.103E-01 0.325E-01
DMP:  21    -0.777950116719E+00   -0.11774E-01   -0.93260E-02    36   0.102E-01 0.344E-01
DMP:  22    -0.787200433637E+00   -0.92503E-02   -0.56847E-02    36   0.599E-02 0.215E-01
DMP:  23    -0.792186777096E+00   -0.49863E-02   -0.26567E-02    36   0.271E-02 0.103E-01
DMP:  24    -0.794387674230E+00   -0.22009E-02   -0.10795E-02    36   0.106E-02 0.428E-02
DMP:  25    -0.795257282040E+00   -0.86961E-03   -0.40387E-03    36   0.385E-03 0.164E-02
DMP:  26    -0.795577468833E+00   -0.32019E-03   -0.14234E-03    36   0.131E-03 0.589E-03
DMP:  27    -0.795688960228E+00   -0.11149E-03   -0.47525E-04    36   0.420E-04 0.201E-03
DMP:  28    -0.795725729574E+00   -0.36769E-04   -0.14974E-04    36   0.126E-04 0.649E-04
   1 F= -.79572573E+00 E0= -.77644470E+00  d E =-.795726E+00  mag=     2.0000
