<?xml version="1.0" encoding="ISO-8859-1"?>
<modeling>
 <generator>
  <i name="program" type="string">vasp </i>
  <i name="version" type="string">5.4.4.18Apr17-6-g9f103f2a35  </i>
  <i name="subversion" type="string">(build Nov 08 2019 15:19:53) gamma-only         parallel </i>
  <i name="platform" type="string">LinuxIFC </i>
  <i name="date" type="string">2020 11 30 </i>
  <i name="time" type="string">09:30:29 </i>
 </generator>
 <incar>
  <i type="string" name="PREC">accurate</i>
  <i type="string" name="ALGO"> D</i>
  <i type="int" name="ISPIN">     2</i>
  <i type="int" name="NELM">   300</i>
  <i type="int" name="IBRION">     2</i>
  <i name="EDIFF">      0.00005000</i>
  <i type="int" name="NSW">    99</i>
  <i type="int" name="ISIF">     2</i>
  <i name="ENCUT">    520.00000000</i>
  <v name="MAGMOM">      0.60000000</v>
  <i type="string" name="LREAL"> Auto</i>
  <i type="int" name="ISMEAR">     0</i>
  <i name="SIGMA">      0.05000000</i>
  <i type="logical" name="LWAVE"> F  </i>
  <i type="int" name="LORBIT">    11</i>
  <i type="logical" name="LASPH"> T  </i>
  <v type="int" name="KPOINT_BSE">    -1     0     0     0</v>
  <i type="int" name="NELM">   300</i>
  <i type="logical" name="LASPH"> T  </i>
 </incar>
 <structure name="primitive_cell" >
  <crystal>
   <varray name="basis" >
    <v>      10.00000000       0.00000000       0.00000000 </v>
    <v>       0.00000000      10.00000000       0.00000000 </v>
    <v>       0.00000000       0.00000000      10.00000000 </v>
   </varray>
   <i name="volume">   1000.00000000 </i>
   <varray name="rec_basis" >
    <v>       0.10000000       0.00000000       0.00000000 </v>
    <v>       0.00000000       0.10000000       0.00000000 </v>
    <v>       0.00000000       0.00000000       0.10000000 </v>
   </varray>
  </crystal>
  <varray name="positions" >
   <v>      -0.50000000      -0.50000000      -0.50000000 </v>
  </varray>
 </structure>
 <varray name="primitive_index" >
  <v type="int" >        1 </v>
 </varray>
 <kpoints>
  <generation param="Gamma">
   <v type="int" name="divisions">       1        1        1 </v>
   <v name="usershift">      0.00000000       0.00000000       0.00000000 </v>
   <v name="genvec1">      1.00000000       0.00000000       0.00000000 </v>
   <v name="genvec2">      0.00000000       1.00000000       0.00000000 </v>
   <v name="genvec3">      0.00000000       0.00000000       1.00000000 </v>
   <v name="shift">      0.00000000       0.00000000       0.00000000 </v>
  </generation>
  <varray name="kpointlist" >
   <v>       0.00000000       0.00000000       0.00000000 </v>
  </varray>
  <varray name="weights" >
   <v>       1.00000000 </v>
  </varray>
 </kpoints>
 <parameters>
  <separator name="general" >
   <i type="string" name="SYSTEM">unknown system</i>
   <i type="logical" name="LCOMPAT"> F  </i>
  </separator>
  <separator name="electronic" >
   <i type="string" name="PREC">accura</i>
   <i name="ENMAX">    520.00000000</i>
   <i name="ENAUG">    531.35600000</i>
   <i name="EDIFF">      0.00005000</i>
   <i type="int" name="IALGO">    53</i>
   <i type="int" name="IWAVPR">    11</i>
   <i type="int" name="NBANDS">    36</i>
   <i name="NELECT">     14.00000000</i>
   <i type="int" name="TURBO">     0</i>
   <i type="int" name="IRESTART">     0</i>
   <i type="int" name="NREBOOT">     0</i>
   <i type="int" name="NMIN">     0</i>
   <i name="EREF">      0.00000000</i>
   <separator name="electronic smearing" >
    <i type="int" name="ISMEAR">     0</i>
    <i name="SIGMA">      0.05000000</i>
    <i name="KSPACING">      0.50000000</i>
    <i type="logical" name="KGAMMA"> T  </i>
   </separator>
   <separator name="electronic projectors" >
    <i type="logical" name="LREAL"> T  </i>
    <v name="ROPT">     -0.00025000</v>
    <i type="int" name="LMAXPAW">  -100</i>
    <i type="int" name="LMAXMIX">     2</i>
    <i type="logical" name="NLSPLINE"> F  </i>
   </separator>
   <separator name="electronic startup" >
    <i type="int" name="ISTART">     0</i>
    <i type="int" name="ICHARG">     2</i>
    <i type="int" name="INIWAV">     1</i>
   </separator>
   <separator name="electronic spin" >
    <i type="int" name="ISPIN">     2</i>
    <i type="logical" name="LNONCOLLINEAR"> F  </i>
    <v name="MAGMOM">      0.60000000</v>
    <i name="NUPDOWN">     -1.00000000</i>
    <i type="logical" name="LSORBIT"> F  </i>
    <v name="SAXIS">      0.00000000      0.00000000      1.00000000</v>
    <i type="logical" name="LSPIRAL"> F  </i>
    <v name="QSPIRAL">      0.00000000      0.00000000      0.00000000</v>
    <i type="logical" name="LZEROZ"> F  </i>
   </separator>
   <separator name="electronic exchange-correlation" >
    <i type="logical" name="LASPH"> T  </i>
    <i type="logical" name="LMETAGGA"> F  </i>
   </separator>
   <separator name="electronic convergence" >
    <i type="int" name="NELM">   300</i>
    <i type="int" name="NELMDL">    -5</i>
    <i type="int" name="NELMIN">     2</i>
    <i name="ENINI">    520.00000000</i>
    <separator name="electronic convergence detail" >
     <i type="logical" name="LDIAG"> T  </i>
     <i type="logical" name="LSUBROT"> F  </i>
     <i name="WEIMIN">      0.00100000</i>
     <i name="EBREAK">      0.00000035</i>
     <i name="DEPER">      0.30000000</i>
     <i type="int" name="NRMM">     4</i>
     <i name="TIME">      0.40000000</i>
    </separator>
   </separator>
   <separator name="electronic mixer" >
    <i name="AMIX">      0.40000000</i>
    <i name="BMIX">      1.00000000</i>
    <i name="AMIN">      0.10000000</i>
    <i name="AMIX_MAG">      1.60000000</i>
    <i name="BMIX_MAG">      1.00000000</i>
    <separator name="electronic mixer details" >
     <i type="int" name="IMIX">     4</i>
     <i type="logical" name="MIXFIRST"> F  </i>
     <i type="int" name="MAXMIX">   -45</i>
     <i name="WC">    100.00000000</i>
     <i type="int" name="INIMIX">     1</i>
     <i type="int" name="MIXPRE">     1</i>
     <i type="int" name="MREMOVE">     5</i>
    </separator>
   </separator>
   <separator name="electronic dipolcorrection" >
    <i type="logical" name="LDIPOL"> F  </i>
    <i type="logical" name="LMONO"> F  </i>
    <i type="int" name="IDIPOL">     0</i>
    <i name="EPSILON">      1.00000000</i>
    <v name="DIPOL">   -100.00000000   -100.00000000   -100.00000000</v>
    <i name="EFIELD">      0.00000000</i>
   </separator>
  </separator>
  <separator name="grids" >
   <i type="int" name="NGX">    80</i>
   <i type="int" name="NGY">    80</i>
   <i type="int" name="NGZ">    80</i>
   <i type="int" name="NGXF">   160</i>
   <i type="int" name="NGYF">   160</i>
   <i type="int" name="NGZF">   160</i>
   <i type="logical" name="ADDGRID"> F  </i>
  </separator>
  <separator name="ionic" >
   <i type="int" name="NSW">    99</i>
   <i type="int" name="IBRION">     2</i>
   <i type="int" name="MDALGO">     0</i>
   <i type="int" name="ISIF">     2</i>
   <i name="PSTRESS">      0.00000000</i>
   <i name="EDIFFG">      0.00050000</i>
   <i type="int" name="NFREE">     1</i>
   <i name="POTIM">      0.50000000</i>
   <i name="SMASS">     -3.00000000</i>
   <i name="SCALEE">      1.00000000</i>
  </separator>
  <separator name="ionic md" >
   <i name="TEBEG">      0.00010000</i>
   <i name="TEEND">      0.00010000</i>
   <i type="int" name="NBLOCK">     1</i>
   <i type="int" name="KBLOCK">    99</i>
   <i type="int" name="NPACO">   256</i>
   <i name="APACO">     16.00000000</i>
  </separator>
  <separator name="symmetry" >
   <i type="int" name="ISYM">     2</i>
   <i name="SYMPREC">      0.00001000</i>
  </separator>
  <separator name="dos" >
   <i type="int" name="LORBIT">    11</i>
   <v name="RWIGS">     -1.00000000</v>
   <i type="int" name="NEDOS">   301</i>
   <i name="EMIN">     10.00000000</i>
   <i name="EMAX">    -10.00000000</i>
   <i name="EFERMI">      0.00000000</i>
  </separator>
  <separator name="writing" >
   <i type="int" name="NWRITE">     2</i>
   <i type="logical" name="LWAVE"> F  </i>
   <i type="logical" name="LDOWNSAMPLE"> F  </i>
   <i type="logical" name="LCHARG"> T  </i>
   <i type="logical" name="LPARD"> F  </i>
   <i type="logical" name="LVTOT"> F  </i>
   <i type="logical" name="LVHAR"> F  </i>
   <i type="logical" name="LELF"> F  </i>
   <i type="logical" name="LOPTICS"> F  </i>
   <v name="STM">      0.00000000      0.00000000      0.00000000      0.00000000      0.00000000      0.00000000      0.00000000</v>
  </separator>
  <separator name="performance" >
   <i type="int" name="NPAR">    36</i>
   <i type="int" name="NSIM">     4</i>
   <i type="int" name="NBLK">    -1</i>
   <i type="logical" name="LPLANE"> T  </i>
   <i type="logical" name="LSCALAPACK"> T  </i>
   <i type="logical" name="LSCAAWARE"> F  </i>
   <i type="logical" name="LSCALU"> F  </i>
   <i type="logical" name="LASYNC"> F  </i>
   <i type="logical" name="LORBITALREAL"> F  </i>
  </separator>
  <separator name="miscellaneous" >
   <i type="int" name="IDIOT">     3</i>
   <i type="int" name="ISPECIAL">     0</i>
   <i type="logical" name="LMUSIC"> F  </i>
   <v name="POMASS">     72.61000000</v>
   <v name="DARWINR">      0.00000000</v>
   <v name="DARWINV">      1.00000000</v>
   <i type="logical" name="LCORR"> T  </i>
  </separator>
  <i type="logical" name="GGA_COMPAT"> T  </i>
  <i type="logical" name="LBERRY"> F  </i>
  <i type="int" name="ICORELEVEL">     0</i>
  <i type="logical" name="LDAU"> F  </i>
  <i type="int" name="I_CONSTRAINED_M">     0</i>
  <separator name="electronic exchange-correlation" >
   <i type="string" name="GGA">--</i>
   <i type="int" name="VOSKOWN">     0</i>
   <i type="logical" name="LHFCALC"> F  </i>
   <i type="string" name="PRECFOCK"></i>
   <i type="logical" name="LSYMGRAD"> F  </i>
   <i type="logical" name="LHFONE"> F  </i>
   <i type="logical" name="LRHFCALC"> F  </i>
   <i type="logical" name="LTHOMAS"> F  </i>
   <i type="logical" name="LMODELHF"> F  </i>
   <i name="ENCUT4O">     -1.00000000</i>
   <i type="int" name="EXXOEP">     0</i>
   <i type="int" name="FOURORBIT">     0</i>
   <i name="AEXX">      0.00000000</i>
   <i name="HFALPHA">      0.00000000</i>
   <i name="MCALPHA">      0.00000000</i>
   <i name="ALDAX">      1.00000000</i>
   <i name="AGGAX">      1.00000000</i>
   <i name="ALDAC">      1.00000000</i>
   <i name="AGGAC">      1.00000000</i>
   <i type="int" name="NKREDX">     1</i>
   <i type="int" name="NKREDY">     1</i>
   <i type="int" name="NKREDZ">     1</i>
   <i type="logical" name="SHIFTRED"> F  </i>
   <i type="logical" name="ODDONLY"> F  </i>
   <i type="logical" name="EVENONLY"> F  </i>
   <i type="int" name="LMAXFOCK">     0</i>
   <i type="int" name="NMAXFOCKAE">     0</i>
   <i type="logical" name="LFOCKAEDFT"> F  </i>
   <i name="HFSCREEN">      0.00000000</i>
   <i name="HFSCREENC">      0.00000000</i>
   <i type="int" name="NBANDSGWLOW">     0</i>
  </separator>
  <separator name="vdW DFT" >
   <i type="logical" name="LUSE_VDW"> F  </i>
   <i name="Zab_VDW">     -0.84910000</i>
   <i name="PARAM1">      0.12340000</i>
   <i name="PARAM2">      1.00000000</i>
   <i name="PARAM3">      0.00000000</i>
  </separator>
  <separator name="model GW" >
   <i type="int" name="MODEL_GW">     0</i>
   <i name="MODEL_EPS0">    600.00000000</i>
   <i name="MODEL_ALPHA">      1.00000000</i>
  </separator>
  <separator name="linear response parameters" >
   <i type="logical" name="LEPSILON"> F  </i>
   <i type="logical" name="LRPA"> F  </i>
   <i type="logical" name="LNABLA"> F  </i>
   <i type="logical" name="LVEL"> F  </i>
   <i type="int" name="KINTER">     0</i>
   <i name="CSHIFT">      0.10000000</i>
   <i name="OMEGAMAX">     -1.00000000</i>
   <i name="DEG_THRESHOLD">      0.00200000</i>
   <i name="RTIME">     -0.10000000</i>
   <i name="WPLASMAI">      0.00000000</i>
   <v name="DFIELD">      0.00000000      0.00000000      0.00000000</v>
   <v name="WPLASMA">      0.00000000      0.00000000      0.00000000      0.00000000      0.00000000      0.00000000      0.00000000      0.00000000      0.00000000</v>
  </separator>
  <separator name="orbital magnetization" >
   <i type="logical" name="NUCIND"> F  </i>
   <v name="MAGPOS">      0.00000000      0.00000000      0.00000000</v>
   <i type="logical" name="LNICSALL"> T  </i>
   <i type="logical" name="ORBITALMAG"> F  </i>
   <i type="logical" name="LMAGBLOCH"> F  </i>
   <i type="logical" name="LCHIMAG"> F  </i>
   <i type="logical" name="LGAUGE"> T  </i>
   <i type="int" name="MAGATOM">     0</i>
   <v name="MAGDIPOL">      0.00000000      0.00000000      0.00000000</v>
   <v name="AVECCONST">      0.00000000      0.00000000      0.00000000</v>
  </separator>
  <separator name="response functions" >
   <i type="logical" name="LADDER"> F  </i>
   <i type="logical" name="LRPAFORCE"> F  </i>
   <i type="logical" name="LFXC"> F  </i>
   <i type="logical" name="LHARTREE"> T  </i>
   <i type="int" name="IBSE">     0</i>
   <v type="int" name="KPOINT">    -1     0     0     0</v>
   <i type="logical" name="LTCTE"> F  </i>
   <i type="logical" name="LTETE"> F  </i>
   <i type="logical" name="LTRIPLET"> F  </i>
   <i type="logical" name="LFXCEPS"> F  </i>
   <i type="logical" name="LFXHEG"> F  </i>
   <i type="int" name="NATURALO">     2</i>
   <i type="logical" name="L2ORDER"> F  </i>
   <i type="logical" name="LMP2LT"> F  </i>
   <i type="logical" name="LUSEW"> F  </i>
   <i name="ENCUTGW">     -2.00000000</i>
   <i name="ENCUTGWSOFT">     -2.00000000</i>
   <i name="ENCUTLF">     -1.00000000</i>
   <i type="int" name="LMAXMP2">    -1</i>
   <i name="SCISSOR">      0.00000000</i>
   <i type="int" name="NOMEGA">     0</i>
   <i type="int" name="NOMEGAR">     0</i>
   <i type="int" name="NBANDSGW">    -1</i>
   <i type="int" name="NBANDSO">    -1</i>
   <i type="int" name="NBANDSV">    -1</i>
   <i type="int" name="NELM">   300</i>
   <i type="int" name="NELMHF">     1</i>
   <i type="int" name="DIM">     3</i>
   <i type="int" name="ANTIRES">     0</i>
   <i name="OMEGAMAX">    -30.00000000</i>
   <i name="OMEGAMIN">    -30.00000000</i>
   <i name="OMEGATL">   -200.00000000</i>
   <i type="int" name="OMEGAGRID">   140</i>
   <i name="CSHIFT">     -0.10000000</i>
   <i type="logical" name="SELFENERGY"> F  </i>
   <i type="logical" name="LSPECTRAL"> F  </i>
   <i type="logical" name="LSPECTRALGW"> F  </i>
   <i type="logical" name="LSINGLES"> F  </i>
   <i type="logical" name="LFERMIGW"> F  </i>
   <i type="logical" name="ODDONLYGW"> F  </i>
   <i type="logical" name="EVENONLYGW"> F  </i>
   <i type="int" name="NKREDLFX">     1</i>
   <i type="int" name="NKREDLFY">     1</i>
   <i type="int" name="NKREDLFZ">     1</i>
   <i type="int" name="MAXMEM">  2800</i>
   <i type="int" name="TELESCOPE">     0</i>
   <i type="int" name="TAUPAR">     1</i>
   <i type="int" name="OMEGAPAR">    -1</i>
   <i name="LAMBDA">      1.00000000</i>
  </separator>
  <separator name="External order field" >
   <i name="OFIELD_KAPPA">      0.00000000</i>
   <v name="OFIELD_K">      0.00000000      0.00000000      0.00000000</v>
   <i name="OFIELD_Q6_NEAR">      0.00000000</i>
   <i name="OFIELD_Q6_FAR">      0.00000000</i>
   <i name="OFIELD_A">      0.00000000</i>
  </separator>
 </parameters>
 <atominfo>
  <atoms>       1 </atoms>
  <types>       1 </types>
  <array name="atoms" >
   <dimension dim="1">ion</dimension>
   <field type="string">element</field>
   <field type="int">atomtype</field>
   <set>
    <rc><c>Ge</c><c>   1</c></rc>
   </set>
  </array>
  <array name="atomtypes" >
   <dimension dim="1">type</dimension>
   <field type="int">atomspertype</field>
   <field type="string">element</field>
   <field>mass</field>
   <field>valence</field>
   <field type="string">pseudopotential</field>
   <set>
    <rc><c>   1</c><c>Ge</c><c>     72.61000000</c><c>     14.00000000</c><c>  PAW_PBE Ge_d 03Jul2007                </c></rc>
   </set>
  </array>
 </atominfo>
 <structure name="initialpos" >
  <crystal>
   <varray name="basis" >
    <v>      10.00000000       0.00000000       0.00000000 </v>
    <v>       0.00000000      10.00000000       0.00000000 </v>
    <v>       0.00000000       0.00000000      10.00000000 </v>
   </varray>
   <i name="volume">   1000.00000000 </i>
   <varray name="rec_basis" >
    <v>       0.10000000       0.00000000       0.00000000 </v>
    <v>       0.00000000       0.10000000       0.00000000 </v>
    <v>       0.00000000       0.00000000       0.10000000 </v>
   </varray>
  </crystal>
  <varray name="positions" >
   <v>       0.50000000       0.50000000       0.50000000 </v>
  </varray>
 </structure>
 <calculation>
  <scstep>
   <time name="total">    1.17    1.18</time>
   <energy>
    <i name="alphaZ">      1.46490330 </i>
    <i name="ewald">   -400.39350411 </i>
    <i name="hartreedc">  -1512.38273037 </i>
    <i name="XCdc">     71.06885018 </i>
    <i name="pawpsdc">   1836.58634924 </i>
    <i name="pawaedc">  -2271.53591086 </i>
    <i name="eentropy">     -0.00000000 </i>
    <i name="bandstr">   -248.16976112 </i>
    <i name="atom">   2596.23739575 </i>
    <i name="e_fr_energy">     72.87559203 </i>
    <i name="e_wo_entrp">     72.87559203 </i>
    <i name="e_0_energy">     72.87559203 </i>
   </energy>
  </scstep>
  <scstep>
   <time name="total">    0.50    0.50</time>
   <energy>
    <i name="e_fr_energy">     14.34220100 </i>
    <i name="e_wo_entrp">     14.34220100 </i>
    <i name="e_0_energy">     14.34220100 </i>
   </energy>
  </scstep>
  <scstep>
   <time name="total">    0.51    0.51</time>
   <energy>
    <i name="e_fr_energy">      6.86622657 </i>
    <i name="e_wo_entrp">      6.86622657 </i>
    <i name="e_0_energy">      6.86622657 </i>
   </energy>
  </scstep>
  <scstep>
   <time name="total">    0.51    0.51</time>
   <energy>
    <i name="e_fr_energy">      4.90732708 </i>
    <i name="e_wo_entrp">      4.90749402 </i>
    <i name="e_0_energy">      4.90741055 </i>
   </energy>
  </scstep>
  <scstep>
   <time name="total">    0.77    0.77</time>
   <energy>
    <i name="e_fr_energy">      2.44569435 </i>
    <i name="e_wo_entrp">      2.46354076 </i>
    <i name="e_0_energy">      2.45461755 </i>
   </energy>
  </scstep>
  <scstep>
   <time name="total">    1.34    1.34</time>
   <energy>
    <i name="e_fr_energy">      2.96579174 </i>
    <i name="e_wo_entrp">      2.98719643 </i>
    <i name="e_0_energy">      2.97649409 </i>
   </energy>
  </scstep>
  <scstep>
   <time name="total">    1.28    1.28</time>
   <energy>
    <i name="e_fr_energy">      0.89064376 </i>
    <i name="e_wo_entrp">      0.91866278 </i>
    <i name="e_0_energy">      0.90465327 </i>
   </energy>
  </scstep>
  <scstep>
   <time name="total">    1.28    1.28</time>
   <energy>
    <i name="e_fr_energy">      0.05704306 </i>
    <i name="e_wo_entrp">      0.05978508 </i>
    <i name="e_0_energy">      0.05841407 </i>
   </energy>
  </scstep>
  <scstep>
   <time name="total">    1.29    1.29</time>
   <energy>
    <i name="e_fr_energy">     -0.55090878 </i>
    <i name="e_wo_entrp">     -0.55090878 </i>
    <i name="e_0_energy">     -0.55090878 </i>
   </energy>
  </scstep>
  <scstep>
   <time name="total">    1.29    1.29</time>
   <energy>
    <i name="e_fr_energy">     -0.68421627 </i>
    <i name="e_wo_entrp">     -0.68421627 </i>
    <i name="e_0_energy">     -0.68421627 </i>
   </energy>
  </scstep>
  <scstep>
   <time name="total">    1.27    1.27</time>
   <energy>
    <i name="e_fr_energy">     -0.73100222 </i>
    <i name="e_wo_entrp">     -0.73100222 </i>
    <i name="e_0_energy">     -0.73100222 </i>
   </energy>
  </scstep>
  <scstep>
   <time name="total">    1.28    1.28</time>
   <energy>
    <i name="e_fr_energy">     -0.74554780 </i>
    <i name="e_wo_entrp">     -0.74554780 </i>
    <i name="e_0_energy">     -0.74554780 </i>
   </energy>
  </scstep>
  <scstep>
   <time name="total">    1.28    1.28</time>
   <energy>
    <i name="e_fr_energy">     -0.75267082 </i>
    <i name="e_wo_entrp">     -0.75267082 </i>
    <i name="e_0_energy">     -0.75267082 </i>
   </energy>
  </scstep>
  <scstep>
   <time name="total">    1.31    1.31</time>
   <energy>
    <i name="e_fr_energy">     -0.75547859 </i>
    <i name="e_wo_entrp">     -0.75547859 </i>
    <i name="e_0_energy">     -0.75547859 </i>
   </energy>
  </scstep>
  <scstep>
   <time name="total">    1.28    1.28</time>
   <energy>
    <i name="e_fr_energy">     -0.75639391 </i>
    <i name="e_wo_entrp">     -0.75639391 </i>
    <i name="e_0_energy">     -0.75639391 </i>
   </energy>
  </scstep>
  <scstep>
   <time name="total">    1.27    1.27</time>
   <energy>
    <i name="e_fr_energy">     -0.75684065 </i>
    <i name="e_wo_entrp">     -0.75684059 </i>
    <i name="e_0_energy">     -0.75684062 </i>
   </energy>
  </scstep>
  <scstep>
   <time name="total">    1.28    1.29</time>
   <energy>
    <i name="e_fr_energy">     -0.75705336 </i>
    <i name="e_wo_entrp">     -0.75701066 </i>
    <i name="e_0_energy">     -0.75703201 </i>
   </energy>
  </scstep>
  <scstep>
   <time name="total">    1.28    1.28</time>
   <energy>
    <i name="e_fr_energy">     -0.75717240 </i>
    <i name="e_wo_entrp">     -0.75563151 </i>
    <i name="e_0_energy">     -0.75640195 </i>
   </energy>
  </scstep>
  <scstep>
   <time name="total">    1.27    1.27</time>
   <energy>
    <i name="e_fr_energy">     -0.75866348 </i>
    <i name="e_wo_entrp">     -0.74948224 </i>
    <i name="e_0_energy">     -0.75407286 </i>
   </energy>
  </scstep>
  <scstep>
   <time name="total">    1.27    1.27</time>
   <energy>
    <i name="e_fr_energy">     -0.76617613 </i>
    <i name="e_wo_entrp">     -0.74511697 </i>
    <i name="e_0_energy">     -0.75564655 </i>
   </energy>
  </scstep>
  <scstep>
   <time name="total">    1.29    1.29</time>
   <energy>
    <i name="e_fr_energy">     -0.77795012 </i>
    <i name="e_wo_entrp">     -0.74767316 </i>
    <i name="e_0_energy">     -0.76281164 </i>
   </energy>
  </scstep>
  <scstep>
   <time name="total">    1.28    1.28</time>
   <energy>
    <i name="e_fr_energy">     -0.78720043 </i>
    <i name="e_wo_entrp">     -0.75202896 </i>
    <i name="e_0_energy">     -0.76961470 </i>
   </energy>
  </scstep>
  <scstep>
   <time name="total">    1.27    1.27</time>
   <energy>
    <i name="e_fr_energy">     -0.79218678 </i>
    <i name="e_wo_entrp">     -0.75489103 </i>
    <i name="e_0_energy">     -0.77353891 </i>
   </energy>
  </scstep>
  <scstep>
   <time name="total">    1.27    1.27</time>
   <energy>
    <i name="e_fr_energy">     -0.79438767 </i>
    <i name="e_wo_entrp">     -0.75626755 </i>
    <i name="e_0_energy">     -0.77532761 </i>
   </energy>
  </scstep>
  <scstep>
   <time name="total">    1.28    1.28</time>
   <energy>
    <i name="e_fr_energy">     -0.79525728 </i>
    <i name="e_wo_entrp">     -0.75683933 </i>
    <i name="e_0_energy">     -0.77604831 </i>
   </energy>
  </scstep>
  <scstep>
   <time name="total">    1.27    1.27</time>
   <energy>
    <i name="e_fr_energy">     -0.79557747 </i>
    <i name="e_wo_entrp">     -0.75705794 </i>
    <i name="e_0_energy">     -0.77631771 </i>
   </energy>
  </scstep>
  <scstep>
   <time name="total">    1.28    1.28</time>
   <energy>
    <i name="e_fr_energy">     -0.79568896 </i>
    <i name="e_wo_entrp">     -0.75713674 </i>
    <i name="e_0_energy">     -0.77641285 </i>
   </energy>
  </scstep>
  <scstep>
   <time name="total">    1.36    1.36</time>
   <energy>
    <i name="alphaZ">      1.46490330 </i>
    <i name="ewald">   -400.39350411 </i>
    <i name="hartreedc">  -1515.19036388 </i>
    <i name="XCdc">     71.45054057 </i>
    <i name="pawpsdc">   1855.28012773 </i>
    <i name="pawaedc">  -2290.44930779 </i>
    <i name="eentropy">     -0.03856206 </i>
    <i name="bandstr">   -319.15696509 </i>
    <i name="atom">   2596.23739575 </i>
    <i name="e_fr_energy">     -0.79572573 </i>
    <i name="e_wo_entrp">     -0.75716367 </i>
    <i name="e_0_energy">     -0.77644470 </i>
   </energy>
  </scstep>
  <structure>
   <crystal>
    <varray name="basis" >
     <v>      10.00000000       0.00000000       0.00000000 </v>
     <v>       0.00000000      10.00000000       0.00000000 </v>
     <v>       0.00000000       0.00000000      10.00000000 </v>
    </varray>
    <i name="volume">   1000.00000000 </i>
    <varray name="rec_basis" >
     <v>       0.10000000       0.00000000       0.00000000 </v>
     <v>       0.00000000       0.10000000       0.00000000 </v>
     <v>       0.00000000       0.00000000       0.10000000 </v>
    </varray>
   </crystal>
   <varray name="positions" >
    <v>       0.50000000       0.50000000       0.50000000 </v>
   </varray>
  </structure>
  <varray name="forces" >
   <v>       0.00000000       0.00000000       0.00000000 </v>
  </varray>
  <varray name="stress" >
   <v>       0.01202034       0.00000000       0.00000000 </v>
   <v>       0.00000000       0.01202034       0.00000000 </v>
   <v>      -0.00000000       0.00000000       0.01202034 </v>
  </varray>
  <energy>
   <i name="e_fr_energy">     -0.79572573 </i>
   <i name="e_wo_entrp">     -0.77644470 </i>
   <i name="e_0_energy">     -0.03856206 </i>
  </energy>
  <time name="totalsc">   43.17   43.34</time>
  <eigenvalues>
   <array>
    <dimension dim="1">band</dimension>
    <dimension dim="2">kpoint</dimension>
    <dimension dim="3">spin</dimension>
    <field>eigene</field>
    <field>occ</field>
    <set>
     <set comment="spin 1">
      <set comment="kpoint 1">
       <r>  -28.9065    1.0000 </r>
       <r>  -28.9065    1.0000 </r>
       <r>  -28.9065    1.0000 </r>
       <r>  -28.9065    1.0000 </r>
       <r>  -28.9065    1.0000 </r>
       <r>  -11.9878    1.0000 </r>
       <r>   -4.1739    0.6703 </r>
       <r>   -4.1739    0.6700 </r>
       <r>   -4.1739    0.6597 </r>
       <r>   -0.6681    0.0000 </r>
       <r>    0.7679    0.0000 </r>
       <r>    0.7679    0.0000 </r>
       <r>    1.0443    0.0000 </r>
       <r>    1.0446    0.0000 </r>
       <r>    1.0454    0.0000 </r>
       <r>    1.2099    0.0000 </r>
       <r>    1.6289    0.0000 </r>
       <r>    1.6290    0.0000 </r>
       <r>    1.6290    0.0000 </r>
       <r>    2.4326    0.0000 </r>
       <r>    2.4331    0.0000 </r>
       <r>    2.4581    0.0000 </r>
       <r>    2.4618    0.0000 </r>
       <r>    2.4685    0.0000 </r>
       <r>    2.7512    0.0000 </r>
       <r>    2.7517    0.0000 </r>
       <r>    2.7541    0.0000 </r>
       <r>    3.0823    0.0000 </r>
       <r>    3.6121    0.0000 </r>
       <r>    3.6124    0.0000 </r>
       <r>    3.6126    0.0000 </r>
       <r>    3.6156    0.0000 </r>
       <r>    4.0193    0.0000 </r>
       <r>    4.0271    0.0000 </r>
       <r>    4.3214    0.0000 </r>
       <r>    4.3533    0.0000 </r>
      </set>
     </set>
     <set comment="spin 2">
      <set comment="kpoint 1">
       <r>  -28.7552    1.0000 </r>
       <r>  -28.7552    1.0000 </r>
       <r>  -28.7552    1.0000 </r>
       <r>  -28.7552    1.0000 </r>
       <r>  -28.7552    1.0000 </r>
       <r>  -10.5129    1.0000 </r>
       <r>   -2.6460    0.0000 </r>
       <r>   -2.6460    0.0000 </r>
       <r>   -2.6459    0.0000 </r>
       <r>    0.0096    0.0000 </r>
       <r>    1.4291    0.0000 </r>
       <r>    1.4292    0.0000 </r>
       <r>    1.6646    0.0000 </r>
       <r>    1.7039    0.0000 </r>
       <r>    1.7039    0.0000 </r>
       <r>    1.7044    0.0000 </r>
       <r>    2.5396    0.0000 </r>
       <r>    2.5397    0.0000 </r>
       <r>    2.5399    0.0000 </r>
       <r>    2.9127    0.0000 </r>
       <r>    2.9130    0.0000 </r>
       <r>    3.0368    0.0000 </r>
       <r>    3.0370    0.0000 </r>
       <r>    3.0371    0.0000 </r>
       <r>    3.3628    0.0000 </r>
       <r>    3.3652    0.0000 </r>
       <r>    3.3871    0.0000 </r>
       <r>    3.4894    0.0000 </r>
       <r>    4.1614    0.0000 </r>
       <r>    4.1625    0.0000 </r>
       <r>    4.1628    0.0000 </r>
       <r>    4.3592    0.0000 </r>
       <r>    4.7964    0.0000 </r>
       <r>    4.8995    0.0000 </r>
       <r>    4.9016    0.0000 </r>
       <r>    5.5477    0.0000 </r>
      </set>
     </set>
    </set>
   </array>
  </eigenvalues>
  <separator name="orbital magnetization" >
   <v name="MAGDIPOLOUT">      0.00000000      0.00000000      0.00000000</v>
  </separator>
  <dos>
   <i name="efermi">     -4.15870008 </i>
   <total>
    <array>
     <dimension dim="1">gridpoints</dimension>
     <dimension dim="2">spin</dimension>
     <field>energy</field>
     <field>total</field>
     <field>integrated</field>
     <set>
      <set comment="spin 1">
       <r>   -30.6292     0.0000     0.0000 </r>
       <r>   -30.5029     0.0000     0.0000 </r>
       <r>   -30.3765     0.0000     0.0000 </r>
       <r>   -30.2502     0.0000     0.0000 </r>
       <r>   -30.1239     0.0000     0.0000 </r>
       <r>   -29.9975     0.0000     0.0000 </r>
       <r>   -29.8712     0.0000     0.0000 </r>
       <r>   -29.7449     0.0000     0.0000 </r>
       <r>   -29.6185     0.0000     0.0000 </r>
       <r>   -29.4922     0.0000     0.0000 </r>
       <r>   -29.3659     0.0000     0.0000 </r>
       <r>   -29.2396     0.0000     0.0000 </r>
       <r>   -29.1132     0.0000     0.0000 </r>
       <r>   -28.9869     0.4545     0.0574 </r>
       <r>   -28.8606    35.2872     4.5153 </r>
       <r>   -28.7342     3.8365     5.0000 </r>
       <r>   -28.6079     0.0000     5.0000 </r>
       <r>   -28.4816     0.0000     5.0000 </r>
       <r>   -28.3552     0.0000     5.0000 </r>
       <r>   -28.2289     0.0000     5.0000 </r>
       <r>   -28.1026     0.0000     5.0000 </r>
       <r>   -27.9762     0.0000     5.0000 </r>
       <r>   -27.8499     0.0000     5.0000 </r>
       <r>   -27.7236     0.0000     5.0000 </r>
       <r>   -27.5972     0.0000     5.0000 </r>
       <r>   -27.4709     0.0000     5.0000 </r>
       <r>   -27.3446     0.0000     5.0000 </r>
       <r>   -27.2182     0.0000     5.0000 </r>
       <r>   -27.0919     0.0000     5.0000 </r>
       <r>   -26.9656     0.0000     5.0000 </r>
       <r>   -26.8392     0.0000     5.0000 </r>
       <r>   -26.7129     0.0000     5.0000 </r>
       <r>   -26.5866     0.0000     5.0000 </r>
       <r>   -26.4602     0.0000     5.0000 </r>
       <r>   -26.3339     0.0000     5.0000 </r>
       <r>   -26.2076     0.0000     5.0000 </r>
       <r>   -26.0812     0.0000     5.0000 </r>
       <r>   -25.9549     0.0000     5.0000 </r>
       <r>   -25.8286     0.0000     5.0000 </r>
       <r>   -25.7023     0.0000     5.0000 </r>
       <r>   -25.5759     0.0000     5.0000 </r>
       <r>   -25.4496     0.0000     5.0000 </r>
       <r>   -25.3233     0.0000     5.0000 </r>
       <r>   -25.1969     0.0000     5.0000 </r>
       <r>   -25.0706     0.0000     5.0000 </r>
       <r>   -24.9443     0.0000     5.0000 </r>
       <r>   -24.8179     0.0000     5.0000 </r>
       <r>   -24.6916     0.0000     5.0000 </r>
       <r>   -24.5653     0.0000     5.0000 </r>
       <r>   -24.4389     0.0000     5.0000 </r>
       <r>   -24.3126     0.0000     5.0000 </r>
       <r>   -24.1863     0.0000     5.0000 </r>
       <r>   -24.0599     0.0000     5.0000 </r>
       <r>   -23.9336     0.0000     5.0000 </r>
       <r>   -23.8073     0.0000     5.0000 </r>
       <r>   -23.6809     0.0000     5.0000 </r>
       <r>   -23.5546     0.0000     5.0000 </r>
       <r>   -23.4283     0.0000     5.0000 </r>
       <r>   -23.3019     0.0000     5.0000 </r>
       <r>   -23.1756     0.0000     5.0000 </r>
       <r>   -23.0493     0.0000     5.0000 </r>
       <r>   -22.9229     0.0000     5.0000 </r>
       <r>   -22.7966     0.0000     5.0000 </r>
       <r>   -22.6703     0.0000     5.0000 </r>
       <r>   -22.5439     0.0000     5.0000 </r>
       <r>   -22.4176     0.0000     5.0000 </r>
       <r>   -22.2913     0.0000     5.0000 </r>
       <r>   -22.1649     0.0000     5.0000 </r>
       <r>   -22.0386     0.0000     5.0000 </r>
       <r>   -21.9123     0.0000     5.0000 </r>
       <r>   -21.7860     0.0000     5.0000 </r>
       <r>   -21.6596     0.0000     5.0000 </r>
       <r>   -21.5333     0.0000     5.0000 </r>
       <r>   -21.4070     0.0000     5.0000 </r>
       <r>   -21.2806     0.0000     5.0000 </r>
       <r>   -21.1543     0.0000     5.0000 </r>
       <r>   -21.0280     0.0000     5.0000 </r>
       <r>   -20.9016     0.0000     5.0000 </r>
       <r>   -20.7753     0.0000     5.0000 </r>
       <r>   -20.6490     0.0000     5.0000 </r>
       <r>   -20.5226     0.0000     5.0000 </r>
       <r>   -20.3963     0.0000     5.0000 </r>
       <r>   -20.2700     0.0000     5.0000 </r>
       <r>   -20.1436     0.0000     5.0000 </r>
       <r>   -20.0173     0.0000     5.0000 </r>
       <r>   -19.8910     0.0000     5.0000 </r>
       <r>   -19.7646     0.0000     5.0000 </r>
       <r>   -19.6383     0.0000     5.0000 </r>
       <r>   -19.5120     0.0000     5.0000 </r>
       <r>   -19.3856     0.0000     5.0000 </r>
       <r>   -19.2593     0.0000     5.0000 </r>
       <r>   -19.1330     0.0000     5.0000 </r>
       <r>   -19.0066     0.0000     5.0000 </r>
       <r>   -18.8803     0.0000     5.0000 </r>
       <r>   -18.7540     0.0000     5.0000 </r>
       <r>   -18.6276     0.0000     5.0000 </r>
       <r>   -18.5013     0.0000     5.0000 </r>
       <r>   -18.3750     0.0000     5.0000 </r>
       <r>   -18.2486     0.0000     5.0000 </r>
       <r>   -18.1223     0.0000     5.0000 </r>
       <r>   -17.9960     0.0000     5.0000 </r>
       <r>   -17.8697     0.0000     5.0000 </r>
       <r>   -17.7433     0.0000     5.0000 </r>
       <r>   -17.6170     0.0000     5.0000 </r>
       <r>   -17.4907     0.0000     5.0000 </r>
       <r>   -17.3643     0.0000     5.0000 </r>
       <r>   -17.2380     0.0000     5.0000 </r>
       <r>   -17.1117     0.0000     5.0000 </r>
       <r>   -16.9853     0.0000     5.0000 </r>
       <r>   -16.8590     0.0000     5.0000 </r>
       <r>   -16.7327     0.0000     5.0000 </r>
       <r>   -16.6063     0.0000     5.0000 </r>
       <r>   -16.4800     0.0000     5.0000 </r>
       <r>   -16.3537     0.0000     5.0000 </r>
       <r>   -16.2273     0.0000     5.0000 </r>
       <r>   -16.1010     0.0000     5.0000 </r>
       <r>   -15.9747     0.0000     5.0000 </r>
       <r>   -15.8483     0.0000     5.0000 </r>
       <r>   -15.7220     0.0000     5.0000 </r>
       <r>   -15.5957     0.0000     5.0000 </r>
       <r>   -15.4693     0.0000     5.0000 </r>
       <r>   -15.3430     0.0000     5.0000 </r>
       <r>   -15.2167     0.0000     5.0000 </r>
       <r>   -15.0903     0.0000     5.0000 </r>
       <r>   -14.9640     0.0000     5.0000 </r>
       <r>   -14.8377     0.0000     5.0000 </r>
       <r>   -14.7113     0.0000     5.0000 </r>
       <r>   -14.5850     0.0000     5.0000 </r>
       <r>   -14.4587     0.0000     5.0000 </r>
       <r>   -14.3324     0.0000     5.0000 </r>
       <r>   -14.2060     0.0000     5.0000 </r>
       <r>   -14.0797     0.0000     5.0000 </r>
       <r>   -13.9534     0.0000     5.0000 </r>
       <r>   -13.8270     0.0000     5.0000 </r>
       <r>   -13.7007     0.0000     5.0000 </r>
       <r>   -13.5744     0.0000     5.0000 </r>
       <r>   -13.4480     0.0000     5.0000 </r>
       <r>   -13.3217     0.0000     5.0000 </r>
       <r>   -13.1954     0.0000     5.0000 </r>
       <r>   -13.0690     0.0000     5.0000 </r>
       <r>   -12.9427     0.0000     5.0000 </r>
       <r>   -12.8164     0.0000     5.0000 </r>
       <r>   -12.6900     0.0000     5.0000 </r>
       <r>   -12.5637     0.0000     5.0000 </r>
       <r>   -12.4374     0.0000     5.0000 </r>
       <r>   -12.3110     0.0000     5.0000 </r>
       <r>   -12.1847     0.0000     5.0000 </r>
       <r>   -12.0584     0.1821     5.0230 </r>
       <r>   -11.9320     7.2800     5.9427 </r>
       <r>   -11.8057     0.4536     6.0000 </r>
       <r>   -11.6794     0.0000     6.0000 </r>
       <r>   -11.5530     0.0000     6.0000 </r>
       <r>   -11.4267     0.0000     6.0000 </r>
       <r>   -11.3004     0.0000     6.0000 </r>
       <r>   -11.1740     0.0000     6.0000 </r>
       <r>   -11.0477     0.0000     6.0000 </r>
       <r>   -10.9214     0.0000     6.0000 </r>
       <r>   -10.7950     0.0000     6.0000 </r>
       <r>   -10.6687     0.0000     6.0000 </r>
       <r>   -10.5424     0.0000     6.0000 </r>
       <r>   -10.4161     0.0000     6.0000 </r>
       <r>   -10.2897     0.0000     6.0000 </r>
       <r>   -10.1634     0.0000     6.0000 </r>
       <r>   -10.0371     0.0000     6.0000 </r>
       <r>    -9.9107     0.0000     6.0000 </r>
       <r>    -9.7844     0.0000     6.0000 </r>
       <r>    -9.6581     0.0000     6.0000 </r>
       <r>    -9.5317     0.0000     6.0000 </r>
       <r>    -9.4054     0.0000     6.0000 </r>
       <r>    -9.2791     0.0000     6.0000 </r>
       <r>    -9.1527     0.0000     6.0000 </r>
       <r>    -9.0264     0.0000     6.0000 </r>
       <r>    -8.9001     0.0000     6.0000 </r>
       <r>    -8.7737     0.0000     6.0000 </r>
       <r>    -8.6474     0.0000     6.0000 </r>
       <r>    -8.5211     0.0000     6.0000 </r>
       <r>    -8.3947     0.0000     6.0000 </r>
       <r>    -8.2684     0.0000     6.0000 </r>
       <r>    -8.1421     0.0000     6.0000 </r>
       <r>    -8.0157     0.0000     6.0000 </r>
       <r>    -7.8894     0.0000     6.0000 </r>
       <r>    -7.7631     0.0000     6.0000 </r>
       <r>    -7.6367     0.0000     6.0000 </r>
       <r>    -7.5104     0.0000     6.0000 </r>
       <r>    -7.3841     0.0000     6.0000 </r>
       <r>    -7.2577     0.0000     6.0000 </r>
       <r>    -7.1314     0.0000     6.0000 </r>
       <r>    -7.0051     0.0000     6.0000 </r>
       <r>    -6.8787     0.0000     6.0000 </r>
       <r>    -6.7524     0.0000     6.0000 </r>
       <r>    -6.6261     0.0000     6.0000 </r>
       <r>    -6.4998     0.0000     6.0000 </r>
       <r>    -6.3734     0.0000     6.0000 </r>
       <r>    -6.2471     0.0000     6.0000 </r>
       <r>    -6.1208     0.0000     6.0000 </r>
       <r>    -5.9944     0.0000     6.0000 </r>
       <r>    -5.8681     0.0000     6.0000 </r>
       <r>    -5.7418     0.0000     6.0000 </r>
       <r>    -5.6154     0.0000     6.0000 </r>
       <r>    -5.4891     0.0000     6.0000 </r>
       <r>    -5.3628     0.0000     6.0000 </r>
       <r>    -5.2364     0.0000     6.0000 </r>
       <r>    -5.1101     0.0000     6.0000 </r>
       <r>    -4.9838     0.0000     6.0000 </r>
       <r>    -4.8574     0.0000     6.0000 </r>
       <r>    -4.7311     0.0000     6.0000 </r>
       <r>    -4.6048     0.0000     6.0000 </r>
       <r>    -4.4784     0.0000     6.0000 </r>
       <r>    -4.3521     0.0000     6.0000 </r>
       <r>    -4.2258     1.6925     6.2138 </r>
       <r>    -4.0994    21.6372     8.9473 </r>
       <r>    -3.9731     0.4171     9.0000 </r>
       <r>    -3.8468     0.0000     9.0000 </r>
       <r>    -3.7204     0.0000     9.0000 </r>
       <r>    -3.5941     0.0000     9.0000 </r>
       <r>    -3.4678     0.0000     9.0000 </r>
       <r>    -3.3414     0.0000     9.0000 </r>
       <r>    -3.2151     0.0000     9.0000 </r>
       <r>    -3.0888     0.0000     9.0000 </r>
       <r>    -2.9625     0.0000     9.0000 </r>
       <r>    -2.8361     0.0000     9.0000 </r>
       <r>    -2.7098     0.0000     9.0000 </r>
       <r>    -2.5835     0.0000     9.0000 </r>
       <r>    -2.4571     0.0000     9.0000 </r>
       <r>    -2.3308     0.0000     9.0000 </r>
       <r>    -2.2045     0.0000     9.0000 </r>
       <r>    -2.0781     0.0000     9.0000 </r>
       <r>    -1.9518     0.0000     9.0000 </r>
       <r>    -1.8255     0.0000     9.0000 </r>
       <r>    -1.6991     0.0000     9.0000 </r>
       <r>    -1.5728     0.0000     9.0000 </r>
       <r>    -1.4465     0.0000     9.0000 </r>
       <r>    -1.3201     0.0000     9.0000 </r>
       <r>    -1.1938     0.0000     9.0000 </r>
       <r>    -1.0675     0.0000     9.0000 </r>
       <r>    -0.9411     0.0000     9.0000 </r>
       <r>    -0.8148     0.0001     9.0000 </r>
       <r>    -0.6885     2.2370     9.2826 </r>
       <r>    -0.5621     5.6678     9.9986 </r>
       <r>    -0.4358     0.0108    10.0000 </r>
       <r>    -0.3095     0.0000    10.0000 </r>
       <r>    -0.1831     0.0000    10.0000 </r>
       <r>    -0.0568     0.0000    10.0000 </r>
       <r>     0.0695     0.0000    10.0000 </r>
       <r>     0.1959     0.0000    10.0000 </r>
       <r>     0.3222     0.0000    10.0000 </r>
       <r>     0.4485     0.0000    10.0000 </r>
       <r>     0.5749     0.0000    10.0000 </r>
       <r>     0.7012     0.4676    10.0591 </r>
       <r>     0.8275    14.6364    11.9081 </r>
       <r>     0.9538     0.8478    12.0152 </r>
       <r>     1.0802    19.8727    14.5258 </r>
       <r>     1.2065     7.4057    15.4614 </r>
       <r>     1.3328     4.2616    15.9997 </r>
       <r>     1.4592     0.0020    16.0000 </r>
       <r>     1.5855     2.6022    16.3287 </r>
       <r>     1.7118    20.9184    18.9714 </r>
       <r>     1.8382     0.2263    19.0000 </r>
       <r>     1.9645     0.0000    19.0000 </r>
       <r>     2.0908     0.0000    19.0000 </r>
       <r>     2.2172     0.0000    19.0000 </r>
       <r>     2.3435     0.1007    19.0127 </r>
       <r>     2.4698    27.1210    22.4390 </r>
       <r>     2.5962    12.3544    23.9997 </r>
       <r>     2.7225     4.7367    24.5981 </r>
       <r>     2.8488    18.9364    26.9904 </r>
       <r>     2.9752     0.0855    27.0012 </r>
       <r>     3.1015     5.5783    27.7059 </r>
       <r>     3.2278     2.3275    28.0000 </r>
       <r>     3.3542     0.0002    28.0000 </r>
       <r>     3.4805     0.0028    28.0004 </r>
       <r>     3.6068    13.5742    29.7152 </r>
       <r>     3.7332    18.0745    31.9986 </r>
       <r>     3.8595     0.0111    32.0000 </r>
       <r>     3.9858     2.3230    32.2935 </r>
       <r>     4.1122    13.4102    33.9876 </r>
       <r>     4.2385     0.1779    34.0101 </r>
       <r>     4.3648    11.9386    35.5183 </r>
       <r>     4.4912     3.8124    36.0000 </r>
       <r>     4.6175     0.0004    36.0000 </r>
       <r>     4.7438     0.0000    36.0000 </r>
       <r>     4.8701     0.0000    36.0000 </r>
       <r>     4.9965     0.0000    36.0000 </r>
       <r>     5.1228     0.0000    36.0000 </r>
       <r>     5.2491     0.0000    36.0000 </r>
       <r>     5.3755     0.0000    36.0000 </r>
       <r>     5.5018     0.0000    36.0000 </r>
       <r>     5.6281     0.0000    36.0000 </r>
       <r>     5.7545     0.0000    36.0000 </r>
       <r>     5.8808     0.0000    36.0000 </r>
       <r>     6.0071     0.0000    36.0000 </r>
       <r>     6.1335     0.0000    36.0000 </r>
       <r>     6.2598     0.0000    36.0000 </r>
       <r>     6.3861     0.0000    36.0000 </r>
       <r>     6.5125     0.0000    36.0000 </r>
       <r>     6.6388     0.0000    36.0000 </r>
       <r>     6.7651     0.0000    36.0000 </r>
       <r>     6.8915     0.0000    36.0000 </r>
       <r>     7.0178     0.0000    36.0000 </r>
       <r>     7.1441     0.0000    36.0000 </r>
       <r>     7.2705     0.0000    36.0000 </r>
      </set>
      <set comment="spin 2">
       <r>   -30.6292     0.0000     0.0000 </r>
       <r>   -30.5029     0.0000     0.0000 </r>
       <r>   -30.3765     0.0000     0.0000 </r>
       <r>   -30.2502     0.0000     0.0000 </r>
       <r>   -30.1239     0.0000     0.0000 </r>
       <r>   -29.9975     0.0000     0.0000 </r>
       <r>   -29.8712     0.0000     0.0000 </r>
       <r>   -29.7449     0.0000     0.0000 </r>
       <r>   -29.6185     0.0000     0.0000 </r>
       <r>   -29.4922     0.0000     0.0000 </r>
       <r>   -29.3659     0.0000     0.0000 </r>
       <r>   -29.2396     0.0000     0.0000 </r>
       <r>   -29.1132     0.0000     0.0000 </r>
       <r>   -28.9869     0.0000     0.0000 </r>
       <r>   -28.8606     0.0570     0.0072 </r>
       <r>   -28.7342    28.5757     3.6172 </r>
       <r>   -28.6079    10.9448     4.9999 </r>
       <r>   -28.4816     0.0006     5.0000 </r>
       <r>   -28.3552     0.0000     5.0000 </r>
       <r>   -28.2289     0.0000     5.0000 </r>
       <r>   -28.1026     0.0000     5.0000 </r>
       <r>   -27.9762     0.0000     5.0000 </r>
       <r>   -27.8499     0.0000     5.0000 </r>
       <r>   -27.7236     0.0000     5.0000 </r>
       <r>   -27.5972     0.0000     5.0000 </r>
       <r>   -27.4709     0.0000     5.0000 </r>
       <r>   -27.3446     0.0000     5.0000 </r>
       <r>   -27.2182     0.0000     5.0000 </r>
       <r>   -27.0919     0.0000     5.0000 </r>
       <r>   -26.9656     0.0000     5.0000 </r>
       <r>   -26.8392     0.0000     5.0000 </r>
       <r>   -26.7129     0.0000     5.0000 </r>
       <r>   -26.5866     0.0000     5.0000 </r>
       <r>   -26.4602     0.0000     5.0000 </r>
       <r>   -26.3339     0.0000     5.0000 </r>
       <r>   -26.2076     0.0000     5.0000 </r>
       <r>   -26.0812     0.0000     5.0000 </r>
       <r>   -25.9549     0.0000     5.0000 </r>
       <r>   -25.8286     0.0000     5.0000 </r>
       <r>   -25.7023     0.0000     5.0000 </r>
       <r>   -25.5759     0.0000     5.0000 </r>
       <r>   -25.4496     0.0000     5.0000 </r>
       <r>   -25.3233     0.0000     5.0000 </r>
       <r>   -25.1969     0.0000     5.0000 </r>
       <r>   -25.0706     0.0000     5.0000 </r>
       <r>   -24.9443     0.0000     5.0000 </r>
       <r>   -24.8179     0.0000     5.0000 </r>
       <r>   -24.6916     0.0000     5.0000 </r>
       <r>   -24.5653     0.0000     5.0000 </r>
       <r>   -24.4389     0.0000     5.0000 </r>
       <r>   -24.3126     0.0000     5.0000 </r>
       <r>   -24.1863     0.0000     5.0000 </r>
       <r>   -24.0599     0.0000     5.0000 </r>
       <r>   -23.9336     0.0000     5.0000 </r>
       <r>   -23.8073     0.0000     5.0000 </r>
       <r>   -23.6809     0.0000     5.0000 </r>
       <r>   -23.5546     0.0000     5.0000 </r>
       <r>   -23.4283     0.0000     5.0000 </r>
       <r>   -23.3019     0.0000     5.0000 </r>
       <r>   -23.1756     0.0000     5.0000 </r>
       <r>   -23.0493     0.0000     5.0000 </r>
       <r>   -22.9229     0.0000     5.0000 </r>
       <r>   -22.7966     0.0000     5.0000 </r>
       <r>   -22.6703     0.0000     5.0000 </r>
       <r>   -22.5439     0.0000     5.0000 </r>
       <r>   -22.4176     0.0000     5.0000 </r>
       <r>   -22.2913     0.0000     5.0000 </r>
       <r>   -22.1649     0.0000     5.0000 </r>
       <r>   -22.0386     0.0000     5.0000 </r>
       <r>   -21.9123     0.0000     5.0000 </r>
       <r>   -21.7860     0.0000     5.0000 </r>
       <r>   -21.6596     0.0000     5.0000 </r>
       <r>   -21.5333     0.0000     5.0000 </r>
       <r>   -21.4070     0.0000     5.0000 </r>
       <r>   -21.2806     0.0000     5.0000 </r>
       <r>   -21.1543     0.0000     5.0000 </r>
       <r>   -21.0280     0.0000     5.0000 </r>
       <r>   -20.9016     0.0000     5.0000 </r>
       <r>   -20.7753     0.0000     5.0000 </r>
       <r>   -20.6490     0.0000     5.0000 </r>
       <r>   -20.5226     0.0000     5.0000 </r>
       <r>   -20.3963     0.0000     5.0000 </r>
       <r>   -20.2700     0.0000     5.0000 </r>
       <r>   -20.1436     0.0000     5.0000 </r>
       <r>   -20.0173     0.0000     5.0000 </r>
       <r>   -19.8910     0.0000     5.0000 </r>
       <r>   -19.7646     0.0000     5.0000 </r>
       <r>   -19.6383     0.0000     5.0000 </r>
       <r>   -19.5120     0.0000     5.0000 </r>
       <r>   -19.3856     0.0000     5.0000 </r>
       <r>   -19.2593     0.0000     5.0000 </r>
       <r>   -19.1330     0.0000     5.0000 </r>
       <r>   -19.0066     0.0000     5.0000 </r>
       <r>   -18.8803     0.0000     5.0000 </r>
       <r>   -18.7540     0.0000     5.0000 </r>
       <r>   -18.6276     0.0000     5.0000 </r>
       <r>   -18.5013     0.0000     5.0000 </r>
       <r>   -18.3750     0.0000     5.0000 </r>
       <r>   -18.2486     0.0000     5.0000 </r>
       <r>   -18.1223     0.0000     5.0000 </r>
       <r>   -17.9960     0.0000     5.0000 </r>
       <r>   -17.8697     0.0000     5.0000 </r>
       <r>   -17.7433     0.0000     5.0000 </r>
       <r>   -17.6170     0.0000     5.0000 </r>
       <r>   -17.4907     0.0000     5.0000 </r>
       <r>   -17.3643     0.0000     5.0000 </r>
       <r>   -17.2380     0.0000     5.0000 </r>
       <r>   -17.1117     0.0000     5.0000 </r>
       <r>   -16.9853     0.0000     5.0000 </r>
       <r>   -16.8590     0.0000     5.0000 </r>
       <r>   -16.7327     0.0000     5.0000 </r>
       <r>   -16.6063     0.0000     5.0000 </r>
       <r>   -16.4800     0.0000     5.0000 </r>
       <r>   -16.3537     0.0000     5.0000 </r>
       <r>   -16.2273     0.0000     5.0000 </r>
       <r>   -16.1010     0.0000     5.0000 </r>
       <r>   -15.9747     0.0000     5.0000 </r>
       <r>   -15.8483     0.0000     5.0000 </r>
       <r>   -15.7220     0.0000     5.0000 </r>
       <r>   -15.5957     0.0000     5.0000 </r>
       <r>   -15.4693     0.0000     5.0000 </r>
       <r>   -15.3430     0.0000     5.0000 </r>
       <r>   -15.2167     0.0000     5.0000 </r>
       <r>   -15.0903     0.0000     5.0000 </r>
       <r>   -14.9640     0.0000     5.0000 </r>
       <r>   -14.8377     0.0000     5.0000 </r>
       <r>   -14.7113     0.0000     5.0000 </r>
       <r>   -14.5850     0.0000     5.0000 </r>
       <r>   -14.4587     0.0000     5.0000 </r>
       <r>   -14.3324     0.0000     5.0000 </r>
       <r>   -14.2060     0.0000     5.0000 </r>
       <r>   -14.0797     0.0000     5.0000 </r>
       <r>   -13.9534     0.0000     5.0000 </r>
       <r>   -13.8270     0.0000     5.0000 </r>
       <r>   -13.7007     0.0000     5.0000 </r>
       <r>   -13.5744     0.0000     5.0000 </r>
       <r>   -13.4480     0.0000     5.0000 </r>
       <r>   -13.3217     0.0000     5.0000 </r>
       <r>   -13.1954     0.0000     5.0000 </r>
       <r>   -13.0690     0.0000     5.0000 </r>
       <r>   -12.9427     0.0000     5.0000 </r>
       <r>   -12.8164     0.0000     5.0000 </r>
       <r>   -12.6900     0.0000     5.0000 </r>
       <r>   -12.5637     0.0000     5.0000 </r>
       <r>   -12.4374     0.0000     5.0000 </r>
       <r>   -12.3110     0.0000     5.0000 </r>
       <r>   -12.1847     0.0000     5.0000 </r>
       <r>   -12.0584     0.0000     5.0000 </r>
       <r>   -11.9320     0.0000     5.0000 </r>
       <r>   -11.8057     0.0000     5.0000 </r>
       <r>   -11.6794     0.0000     5.0000 </r>
       <r>   -11.5530     0.0000     5.0000 </r>
       <r>   -11.4267     0.0000     5.0000 </r>
       <r>   -11.3004     0.0000     5.0000 </r>
       <r>   -11.1740     0.0000     5.0000 </r>
       <r>   -11.0477     0.0000     5.0000 </r>
       <r>   -10.9214     0.0000     5.0000 </r>
       <r>   -10.7950     0.0000     5.0000 </r>
       <r>   -10.6687     0.0000     5.0000 </r>
       <r>   -10.5424     1.5983     5.2019 </r>
       <r>   -10.4161     6.2928     5.9969 </r>
       <r>   -10.2897     0.0244     6.0000 </r>
       <r>   -10.1634     0.0000     6.0000 </r>
       <r>   -10.0371     0.0000     6.0000 </r>
       <r>    -9.9107     0.0000     6.0000 </r>
       <r>    -9.7844     0.0000     6.0000 </r>
       <r>    -9.6581     0.0000     6.0000 </r>
       <r>    -9.5317     0.0000     6.0000 </r>
       <r>    -9.4054     0.0000     6.0000 </r>
       <r>    -9.2791     0.0000     6.0000 </r>
       <r>    -9.1527     0.0000     6.0000 </r>
       <r>    -9.0264     0.0000     6.0000 </r>
       <r>    -8.9001     0.0000     6.0000 </r>
       <r>    -8.7737     0.0000     6.0000 </r>
       <r>    -8.6474     0.0000     6.0000 </r>
       <r>    -8.5211     0.0000     6.0000 </r>
       <r>    -8.3947     0.0000     6.0000 </r>
       <r>    -8.2684     0.0000     6.0000 </r>
       <r>    -8.1421     0.0000     6.0000 </r>
       <r>    -8.0157     0.0000     6.0000 </r>
       <r>    -7.8894     0.0000     6.0000 </r>
       <r>    -7.7631     0.0000     6.0000 </r>
       <r>    -7.6367     0.0000     6.0000 </r>
       <r>    -7.5104     0.0000     6.0000 </r>
       <r>    -7.3841     0.0000     6.0000 </r>
       <r>    -7.2577     0.0000     6.0000 </r>
       <r>    -7.1314     0.0000     6.0000 </r>
       <r>    -7.0051     0.0000     6.0000 </r>
       <r>    -6.8787     0.0000     6.0000 </r>
       <r>    -6.7524     0.0000     6.0000 </r>
       <r>    -6.6261     0.0000     6.0000 </r>
       <r>    -6.4998     0.0000     6.0000 </r>
       <r>    -6.3734     0.0000     6.0000 </r>
       <r>    -6.2471     0.0000     6.0000 </r>
       <r>    -6.1208     0.0000     6.0000 </r>
       <r>    -5.9944     0.0000     6.0000 </r>
       <r>    -5.8681     0.0000     6.0000 </r>
       <r>    -5.7418     0.0000     6.0000 </r>
       <r>    -5.6154     0.0000     6.0000 </r>
       <r>    -5.4891     0.0000     6.0000 </r>
       <r>    -5.3628     0.0000     6.0000 </r>
       <r>    -5.2364     0.0000     6.0000 </r>
       <r>    -5.1101     0.0000     6.0000 </r>
       <r>    -4.9838     0.0000     6.0000 </r>
       <r>    -4.8574     0.0000     6.0000 </r>
       <r>    -4.7311     0.0000     6.0000 </r>
       <r>    -4.6048     0.0000     6.0000 </r>
       <r>    -4.4784     0.0000     6.0000 </r>
       <r>    -4.3521     0.0000     6.0000 </r>
       <r>    -4.2258     0.0000     6.0000 </r>
       <r>    -4.0994     0.0000     6.0000 </r>
       <r>    -3.9731     0.0000     6.0000 </r>
       <r>    -3.8468     0.0000     6.0000 </r>
       <r>    -3.7204     0.0000     6.0000 </r>
       <r>    -3.5941     0.0000     6.0000 </r>
       <r>    -3.4678     0.0000     6.0000 </r>
       <r>    -3.3414     0.0000     6.0000 </r>
       <r>    -3.2151     0.0000     6.0000 </r>
       <r>    -3.0888     0.0000     6.0000 </r>
       <r>    -2.9625     0.0000     6.0000 </r>
       <r>    -2.8361     0.0000     6.0000 </r>
       <r>    -2.7098     0.8436     6.1066 </r>
       <r>    -2.5835    21.9884     8.8844 </r>
       <r>    -2.4571     0.9149     9.0000 </r>
       <r>    -2.3308     0.0000     9.0000 </r>
       <r>    -2.2045     0.0000     9.0000 </r>
       <r>    -2.0781     0.0000     9.0000 </r>
       <r>    -1.9518     0.0000     9.0000 </r>
       <r>    -1.8255     0.0000     9.0000 </r>
       <r>    -1.6991     0.0000     9.0000 </r>
       <r>    -1.5728     0.0000     9.0000 </r>
       <r>    -1.4465     0.0000     9.0000 </r>
       <r>    -1.3201     0.0000     9.0000 </r>
       <r>    -1.1938     0.0000     9.0000 </r>
       <r>    -1.0675     0.0000     9.0000 </r>
       <r>    -0.9411     0.0000     9.0000 </r>
       <r>    -0.8148     0.0000     9.0000 </r>
       <r>    -0.6885     0.0000     9.0000 </r>
       <r>    -0.5621     0.0000     9.0000 </r>
       <r>    -0.4358     0.0000     9.0000 </r>
       <r>    -0.3095     0.0000     9.0000 </r>
       <r>    -0.1831     0.0000     9.0000 </r>
       <r>    -0.0568     0.2387     9.0302 </r>
       <r>     0.0695     7.3202     9.9549 </r>
       <r>     0.1959     0.3567    10.0000 </r>
       <r>     0.3222     0.0000    10.0000 </r>
       <r>     0.4485     0.0000    10.0000 </r>
       <r>     0.5749     0.0000    10.0000 </r>
       <r>     0.7012     0.0000    10.0000 </r>
       <r>     0.8275     0.0000    10.0000 </r>
       <r>     0.9538     0.0000    10.0000 </r>
       <r>     1.0802     0.0000    10.0000 </r>
       <r>     1.2065     0.0000    10.0000 </r>
       <r>     1.3328     0.0511    10.0065 </r>
       <r>     1.4592    12.6495    11.6045 </r>
       <r>     1.5855     3.2398    12.0138 </r>
       <r>     1.7118    21.0295    14.6705 </r>
       <r>     1.8382    10.5221    15.9998 </r>
       <r>     1.9645     0.0018    16.0000 </r>
       <r>     2.0908     0.0000    16.0000 </r>
       <r>     2.2172     0.0000    16.0000 </r>
       <r>     2.3435     0.0000    16.0000 </r>
       <r>     2.4698     0.5702    16.0720 </r>
       <r>     2.5962    21.8649    18.8343 </r>
       <r>     2.7225     1.3118    19.0000 </r>
       <r>     2.8488     0.5558    19.0702 </r>
       <r>     2.9752    15.6145    21.0428 </r>
       <r>     3.1015    22.6014    23.8981 </r>
       <r>     3.2278     0.8074    24.0001 </r>
       <r>     3.3542     7.5709    24.9566 </r>
       <r>     3.4805    19.3082    27.3958 </r>
       <r>     3.6068     4.7789    27.9996 </r>
       <r>     3.7332     0.0035    28.0000 </r>
       <r>     3.8595     0.0000    28.0000 </r>
       <r>     3.9858     0.0000    28.0000 </r>
       <r>     4.1122     1.8608    28.2351 </r>
       <r>     4.2385    21.5200    30.9538 </r>
       <r>     4.3648     4.8250    31.5633 </r>
       <r>     4.4912     3.4559    31.9999 </r>
       <r>     4.6175     0.0008    32.0000 </r>
       <r>     4.7438     0.5413    32.0684 </r>
       <r>     4.8701    10.3135    33.3713 </r>
       <r>     4.9965    12.8391    34.9933 </r>
       <r>     5.1228     0.0530    35.0000 </r>
       <r>     5.2491     0.0000    35.0000 </r>
       <r>     5.3755     0.0000    35.0000 </r>
       <r>     5.5018     0.7671    35.0969 </r>
       <r>     5.6281     7.0576    35.9885 </r>
       <r>     5.7545     0.0909    36.0000 </r>
       <r>     5.8808     0.0000    36.0000 </r>
       <r>     6.0071     0.0000    36.0000 </r>
       <r>     6.1335     0.0000    36.0000 </r>
       <r>     6.2598     0.0000    36.0000 </r>
       <r>     6.3861     0.0000    36.0000 </r>
       <r>     6.5125     0.0000    36.0000 </r>
       <r>     6.6388     0.0000    36.0000 </r>
       <r>     6.7651     0.0000    36.0000 </r>
       <r>     6.8915     0.0000    36.0000 </r>
       <r>     7.0178     0.0000    36.0000 </r>
       <r>     7.1441     0.0000    36.0000 </r>
       <r>     7.2705     0.0000    36.0000 </r>
      </set>
     </set>
    </array>
   </total>
   <partial>
    <array>
     <dimension dim="1">gridpoints</dimension>
     <dimension dim="2">spin</dimension>
     <dimension dim="3">ion</dimension>
     <field>energy</field>
     <field>    s</field>
     <field>   py</field>
     <field>   pz</field>
     <field>   px</field>
     <field>  dxy</field>
     <field>  dyz</field>
     <field>  dz2</field>
     <field>  dxz</field>
     <field>x2-y2</field>
     <set>
      <set comment="ion 1">
       <set comment="spin 1">
        <r>   -30.6292     0.0000     0.0000     0.0000     0.0000     0.0000     0.0000     0.0000     0.0000     0.0000 </r>
        <r>   -30.5029     0.0000     0.0000     0.0000     0.0000     0.0000     0.0000     0.0000     0.0000     0.0000 </r>
        <r>   -30.3765     0.0000     0.0000     0.0000     0.0000     0.0000     0.0000     0.0000     0.0000     0.0000 </r>
        <r>   -30.2502     0.0000     0.0000     0.0000     0.0000     0.0000     0.0000     0.0000     0.0000     0.0000 </r>
        <r>   -30.1239     0.0000     0.0000     0.0000     0.0000     0.0000     0.0000     0.0000     0.0000     0.0000 </r>
        <r>   -29.9975     0.0000     0.0000     0.0000     0.0000     0.0000     0.0000     0.0000     0.0000     0.0000 </r>
        <r>   -29.8712     0.0000     0.0000     0.0000     0.0000     0.0000     0.0000     0.0000     0.0000     0.0000 </r>
        <r>   -29.7449     0.0000     0.0000     0.0000     0.0000     0.0000     0.0000     0.0000     0.0000     0.0000 </r>
        <r>   -29.6185     0.0000     0.0000     0.0000     0.0000     0.0000     0.0000     0.0000     0.0000     0.0000 </r>
        <r>   -29.4922     0.0000     0.0000     0.0000     0.0000     0.0000     0.0000     0.0000     0.0000     0.0000 </r>
        <r>   -29.3659     0.0000     0.0000     0.0000     0.0000     0.0000     0.0000     0.0000     0.0000     0.0000 </r>
        <r>   -29.2396     0.0000     0.0000     0.0000     0.0000     0.0000     0.0000     0.0000     0.0000     0.0000 </r>
        <r>   -29.1132     0.0000     0.0000     0.0000     0.0000     0.0000     0.0000     0.0000     0.0000     0.0000 </r>
        <r>   -28.9869     0.0000     0.0000     0.0000     0.0000     0.0905     0.0905     0.0904     0.0905     0.0904 </r>
        <r>   -28.8606     0.0000     0.0000     0.0000     0.0000     7.0262     7.0262     7.0258     7.0262     7.0258 </r>
        <r>   -28.7342     0.0000     0.0000     0.0000     0.0000     0.7637     0.7637     0.7642     0.7637     0.7642 </r>
        <r>   -28.6079     0.0000     0.0000     0.0000     0.0000     0.0000     0.0000     0.0000     0.0000     0.0000 </r>
        <r>   -28.4816     0.0000     0.0000     0.0000     0.0000     0.0000     0.0000     0.0000     0.0000     0.0000 </r>
        <r>   -28.3552     0.0000     0.0000     0.0000     0.0000     0.0000     0.0000     0.0000     0.0000     0.0000 </r>
        <r>   -28.2289     0.0000     0.0000     0.0000     0.0000     0.0000     0.0000     0.0000     0.0000     0.0000 </r>
        <r>   -28.1026     0.0000     0.0000     0.0000     0.0000     0.0000     0.0000     0.0000     0.0000     0.0000 </r>
        <r>   -27.9762     0.0000     0.0000     0.0000     0.0000     0.0000     0.0000     0.0000     0.0000     0.0000 </r>
        <r>   -27.8499     0.0000     0.0000     0.0000     0.0000     0.0000     0.0000     0.0000     0.0000     0.0000 </r>
        <r>   -27.7236     0.0000     0.0000     0.0000     0.0000     0.0000     0.0000     0.0000     0.0000     0.0000 </r>
        <r>   -27.5972     0.0000     0.0000     0.0000     0.0000     0.0000     0.0000     0.0000     0.0000     0.0000 </r>
        <r>   -27.4709     0.0000     0.0000     0.0000     0.0000     0.0000     0.0000     0.0000     0.0000     0.0000 </r>
        <r>   -27.3446     0.0000     0.0000     0.0000     0.0000     0.0000     0.0000     0.0000     0.0000     0.0000 </r>
        <r>   -27.2182     0.0000     0.0000     0.0000     0.0000     0.0000     0.0000     0.0000     0.0000     0.0000 </r>
        <r>   -27.0919     0.0000     0.0000     0.0000     0.0000     0.0000     0.0000     0.0000     0.0000     0.0000 </r>
        <r>   -26.9656     0.0000     0.0000     0.0000     0.0000     0.0000     0.0000     0.0000     0.0000     0.0000 </r>
        <r>   -26.8392     0.0000     0.0000     0.0000     0.0000     0.0000     0.0000     0.0000     0.0000     0.0000 </r>
        <r>   -26.7129     0.0000     0.0000     0.0000     0.0000     0.0000     0.0000     0.0000     0.0000     0.0000 </r>
        <r>   -26.5866     0.0000     0.0000     0.0000     0.0000     0.0000     0.0000     0.0000     0.0000     0.0000 </r>
        <r>   -26.4602     0.0000     0.0000     0.0000     0.0000     0.0000     0.0000     0.0000     0.0000     0.0000 </r>
        <r>   -26.3339     0.0000     0.0000     0.0000     0.0000     0.0000     0.0000     0.0000     0.0000     0.0000 </r>
        <r>   -26.2076     0.0000     0.0000     0.0000     0.0000     0.0000     0.0000     0.0000     0.0000     0.0000 </r>
        <r>   -26.0812     0.0000     0.0000     0.0000     0.0000     0.0000     0.0000     0.0000     0.0000     0.0000 </r>
        <r>   -25.9549     0.0000     0.0000     0.0000     0.0000     0.0000     0.0000     0.0000     0.0000     0.0000 </r>
        <r>   -25.8286     0.0000     0.0000     0.0000     0.0000     0.0000     0.0000     0.0000     0.0000     0.0000 </r>
        <r>   -25.7023     0.0000     0.0000     0.0000     0.0000     0.0000     0.0000     0.0000     0.0000     0.0000 </r>
        <r>   -25.5759     0.0000     0.0000     0.0000     0.0000     0.0000     0.0000     0.0000     0.0000     0.0000 </r>
        <r>   -25.4496     0.0000     0.0000     0.0000     0.0000     0.0000     0.0000     0.0000     0.0000     0.0000 </r>
        <r>   -25.3233     0.0000     0.0000     0.0000     0.0000     0.0000     0.0000     0.0000     0.0000     0.0000 </r>
        <r>   -25.1969     0.0000     0.0000     0.0000     0.0000     0.0000     0.0000     0.0000     0.0000     0.0000 </r>
        <r>   -25.0706     0.0000     0.0000     0.0000     0.0000     0.0000     0.0000     0.0000     0.0000     0.0000 </r>
        <r>   -24.9443     0.0000     0.0000     0.0000     0.0000     0.0000     0.0000     0.0000     0.0000     0.0000 </r>
        <r>   -24.8179     0.0000     0.0000     0.0000     0.0000     0.0000     0.0000     0.0000     0.0000     0.0000 </r>
        <r>   -24.6916     0.0000     0.0000     0.0000     0.0000     0.0000     0.0000     0.0000     0.0000     0.0000 </r>
        <r>   -24.5653     0.0000     0.0000     0.0000     0.0000     0.0000     0.0000     0.0000     0.0000     0.0000 </r>
        <r>   -24.4389     0.0000     0.0000     0.0000     0.0000     0.0000     0.0000     0.0000     0.0000     0.0000 </r>
        <r>   -24.3126     0.0000     0.0000     0.0000     0.0000     0.0000     0.0000     0.0000     0.0000     0.0000 </r>
        <r>   -24.1863     0.0000     0.0000     0.0000     0.0000     0.0000     0.0000     0.0000     0.0000     0.0000 </r>
        <r>   -24.0599     0.0000     0.0000     0.0000     0.0000     0.0000     0.0000     0.0000     0.0000     0.0000 </r>
        <r>   -23.9336     0.0000     0.0000     0.0000     0.0000     0.0000     0.0000     0.0000     0.0000     0.0000 </r>
        <r>   -23.8073     0.0000     0.0000     0.0000     0.0000     0.0000     0.0000     0.0000     0.0000     0.0000 </r>
        <r>   -23.6809     0.0000     0.0000     0.0000     0.0000     0.0000     0.0000     0.0000     0.0000     0.0000 </r>
        <r>   -23.5546     0.0000     0.0000     0.0000     0.0000     0.0000     0.0000     0.0000     0.0000     0.0000 </r>
        <r>   -23.4283     0.0000     0.0000     0.0000     0.0000     0.0000     0.0000     0.0000     0.0000     0.0000 </r>
        <r>   -23.3019     0.0000     0.0000     0.0000     0.0000     0.0000     0.0000     0.0000     0.0000     0.0000 </r>
        <r>   -23.1756     0.0000     0.0000     0.0000     0.0000     0.0000     0.0000     0.0000     0.0000     0.0000 </r>
        <r>   -23.0493     0.0000     0.0000     0.0000     0.0000     0.0000     0.0000     0.0000     0.0000     0.0000 </r>
        <r>   -22.9229     0.0000     0.0000     0.0000     0.0000     0.0000     0.0000     0.0000     0.0000     0.0000 </r>
        <r>   -22.7966     0.0000     0.0000     0.0000     0.0000     0.0000     0.0000     0.0000     0.0000     0.0000 </r>
        <r>   -22.6703     0.0000     0.0000     0.0000     0.0000     0.0000     0.0000     0.0000     0.0000     0.0000 </r>
        <r>   -22.5439     0.0000     0.0000     0.0000     0.0000     0.0000     0.0000     0.0000     0.0000     0.0000 </r>
        <r>   -22.4176     0.0000     0.0000     0.0000     0.0000     0.0000     0.0000     0.0000     0.0000     0.0000 </r>
        <r>   -22.2913     0.0000     0.0000     0.0000     0.0000     0.0000     0.0000     0.0000     0.0000     0.0000 </r>
        <r>   -22.1649     0.0000     0.0000     0.0000     0.0000     0.0000     0.0000     0.0000     0.0000     0.0000 </r>
        <r>   -22.0386     0.0000     0.0000     0.0000     0.0000     0.0000     0.0000     0.0000     0.0000     0.0000 </r>
        <r>   -21.9123     0.0000     0.0000     0.0000     0.0000     0.0000     0.0000     0.0000     0.0000     0.0000 </r>
        <r>   -21.7860     0.0000     0.0000     0.0000     0.0000     0.0000     0.0000     0.0000     0.0000     0.0000 </r>
        <r>   -21.6596     0.0000     0.0000     0.0000     0.0000     0.0000     0.0000     0.0000     0.0000     0.0000 </r>
        <r>   -21.5333     0.0000     0.0000     0.0000     0.0000     0.0000     0.0000     0.0000     0.0000     0.0000 </r>
        <r>   -21.4070     0.0000     0.0000     0.0000     0.0000     0.0000     0.0000     0.0000     0.0000     0.0000 </r>
        <r>   -21.2806     0.0000     0.0000     0.0000     0.0000     0.0000     0.0000     0.0000     0.0000     0.0000 </r>
        <r>   -21.1543     0.0000     0.0000     0.0000     0.0000     0.0000     0.0000     0.0000     0.0000     0.0000 </r>
        <r>   -21.0280     0.0000     0.0000     0.0000     0.0000     0.0000     0.0000     0.0000     0.0000     0.0000 </r>
        <r>   -20.9016     0.0000     0.0000     0.0000     0.0000     0.0000     0.0000     0.0000     0.0000     0.0000 </r>
        <r>   -20.7753     0.0000     0.0000     0.0000     0.0000     0.0000     0.0000     0.0000     0.0000     0.0000 </r>
        <r>   -20.6490     0.0000     0.0000     0.0000     0.0000     0.0000     0.0000     0.0000     0.0000     0.0000 </r>
        <r>   -20.5226     0.0000     0.0000     0.0000     0.0000     0.0000     0.0000     0.0000     0.0000     0.0000 </r>
        <r>   -20.3963     0.0000     0.0000     0.0000     0.0000     0.0000     0.0000     0.0000     0.0000     0.0000 </r>
        <r>   -20.2700     0.0000     0.0000     0.0000     0.0000     0.0000     0.0000     0.0000     0.0000     0.0000 </r>
        <r>   -20.1436     0.0000     0.0000     0.0000     0.0000     0.0000     0.0000     0.0000     0.0000     0.0000 </r>
        <r>   -20.0173     0.0000     0.0000     0.0000     0.0000     0.0000     0.0000     0.0000     0.0000     0.0000 </r>
        <r>   -19.8910     0.0000     0.0000     0.0000     0.0000     0.0000     0.0000     0.0000     0.0000     0.0000 </r>
        <r>   -19.7646     0.0000     0.0000     0.0000     0.0000     0.0000     0.0000     0.0000     0.0000     0.0000 </r>
        <r>   -19.6383     0.0000     0.0000     0.0000     0.0000     0.0000     0.0000     0.0000     0.0000     0.0000 </r>
        <r>   -19.5120     0.0000     0.0000     0.0000     0.0000     0.0000     0.0000     0.0000     0.0000     0.0000 </r>
        <r>   -19.3856     0.0000     0.0000     0.0000     0.0000     0.0000     0.0000     0.0000     0.0000     0.0000 </r>
        <r>   -19.2593     0.0000     0.0000     0.0000     0.0000     0.0000     0.0000     0.0000     0.0000     0.0000 </r>
        <r>   -19.1330     0.0000     0.0000     0.0000     0.0000     0.0000     0.0000     0.0000     0.0000     0.0000 </r>
        <r>   -19.0066     0.0000     0.0000     0.0000     0.0000     0.0000     0.0000     0.0000     0.0000     0.0000 </r>
        <r>   -18.8803     0.0000     0.0000     0.0000     0.0000     0.0000     0.0000     0.0000     0.0000     0.0000 </r>
        <r>   -18.7540     0.0000     0.0000     0.0000     0.0000     0.0000     0.0000     0.0000     0.0000     0.0000 </r>
        <r>   -18.6276     0.0000     0.0000     0.0000     0.0000     0.0000     0.0000     0.0000     0.0000     0.0000 </r>
        <r>   -18.5013     0.0000     0.0000     0.0000     0.0000     0.0000     0.0000     0.0000     0.0000     0.0000 </r>
        <r>   -18.3750     0.0000     0.0000     0.0000     0.0000     0.0000     0.0000     0.0000     0.0000     0.0000 </r>
        <r>   -18.2486     0.0000     0.0000     0.0000     0.0000     0.0000     0.0000     0.0000     0.0000     0.0000 </r>
        <r>   -18.1223     0.0000     0.0000     0.0000     0.0000     0.0000     0.0000     0.0000     0.0000     0.0000 </r>
        <r>   -17.9960     0.0000     0.0000     0.0000     0.0000     0.0000     0.0000     0.0000     0.0000     0.0000 </r>
        <r>   -17.8697     0.0000     0.0000     0.0000     0.0000     0.0000     0.0000     0.0000     0.0000     0.0000 </r>
        <r>   -17.7433     0.0000     0.0000     0.0000     0.0000     0.0000     0.0000     0.0000     0.0000     0.0000 </r>
        <r>   -17.6170     0.0000     0.0000     0.0000     0.0000     0.0000     0.0000     0.0000     0.0000     0.0000 </r>
        <r>   -17.4907     0.0000     0.0000     0.0000     0.0000     0.0000     0.0000     0.0000     0.0000     0.0000 </r>
        <r>   -17.3643     0.0000     0.0000     0.0000     0.0000     0.0000     0.0000     0.0000     0.0000     0.0000 </r>
        <r>   -17.2380     0.0000     0.0000     0.0000     0.0000     0.0000     0.0000     0.0000     0.0000     0.0000 </r>
        <r>   -17.1117     0.0000     0.0000     0.0000     0.0000     0.0000     0.0000     0.0000     0.0000     0.0000 </r>
        <r>   -16.9853     0.0000     0.0000     0.0000     0.0000     0.0000     0.0000     0.0000     0.0000     0.0000 </r>
        <r>   -16.8590     0.0000     0.0000     0.0000     0.0000     0.0000     0.0000     0.0000     0.0000     0.0000 </r>
        <r>   -16.7327     0.0000     0.0000     0.0000     0.0000     0.0000     0.0000     0.0000     0.0000     0.0000 </r>
        <r>   -16.6063     0.0000     0.0000     0.0000     0.0000     0.0000     0.0000     0.0000     0.0000     0.0000 </r>
        <r>   -16.4800     0.0000     0.0000     0.0000     0.0000     0.0000     0.0000     0.0000     0.0000     0.0000 </r>
        <r>   -16.3537     0.0000     0.0000     0.0000     0.0000     0.0000     0.0000     0.0000     0.0000     0.0000 </r>
        <r>   -16.2273     0.0000     0.0000     0.0000     0.0000     0.0000     0.0000     0.0000     0.0000     0.0000 </r>
        <r>   -16.1010     0.0000     0.0000     0.0000     0.0000     0.0000     0.0000     0.0000     0.0000     0.0000 </r>
        <r>   -15.9747     0.0000     0.0000     0.0000     0.0000     0.0000     0.0000     0.0000     0.0000     0.0000 </r>
        <r>   -15.8483     0.0000     0.0000     0.0000     0.0000     0.0000     0.0000     0.0000     0.0000     0.0000 </r>
        <r>   -15.7220     0.0000     0.0000     0.0000     0.0000     0.0000     0.0000     0.0000     0.0000     0.0000 </r>
        <r>   -15.5957     0.0000     0.0000     0.0000     0.0000     0.0000     0.0000     0.0000     0.0000     0.0000 </r>
        <r>   -15.4693     0.0000     0.0000     0.0000     0.0000     0.0000     0.0000     0.0000     0.0000     0.0000 </r>
        <r>   -15.3430     0.0000     0.0000     0.0000     0.0000     0.0000     0.0000     0.0000     0.0000     0.0000 </r>
        <r>   -15.2167     0.0000     0.0000     0.0000     0.0000     0.0000     0.0000     0.0000     0.0000     0.0000 </r>
        <r>   -15.0903     0.0000     0.0000     0.0000     0.0000     0.0000     0.0000     0.0000     0.0000     0.0000 </r>
        <r>   -14.9640     0.0000     0.0000     0.0000     0.0000     0.0000     0.0000     0.0000     0.0000     0.0000 </r>
        <r>   -14.8377     0.0000     0.0000     0.0000     0.0000     0.0000     0.0000     0.0000     0.0000     0.0000 </r>
        <r>   -14.7113     0.0000     0.0000     0.0000     0.0000     0.0000     0.0000     0.0000     0.0000     0.0000 </r>
        <r>   -14.5850     0.0000     0.0000     0.0000     0.0000     0.0000     0.0000     0.0000     0.0000     0.0000 </r>
        <r>   -14.4587     0.0000     0.0000     0.0000     0.0000     0.0000     0.0000     0.0000     0.0000     0.0000 </r>
        <r>   -14.3324     0.0000     0.0000     0.0000     0.0000     0.0000     0.0000     0.0000     0.0000     0.0000 </r>
        <r>   -14.2060     0.0000     0.0000     0.0000     0.0000     0.0000     0.0000     0.0000     0.0000     0.0000 </r>
        <r>   -14.0797     0.0000     0.0000     0.0000     0.0000     0.0000     0.0000     0.0000     0.0000     0.0000 </r>
        <r>   -13.9534     0.0000     0.0000     0.0000     0.0000     0.0000     0.0000     0.0000     0.0000     0.0000 </r>
        <r>   -13.8270     0.0000     0.0000     0.0000     0.0000     0.0000     0.0000     0.0000     0.0000     0.0000 </r>
        <r>   -13.7007     0.0000     0.0000     0.0000     0.0000     0.0000     0.0000     0.0000     0.0000     0.0000 </r>
        <r>   -13.5744     0.0000     0.0000     0.0000     0.0000     0.0000     0.0000     0.0000     0.0000     0.0000 </r>
        <r>   -13.4480     0.0000     0.0000     0.0000     0.0000     0.0000     0.0000     0.0000     0.0000     0.0000 </r>
        <r>   -13.3217     0.0000     0.0000     0.0000     0.0000     0.0000     0.0000     0.0000     0.0000     0.0000 </r>
        <r>   -13.1954     0.0000     0.0000     0.0000     0.0000     0.0000     0.0000     0.0000     0.0000     0.0000 </r>
        <r>   -13.0690     0.0000     0.0000     0.0000     0.0000     0.0000     0.0000     0.0000     0.0000     0.0000 </r>
        <r>   -12.9427     0.0000     0.0000     0.0000     0.0000     0.0000     0.0000     0.0000     0.0000     0.0000 </r>
        <r>   -12.8164     0.0000     0.0000     0.0000     0.0000     0.0000     0.0000     0.0000     0.0000     0.0000 </r>
        <r>   -12.6900     0.0000     0.0000     0.0000     0.0000     0.0000     0.0000     0.0000     0.0000     0.0000 </r>
        <r>   -12.5637     0.0000     0.0000     0.0000     0.0000     0.0000     0.0000     0.0000     0.0000     0.0000 </r>
        <r>   -12.4374     0.0000     0.0000     0.0000     0.0000     0.0000     0.0000     0.0000     0.0000     0.0000 </r>
        <r>   -12.3110     0.0000     0.0000     0.0000     0.0000     0.0000     0.0000     0.0000     0.0000     0.0000 </r>
        <r>   -12.1847     0.0000     0.0000     0.0000     0.0000     0.0000     0.0000     0.0000     0.0000     0.0000 </r>
        <r>   -12.0584     0.1194     0.0000     0.0000     0.0000     0.0000     0.0000     0.0000     0.0000     0.0000 </r>
        <r>   -11.9320     4.7739     0.0000     0.0000     0.0000     0.0000     0.0000     0.0000     0.0000     0.0000 </r>
        <r>   -11.8057     0.2974     0.0000     0.0000     0.0000     0.0000     0.0000     0.0000     0.0000     0.0000 </r>
        <r>   -11.6794     0.0000     0.0000     0.0000     0.0000     0.0000     0.0000     0.0000     0.0000     0.0000 </r>
        <r>   -11.5530     0.0000     0.0000     0.0000     0.0000     0.0000     0.0000     0.0000     0.0000     0.0000 </r>
        <r>   -11.4267     0.0000     0.0000     0.0000     0.0000     0.0000     0.0000     0.0000     0.0000     0.0000 </r>
        <r>   -11.3004     0.0000     0.0000     0.0000     0.0000     0.0000     0.0000     0.0000     0.0000     0.0000 </r>
        <r>   -11.1740     0.0000     0.0000     0.0000     0.0000     0.0000     0.0000     0.0000     0.0000     0.0000 </r>
        <r>   -11.0477     0.0000     0.0000     0.0000     0.0000     0.0000     0.0000     0.0000     0.0000     0.0000 </r>
        <r>   -10.9214     0.0000     0.0000     0.0000     0.0000     0.0000     0.0000     0.0000     0.0000     0.0000 </r>
        <r>   -10.7950     0.0000     0.0000     0.0000     0.0000     0.0000     0.0000     0.0000     0.0000     0.0000 </r>
        <r>   -10.6687     0.0000     0.0000     0.0000     0.0000     0.0000     0.0000     0.0000     0.0000     0.0000 </r>
        <r>   -10.5424     0.0000     0.0000     0.0000     0.0000     0.0000     0.0000     0.0000     0.0000     0.0000 </r>
        <r>   -10.4161     0.0000     0.0000     0.0000     0.0000     0.0000     0.0000     0.0000     0.0000     0.0000 </r>
        <r>   -10.2897     0.0000     0.0000     0.0000     0.0000     0.0000     0.0000     0.0000     0.0000     0.0000 </r>
        <r>   -10.1634     0.0000     0.0000     0.0000     0.0000     0.0000     0.0000     0.0000     0.0000     0.0000 </r>
        <r>   -10.0371     0.0000     0.0000     0.0000     0.0000     0.0000     0.0000     0.0000     0.0000     0.0000 </r>
        <r>    -9.9107     0.0000     0.0000     0.0000     0.0000     0.0000     0.0000     0.0000     0.0000     0.0000 </r>
        <r>    -9.7844     0.0000     0.0000     0.0000     0.0000     0.0000     0.0000     0.0000     0.0000     0.0000 </r>
        <r>    -9.6581     0.0000     0.0000     0.0000     0.0000     0.0000     0.0000     0.0000     0.0000     0.0000 </r>
[...]
        <r>     1.5855     0.0025     0.0001     0.0001     0.0001     0.0000     0.0000     0.0044     0.0000     0.0044 </r>
        <r>     1.7118     0.1790     0.1393     0.1354     0.1336     0.0000     0.0000     0.0000     0.0000     0.0000 </r>
        <r>     1.8382     0.0182     0.0983     0.0946     0.0944     0.0000     0.0000     0.0000     0.0000     0.0000 </r>
        <r>     1.9645     0.0000     0.0000     0.0000     0.0000     0.0000     0.0000     0.0000     0.0000     0.0000 </r>
        <r>     2.0908     0.0000     0.0000     0.0000     0.0000     0.0000     0.0000     0.0000     0.0000     0.0000 </r>
        <r>     2.2172     0.0000     0.0000     0.0000     0.0000     0.0000     0.0000     0.0000     0.0000     0.0000 </r>
        <r>     2.3435     0.0000     0.0000     0.0000     0.0000     0.0000     0.0000     0.0000     0.0000     0.0000 </r>
        <r>     2.4698     0.0000     0.0000     0.0000     0.0000     0.0022     0.0023     0.0000     0.0022     0.0000 </r>
        <r>     2.5962     0.0000     0.0000     0.0000     0.0000     0.0859     0.0859     0.0000     0.0859     0.0000 </r>
        <r>     2.7225     0.0000     0.0000     0.0000     0.0000     0.0052     0.0051     0.0000     0.0051     0.0000 </r>
        <r>     2.8488     0.0000     0.0000     0.0000     0.0000     0.0000     0.0000     0.0014     0.0000     0.0014 </r>
        <r>     2.9752     0.0000     0.0002     0.0000     0.0000     0.0000     0.0000     0.0364     0.0000     0.0363 </r>
        <r>     3.1015     0.0000     0.0003     0.0009     0.0001     0.0000     0.0000     0.0015     0.0000     0.0016 </r>
        <r>     3.2278     0.0000     0.0000     0.0001     0.0000     0.0000     0.0000     0.0000     0.0000     0.0000 </r>
        <r>     3.3542     0.0080     0.1119     0.1339     0.1234     0.0000     0.0000     0.0000     0.0000     0.0000 </r>
        <r>     3.4805     0.1108     0.2708     0.2482     0.2691     0.0001     0.0000     0.0001     0.0000     0.0000 </r>
        <r>     3.6068     0.1166     0.0116     0.0163     0.0147     0.0000     0.0000     0.0000     0.0000     0.0000 </r>
        <r>     3.7332     0.0001     0.0000     0.0000     0.0000     0.0000     0.0000     0.0000     0.0000     0.0000 </r>
        <r>     3.8595     0.0000     0.0000     0.0000     0.0000     0.0000     0.0000     0.0000     0.0000     0.0000 </r>
        <r>     3.9858     0.0000     0.0000     0.0000     0.0000     0.0000     0.0000     0.0000     0.0000     0.0000 </r>
        <r>     4.1122     0.0000     0.0000     0.0001     0.0000     0.0065     0.0065     0.0000     0.0064     0.0000 </r>
        <r>     4.2385     0.0000     0.0001     0.0007     0.0001     0.0743     0.0752     0.0001     0.0747     0.0000 </r>
        <r>     4.3648     0.0000     0.0007     0.0002     0.0000     0.0013     0.0013     0.0000     0.0013     0.0007 </r>
        <r>     4.4912     0.0000     0.0006     0.0001     0.0000     0.0000     0.0000     0.0000     0.0000     0.0006 </r>
        <r>     4.6175     0.0000     0.0000     0.0000     0.0000     0.0000     0.0000     0.0000     0.0000     0.0000 </r>
        <r>     4.7438     0.0001     0.0056     0.0001     0.0005     0.0000     0.0000     0.0081     0.0000     0.0026 </r>
        <r>     4.8701     0.0246     0.0745     0.0009     0.0090     0.0000     0.0000     0.1210     0.0000     0.0870 </r>
        <r>     4.9965     0.1002     0.0025     0.0007     0.0074     0.0000     0.0000     0.0528     0.0000     0.2123 </r>
        <r>     5.1228     0.0004     0.0000     0.0000     0.0000     0.0000     0.0000     0.0002     0.0000     0.0009 </r>
        <r>     5.2491     0.0000     0.0000     0.0000     0.0000     0.0000     0.0000     0.0000     0.0000     0.0000 </r>
        <r>     5.3755     0.0000     0.0000     0.0000     0.0000     0.0000     0.0000     0.0000     0.0000     0.0000 </r>
        <r>     5.5018     0.0002     0.0001     0.0003     0.0066     0.0006     0.0083     0.0024     0.0025     0.0000 </r>
        <r>     5.6281     0.0019     0.0005     0.0032     0.0608     0.0055     0.0760     0.0223     0.0231     0.0004 </r>
        <r>     5.7545     0.0000     0.0000     0.0000     0.0008     0.0001     0.0010     0.0003     0.0003     0.0000 </r>
        <r>     5.8808     0.0000     0.0000     0.0000     0.0000     0.0000     0.0000     0.0000     0.0000     0.0000 </r>
        <r>     6.0071     0.0000     0.0000     0.0000     0.0000     0.0000     0.0000     0.0000     0.0000     0.0000 </r>
        <r>     6.1335     0.0000     0.0000     0.0000     0.0000     0.0000     0.0000     0.0000     0.0000     0.0000 </r>
        <r>     6.2598     0.0000     0.0000     0.0000     0.0000     0.0000     0.0000     0.0000     0.0000     0.0000 </r>
        <r>     6.3861     0.0000     0.0000     0.0000     0.0000     0.0000     0.0000     0.0000     0.0000     0.0000 </r>
        <r>     6.5125     0.0000     0.0000     0.0000     0.0000     0.0000     0.0000     0.0000     0.0000     0.0000 </r>
        <r>     6.6388     0.0000     0.0000     0.0000     0.0000     0.0000     0.0000     0.0000     0.0000     0.0000 </r>
        <r>     6.7651     0.0000     0.0000     0.0000     0.0000     0.0000     0.0000     0.0000     0.0000     0.0000 </r>
        <r>     6.8915     0.0000     0.0000     0.0000     0.0000     0.0000     0.0000     0.0000     0.0000     0.0000 </r>
        <r>     7.0178     0.0000     0.0000     0.0000     0.0000     0.0000     0.0000     0.0000     0.0000     0.0000 </r>
        <r>     7.1441     0.0000     0.0000     0.0000     0.0000     0.0000     0.0000     0.0000     0.0000     0.0000 </r>
        <r>     7.2705     0.0000     0.0000     0.0000     0.0000     0.0000     0.0000     0.0000     0.0000     0.0000 </r>
       </set>
      </set>
     </set>
    </array>
   </partial>
  </dos>
  <projected>
   <eigenvalues>
    <array>
     <dimension dim="1">band</dimension>
     <dimension dim="2">kpoint</dimension>
     <dimension dim="3">spin</dimension>
     <field>eigene</field>
     <field>occ</field>
     <set>
      <set comment="spin 1">
       <set comment="kpoint 1">
        <r>  -28.9065    1.0000 </r>
        <r>  -28.9065    1.0000 </r>
        <r>  -28.9065    1.0000 </r>
        <r>  -28.9065    1.0000 </r>
        <r>  -28.9065    1.0000 </r>
        <r>  -11.9878    1.0000 </r>
        <r>   -4.1739    0.6667 </r>
        <r>   -4.1739    0.6667 </r>
        <r>   -4.1739    0.6667 </r>
        <r>   -0.6681    0.0000 </r>
        <r>    0.7679    0.0000 </r>
        <r>    0.7679    0.0000 </r>
        <r>    1.0443    0.0000 </r>
        <r>    1.0446    0.0000 </r>
        <r>    1.0454    0.0000 </r>
        <r>    1.2099    0.0000 </r>
        <r>    1.6289    0.0000 </r>
        <r>    1.6290    0.0000 </r>
        <r>    1.6290    0.0000 </r>
        <r>    2.4326    0.0000 </r>
        <r>    2.4331    0.0000 </r>
        <r>    2.4581    0.0000 </r>
        <r>    2.4618    0.0000 </r>
        <r>    2.4685    0.0000 </r>
        <r>    2.7512    0.0000 </r>
        <r>    2.7517    0.0000 </r>
        <r>    2.7541    0.0000 </r>
        <r>    3.0823    0.0000 </r>
        <r>    3.6121    0.0000 </r>
        <r>    3.6124    0.0000 </r>
        <r>    3.6126    0.0000 </r>
        <r>    3.6156    0.0000 </r>
        <r>    4.0193    0.0000 </r>
        <r>    4.0271    0.0000 </r>
        <r>    4.3214    0.0000 </r>
        <r>    4.3533    0.0000 </r>
       </set>
      </set>
      <set comment="spin 2">
       <set comment="kpoint 1">
        <r>  -28.7552    1.0000 </r>
        <r>  -28.7552    1.0000 </r>
        <r>  -28.7552    1.0000 </r>
        <r>  -28.7552    1.0000 </r>
        <r>  -28.7552    1.0000 </r>
        <r>  -10.5129    1.0000 </r>
        <r>   -2.6460    0.0000 </r>
        <r>   -2.6460    0.0000 </r>
        <r>   -2.6459    0.0000 </r>
        <r>    0.0096    0.0000 </r>
        <r>    1.4291    0.0000 </r>
        <r>    1.4292    0.0000 </r>
        <r>    1.6646    0.0000 </r>
        <r>    1.7039    0.0000 </r>
        <r>    1.7039    0.0000 </r>
        <r>    1.7044    0.0000 </r>
        <r>    2.5396    0.0000 </r>
        <r>    2.5397    0.0000 </r>
        <r>    2.5399    0.0000 </r>
        <r>    2.9127    0.0000 </r>
        <r>    2.9130    0.0000 </r>
        <r>    3.0368    0.0000 </r>
        <r>    3.0370    0.0000 </r>
        <r>    3.0371    0.0000 </r>
        <r>    3.3628    0.0000 </r>
        <r>    3.3652    0.0000 </r>
        <r>    3.3871    0.0000 </r>
        <r>    3.4894    0.0000 </r>
        <r>    4.1614    0.0000 </r>
        <r>    4.1625    0.0000 </r>
        <r>    4.1628    0.0000 </r>
        <r>    4.3592    0.0000 </r>
        <r>    4.7964    0.0000 </r>
        <r>    4.8995    0.0000 </r>
        <r>    4.9016    0.0000 </r>
        <r>    5.5477    0.0000 </r>
       </set>
      </set>
     </set>
    </array>
   </eigenvalues>
   <array>
    <dimension dim="1">ion</dimension>
    <dimension dim="2">band</dimension>
    <dimension dim="3">kpoint</dimension>
    <dimension dim="4">spin</dimension>
    <field>    s</field>
    <field>   py</field>
    <field>   pz</field>
    <field>   px</field>
    <field>  dxy</field>
    <field>  dyz</field>
    <field>  dz2</field>
    <field>  dxz</field>
    <field>x2-y2</field>
    <set>
     <set comment="spin1">
      <set comment="kpoint 1">
       <set comment="band 1">
        <r>  0.0000  0.0000  0.0000  0.0000  0.1795  0.0073  0.0000  0.8088  0.0000 </r>
       </set>
       <set comment="band 2">
        <r>  0.0000  0.0000  0.0000  0.0000  0.3196  0.6397  0.0000  0.0363  0.0000 </r>
       </set>
       <set comment="band 3">
        <r>  0.0000  0.0000  0.0000  0.0000  0.4965  0.3486  0.0000  0.1505  0.0000 </r>
       </set>
       <set comment="band 4">
        <r>  0.0000  0.0000  0.0000  0.0000  0.0000  0.0000  0.3264  0.0000  0.6692 </r>
       </set>
       <set comment="band 5">
        <r>  0.0000  0.0000  0.0000  0.0000  0.0000  0.0000  0.6692  0.0000  0.3264 </r>
       </set>
       <set comment="band 6">
        <r>  0.6558  0.0000  0.0000  0.0000  0.0000  0.0000  0.0000  0.0000  0.0000 </r>
       </set>
       <set comment="band 7">
        <r>  0.0000  0.0069  0.3595  0.0139  0.0000  0.0000  0.0000  0.0000  0.0000 </r>
       </set>
       <set comment="band 8">
        <r>  0.0000  0.3347  0.0134  0.0322  0.0000  0.0000  0.0000  0.0000  0.0000 </r>
       </set>
       <set comment="band 9">
        <r>  0.0000  0.0387  0.0075  0.3341  0.0000  0.0000  0.0000  0.0000  0.0000 </r>
       </set>
       <set comment="band 10">
        <r>  0.0232  0.0000  0.0000  0.0000  0.0000  0.0000  0.0000  0.0000  0.0000 </r>
       </set>
       <set comment="band 11">
        <r>  0.0000  0.0000  0.0000  0.0000  0.0000  0.0000  0.0038  0.0000  0.0022 </r>
       </set>
       <set comment="band 12">
        <r>  0.0000  0.0000  0.0000  0.0000  0.0000  0.0000  0.0021  0.0000  0.0037 </r>
       </set>
       <set comment="band 13">
        <r>  0.0000  0.0098  0.0163  0.0117  0.0000  0.0000  0.0000  0.0000  0.0000 </r>
       </set>
       <set comment="band 14">
        <r>  0.0000  0.0262  0.0101  0.0009  0.0000  0.0000  0.0000  0.0000  0.0000 </r>
       </set>
       <set comment="band 15">
        <r>  0.0001  0.0014  0.0112  0.0251  0.0000  0.0000  0.0000  0.0000  0.0000 </r>
       </set>
       <set comment="band 16">
        <r>  0.0260  0.0000  0.0000  0.0001  0.0000  0.0000  0.0000  0.0000  0.0000 </r>
       </set>
       <set comment="band 17">
        <r>  0.0000  0.0000  0.0000  0.0000  0.0166  0.0006  0.0000  0.0012  0.0000 </r>
       </set>
       <set comment="band 18">
        <r>  0.0000  0.0000  0.0000  0.0000  0.0008  0.0011  0.0000  0.0166  0.0000 </r>
       </set>
       <set comment="band 19">
        <r>  0.0000  0.0000  0.0000  0.0000  0.0010  0.0167  0.0000  0.0007  0.0000 </r>
       </set>
       <set comment="band 20">
        <r>  0.0000  0.0000  0.0000  0.0000  0.0000  0.0000  0.0003  0.0000  0.0081 </r>
       </set>
       <set comment="band 21">
        <r>  0.0000  0.0000  0.0000  0.0000  0.0000  0.0000  0.0079  0.0000  0.0003 </r>
       </set>
       <set comment="band 22">
        <r>  0.0000  0.0000  0.0000  0.0001  0.0000  0.0000  0.0000  0.0000  0.0000 </r>
       </set>
       <set comment="band 23">
        <r>  0.0000  0.0000  0.0007  0.0001  0.0000  0.0000  0.0001  0.0000  0.0000 </r>
       </set>
       <set comment="band 24">
        <r>  0.0000  0.0007  0.0000  0.0009  0.0000  0.0000  0.0000  0.0000  0.0000 </r>
       </set>
       <set comment="band 25">
        <r>  0.0001  0.0008  0.0350  0.0089  0.0000  0.0000  0.0000  0.0000  0.0000 </r>
       </set>
       <set comment="band 26">
        <r>  0.0005  0.0298  0.0010  0.0122  0.0000  0.0000  0.0000  0.0000  0.0000 </r>
       </set>
       <set comment="band 27">
        <r>  0.0000  0.0138  0.0083  0.0225  0.0000  0.0000  0.0000  0.0000  0.0000 </r>
       </set>
       <set comment="band 28">
        <r>  0.0304  0.0004  0.0000  0.0003  0.0000  0.0000  0.0000  0.0000  0.0000 </r>
       </set>
       <set comment="band 29">
        <r>  0.0000  0.0000  0.0000  0.0000  0.0013  0.0114  0.0000  0.0010  0.0000 </r>
       </set>
       <set comment="band 30">
        <r>  0.0000  0.0000  0.0000  0.0000  0.0000  0.0011  0.0000  0.0127  0.0000 </r>
       </set>
       <set comment="band 31">
        <r>  0.0000  0.0000  0.0000  0.0000  0.0125  0.0012  0.0000  0.0001  0.0000 </r>
       </set>
       <set comment="band 32">
        <r>  0.0000  0.0000  0.0000  0.0000  0.0000  0.0001  0.0009  0.0001  0.0003 </r>
       </set>
       <set comment="band 33">
        <r>  0.0000  0.0005  0.0001  0.0002  0.0000  0.0000  0.0381  0.0000  0.0094 </r>
       </set>
       <set comment="band 34">
        <r>  0.0001  0.0000  0.0001  0.0000  0.0000  0.0000  0.0099  0.0000  0.0406 </r>
       </set>
       <set comment="band 35">
        <r>  0.0073  0.0000  0.0024  0.0009  0.0000  0.0000  0.0000  0.0000  0.0002 </r>
       </set>
       <set comment="band 36">
        <r>  0.0015  0.0014  0.0025  0.0013  0.0005  0.0002  0.0015  0.0053  0.0001 </r>
       </set>
      </set>
     </set>
     <set comment="spin2">
      <set comment="kpoint 1">
       <set comment="band 1">
        <r>  0.0000  0.0000  0.0000  0.0000  0.0013  0.9426  0.0000  0.0516  0.0000 </r>
       </set>
       <set comment="band 2">
        <r>  0.0000  0.0000  0.0000  0.0000  0.6830  0.0243  0.0000  0.2882  0.0000 </r>
       </set>
       <set comment="band 3">
        <r>  0.0000  0.0000  0.0000  0.0000  0.3112  0.0286  0.0000  0.6557  0.0000 </r>
       </set>
       <set comment="band 4">
        <r>  0.0000  0.0000  0.0000  0.0000  0.0000  0.0000  0.8197  0.0000  0.1758 </r>
       </set>
       <set comment="band 5">
        <r>  0.0000  0.0000  0.0000  0.0000  0.0000  0.0000  0.1758  0.0000  0.8197 </r>
       </set>
       <set comment="band 6">
        <r>  0.6528  0.0000  0.0000  0.0000  0.0000  0.0000  0.0000  0.0000  0.0000 </r>
       </set>
       <set comment="band 7">
        <r>  0.0000  0.0129  0.2718  0.0780  0.0000  0.0000  0.0000  0.0000  0.0000 </r>
       </set>
       <set comment="band 8">
        <r>  0.0000  0.3344  0.0015  0.0264  0.0000  0.0000  0.0000  0.0000  0.0000 </r>
       </set>
       <set comment="band 9">
        <r>  0.0000  0.0150  0.0894  0.2577  0.0000  0.0000  0.0000  0.0000  0.0000 </r>
       </set>
       <set comment="band 10">
        <r>  0.0156  0.0000  0.0000  0.0000  0.0000  0.0000  0.0000  0.0000  0.0000 </r>
       </set>
       <set comment="band 11">
        <r>  0.0000  0.0000  0.0000  0.0000  0.0000  0.0000  0.0012  0.0000  0.0017 </r>
       </set>
       <set comment="band 12">
        <r>  0.0000  0.0000  0.0000  0.0000  0.0000  0.0000  0.0017  0.0000  0.0011 </r>
       </set>
       <set comment="band 13">
        <r>  0.0252  0.0000  0.0000  0.0000  0.0000  0.0000  0.0000  0.0000  0.0000 </r>
       </set>
       <set comment="band 14">
        <r>  0.0000  0.0030  0.0220  0.0042  0.0000  0.0000  0.0000  0.0000  0.0000 </r>
       </set>
       <set comment="band 15">
        <r>  0.0000  0.0140  0.0068  0.0084  0.0000  0.0000  0.0000  0.0000  0.0000 </r>
       </set>
       <set comment="band 16">
        <r>  0.0000  0.0131  0.0002  0.0163  0.0000  0.0000  0.0000  0.0000  0.0000 </r>
       </set>
       <set comment="band 17">
        <r>  0.0000  0.0000  0.0000  0.0000  0.0008  0.0080  0.0000  0.0029  0.0000 </r>
       </set>
       <set comment="band 18">
        <r>  0.0000  0.0000  0.0000  0.0000  0.0014  0.0037  0.0000  0.0067  0.0000 </r>
       </set>
       <set comment="band 19">
        <r>  0.0000  0.0000  0.0000  0.0000  0.0095  0.0000  0.0000  0.0023  0.0000 </r>
       </set>
       <set comment="band 20">
        <r>  0.0000  0.0000  0.0000  0.0000  0.0000  0.0000  0.0050  0.0000  0.0000 </r>
       </set>
       <set comment="band 21">
        <r>  0.0000  0.0000  0.0000  0.0000  0.0000  0.0000  0.0000  0.0000  0.0049 </r>
       </set>
       <set comment="band 22">
        <r>  0.0000  0.0000  0.0000  0.0000  0.0000  0.0000  0.0000  0.0000  0.0000 </r>
       </set>
       <set comment="band 23">
        <r>  0.0000  0.0000  0.0001  0.0000  0.0000  0.0000  0.0000  0.0000  0.0000 </r>
       </set>
       <set comment="band 24">
        <r>  0.0000  0.0000  0.0001  0.0000  0.0000  0.0000  0.0000  0.0000  0.0000 </r>
       </set>
       <set comment="band 25">
        <r>  0.0000  0.0127  0.0067  0.0309  0.0000  0.0000  0.0000  0.0000  0.0000 </r>
       </set>
       <set comment="band 26">
        <r>  0.0005  0.0143  0.0355  0.0001  0.0000  0.0000  0.0000  0.0000  0.0000 </r>
       </set>
       <set comment="band 27">
        <r>  0.0047  0.0205  0.0048  0.0175  0.0000  0.0000  0.0000  0.0000  0.0000 </r>
       </set>
       <set comment="band 28">
        <r>  0.0246  0.0023  0.0034  0.0030  0.0000  0.0000  0.0000  0.0000  0.0000 </r>
       </set>
       <set comment="band 29">
        <r>  0.0000  0.0000  0.0001  0.0000  0.0049  0.0020  0.0000  0.0036  0.0000 </r>
       </set>
       <set comment="band 30">
        <r>  0.0000  0.0000  0.0000  0.0000  0.0018  0.0084  0.0000  0.0003  0.0000 </r>
       </set>
       <set comment="band 31">
        <r>  0.0000  0.0000  0.0000  0.0000  0.0037  0.0001  0.0000  0.0065  0.0000 </r>
       </set>
       <set comment="band 32">
        <r>  0.0000  0.0002  0.0000  0.0000  0.0000  0.0000  0.0000  0.0000  0.0002 </r>
       </set>
       <set comment="band 33">
        <r>  0.0001  0.0103  0.0001  0.0010  0.0000  0.0000  0.0150  0.0000  0.0048 </r>
       </set>
       <set comment="band 34">
        <r>  0.0044  0.0001  0.0001  0.0003  0.0000  0.0000  0.0063  0.0000  0.0238 </r>
       </set>
       <set comment="band 35">
        <r>  0.0113  0.0000  0.0000  0.0008  0.0000  0.0000  0.0017  0.0000  0.0097 </r>
       </set>
       <set comment="band 36">
        <r>  0.0003  0.0001  0.0005  0.0086  0.0008  0.0108  0.0032  0.0033  0.0001 </r>
       </set>
      </set>
     </set>
    </set>
   </array>
  </projected>
 </calculation>
 <structure name="finalpos" >
  <crystal>
   <varray name="basis" >
    <v>      10.00000000       0.00000000       0.00000000 </v>
    <v>       0.00000000      10.00000000       0.00000000 </v>
    <v>       0.00000000       0.00000000      10.00000000 </v>
   </varray>
   <i name="volume">   1000.00000000 </i>
   <varray name="rec_basis" >
    <v>       0.10000000       0.00000000       0.00000000 </v>
    <v>       0.00000000       0.10000000       0.00000000 </v>
    <v>       0.00000000       0.00000000       0.10000000 </v>
   </varray>
  </crystal>
  <varray name="positions" >
   <v>       0.50000000       0.50000000       0.50000000 </v>
  </varray>
 </structure>
</modeling>
