   2   2   1   0
  0.9573706E+01  0.3002906E-09  0.3002906E-09  0.3002906E-09  0.5000000E-15
  1.000000000000000E-004
  CAR 
 unknown system                          
     50.23371764    -17.19959524  301      3.49400265      1.00000000
    -17.200  0.0000E+00  0.0000E+00
    -16.975  0.0000E+00  0.0000E+00
    -16.750  0.0000E+00  0.0000E+00
    -16.525  0.0000E+00  0.0000E+00
    -16.300  0.0000E+00  0.0000E+00
    -16.076  0.0000E+00  0.0000E+00
    -15.851  0.0000E+00  0.0000E+00
    -15.626  0.0000E+00  0.0000E+00
    -15.401  0.0000E+00  0.0000E+00
    -15.177  0.0000E+00  0.0000E+00
    -14.952  0.0000E+00  0.0000E+00
    -14.727  0.0000E+00  0.0000E+00
    -14.502  0.3431E-10  0.7712E-11
    -14.277  0.7520E-05  0.1690E-05
    -14.053  0.7851E-03  0.1782E-03
    -13.828  0.4671E-02  0.1228E-02
    -13.603  0.9311E-02  0.3321E-02
    -13.378  0.9651E-02  0.5490E-02
    -13.154  0.2187E-01  0.1041E-01
    -12.929  0.3255E-01  0.1772E-01
    -12.704  0.6498E-01  0.3233E-01
    -12.479  0.3389E-01  0.3995E-01
    -12.254  0.2351E-03  0.4000E-01
    -12.030  0.6559E-09  0.4000E-01
    -11.805  0.0000E+00  0.4000E-01
    -11.580  0.0000E+00  0.4000E-01
    -11.355  0.0000E+00  0.4000E-01
    -11.131  0.0000E+00  0.4000E-01
    -10.906  0.0000E+00  0.4000E-01
    -10.681  0.0000E+00  0.4000E-01
    -10.456  0.0000E+00  0.4000E-01
    -10.231  0.0000E+00  0.4000E-01
    -10.007  0.0000E+00  0.4000E-01
     -9.782  0.0000E+00  0.4000E-01
     -9.557  0.0000E+00  0.4000E-01
     -9.332  0.0000E+00  0.4000E-01
     -9.108  0.0000E+00  0.4000E-01
     -8.883  0.0000E+00  0.4000E-01
     -8.658  0.0000E+00  0.4000E-01
     -8.433  0.0000E+00  0.4000E-01
     -8.208  0.0000E+00  0.4000E-01
     -7.984  0.0000E+00  0.4000E-01
     -7.759  0.0000E+00  0.4000E-01
     -7.534  0.0000E+00  0.4000E-01
     -7.309  0.0000E+00  0.4000E-01
     -7.085  0.0000E+00  0.4000E-01
     -6.860  0.0000E+00  0.4000E-01
     -6.635  0.0000E+00  0.4000E-01
     -6.410  0.0000E+00  0.4000E-01
     -6.185  0.0000E+00  0.4000E-01
     -5.961  0.0000E+00  0.4000E-01
     -5.736  0.0000E+00  0.4000E-01
     -5.511  0.0000E+00  0.4000E-01
     -5.286  0.0000E+00  0.4000E-01
     -5.062  0.0000E+00  0.4000E-01
     -4.837  0.0000E+00  0.4000E-01
     -4.612  0.0000E+00  0.4000E-01
     -4.387  0.0000E+00  0.4000E-01
     -4.162  0.0000E+00  0.4000E-01
     -3.938  0.0000E+00  0.4000E-01
     -3.713  0.0000E+00  0.4000E-01
     -3.488  0.0000E+00  0.4000E-01
     -3.263  0.0000E+00  0.4000E-01
     -3.039  0.0000E+00  0.4000E-01
     -2.814  0.0000E+00  0.4000E-01
     -2.589  0.0000E+00  0.4000E-01
     -2.364  0.0000E+00  0.4000E-01
     -2.139  0.0000E+00  0.4000E-01
     -1.915  0.4734E-11  0.4000E-01
     -1.690  0.6172E-05  0.4000E-01
     -1.465  0.9925E-03  0.4022E-01
     -1.240  0.4831E-02  0.4131E-01
     -1.016  0.1220E-01  0.4405E-01
     -0.791  0.1739E-01  0.4796E-01
     -0.566  0.4376E-01  0.5780E-01
     -0.341  0.4128E-01  0.6708E-01
     -0.116  0.2008E-01  0.7159E-01
      0.108  0.1279E-01  0.7447E-01
      0.333  0.8419E-02  0.7636E-01
      0.558  0.1910E-01  0.8065E-01
      0.783  0.2262E-01  0.8573E-01
      1.007  0.6407E-02  0.8717E-01
      1.232  0.2798E-01  0.9346E-01
      1.457  0.3509E-01  0.1013E+00
      1.682  0.1624E-01  0.1050E+00
      1.907  0.5943E-01  0.1184E+00
      2.131  0.5872E-01  0.1316E+00
      2.356  0.5091E-01  0.1430E+00
      2.581  0.4482E-01  0.1531E+00
      2.806  0.2026E-01  0.1576E+00
      3.030  0.9956E-02  0.1599E+00
      3.255  0.6027E-03  0.1600E+00
      3.480  0.2089E-06  0.1600E+00
      3.705  0.9394E-14  0.1600E+00
      3.930  0.0000E+00  0.1600E+00
      4.154  0.0000E+00  0.1600E+00
      4.379  0.0000E+00  0.1600E+00
      4.604  0.0000E+00  0.1600E+00
      4.829  0.0000E+00  0.1600E+00
      5.053  0.0000E+00  0.1600E+00
      5.278  0.0000E+00  0.1600E+00
      5.503  0.0000E+00  0.1600E+00
      5.728  0.0000E+00  0.1600E+00
      5.953  0.0000E+00  0.1600E+00
      6.177  0.0000E+00  0.1600E+00
      6.402  0.0000E+00  0.1600E+00
      6.627  0.0000E+00  0.1600E+00
      6.852  0.0000E+00  0.1600E+00
      7.076  0.5416E-12  0.1600E+00
      7.301  0.1047E-05  0.1600E+00
      7.526  0.2309E-03  0.1601E+00
      7.751  0.1156E-03  0.1601E+00
      7.976  0.5297E-07  0.1601E+00
      8.200  0.3695E-05  0.1601E+00
      8.425  0.1579E-02  0.1604E+00
      8.650  0.1626E-02  0.1608E+00
      8.875  0.1638E-02  0.1612E+00
      9.099  0.1915E-04  0.1612E+00
      9.324  0.4070E-04  0.1612E+00
      9.549  0.3298E-02  0.1619E+00
      9.774  0.1082E-02  0.1622E+00
      9.999  0.6466E-02  0.1636E+00
     10.223  0.4399E-02  0.1646E+00
     10.448  0.2260E-04  0.1646E+00
     10.673  0.2392E-02  0.1652E+00
     10.898  0.1048E-01  0.1675E+00
     11.122  0.7427E-02  0.1692E+00
     11.347  0.1345E-01  0.1722E+00
     11.572  0.1402E-01  0.1753E+00
     11.797  0.4192E-03  0.1754E+00
     12.022  0.7419E-02  0.1771E+00
     12.246  0.7958E-02  0.1789E+00
     12.471  0.2241E-01  0.1839E+00
     12.696  0.2271E-01  0.1890E+00
     12.921  0.1139E-01  0.1916E+00
     13.145  0.1489E-01  0.1950E+00
     13.370  0.1550E-01  0.1984E+00
     13.595  0.2935E-01  0.2050E+00
     13.820  0.7841E-02  0.2068E+00
     14.045  0.4089E-03  0.2069E+00
     14.269  0.2798E-02  0.2075E+00
     14.494  0.3871E-01  0.2162E+00
     14.719  0.3289E-01  0.2236E+00
     14.944  0.2051E-01  0.2282E+00
     15.168  0.3274E-01  0.2356E+00
     15.393  0.3219E-01  0.2428E+00
     15.618  0.1365E-01  0.2459E+00
     15.843  0.1660E-01  0.2496E+00
     16.068  0.1880E-01  0.2538E+00
     16.292  0.1167E-01  0.2565E+00
     16.517  0.3329E-02  0.2572E+00
     16.742  0.1782E-01  0.2612E+00
     16.967  0.1197E-01  0.2639E+00
     17.191  0.2768E-02  0.2645E+00
     17.416  0.1877E-04  0.2645E+00
     17.641  0.5905E-02  0.2659E+00
     17.866  0.1716E-01  0.2697E+00
     18.091  0.4245E-02  0.2707E+00
     18.315  0.1301E-01  0.2736E+00
     18.540  0.5573E-02  0.2748E+00
     18.765  0.9495E-03  0.2751E+00
     18.990  0.5561E-02  0.2763E+00
     19.214  0.2270E-01  0.2814E+00
     19.439  0.3411E-01  0.2891E+00
     19.664  0.3467E-01  0.2969E+00
     19.889  0.2272E-01  0.3020E+00
     20.114  0.2124E-01  0.3068E+00
     20.338  0.3098E-01  0.3137E+00
     20.563  0.1241E-01  0.3165E+00
     20.788  0.8918E-02  0.3185E+00
     21.013  0.2305E-01  0.3237E+00
     21.237  0.1569E-01  0.3272E+00
     21.462  0.1226E-01  0.3300E+00
     21.687  0.1241E-01  0.3328E+00
     21.912  0.1349E-01  0.3358E+00
     22.137  0.1127E-01  0.3383E+00
     22.361  0.1589E-01  0.3419E+00
     22.586  0.1460E-01  0.3452E+00
     22.811  0.1844E-01  0.3493E+00
     23.036  0.7802E-02  0.3511E+00
     23.260  0.8124E-02  0.3529E+00
     23.485  0.1330E-01  0.3559E+00
     23.710  0.1693E-01  0.3597E+00
     23.935  0.5274E-02  0.3609E+00
     24.160  0.1892E-01  0.3651E+00
     24.384  0.1956E-01  0.3695E+00
     24.609  0.9027E-02  0.3716E+00
     24.834  0.1885E-01  0.3758E+00
     25.059  0.7393E-02  0.3775E+00
     25.283  0.3230E-01  0.3847E+00
     25.508  0.6124E-02  0.3861E+00
     25.733  0.1304E-01  0.3890E+00
     25.958  0.1440E-01  0.3923E+00
     26.183  0.2487E-01  0.3979E+00
     26.407  0.1435E-01  0.4011E+00
     26.632  0.4431E-02  0.4021E+00
     26.857  0.1085E-01  0.4045E+00
     27.082  0.9085E-02  0.4066E+00
     27.306  0.1258E-01  0.4094E+00
     27.531  0.1933E-02  0.4098E+00
     27.756  0.3072E-02  0.4105E+00
     27.981  0.4526E-02  0.4115E+00
     28.206  0.2299E-02  0.4121E+00
     28.430  0.1480E-01  0.4154E+00
     28.655  0.2491E-01  0.4210E+00
     28.880  0.2770E-01  0.4272E+00
     29.105  0.1358E-01  0.4303E+00
     29.329  0.9728E-02  0.4324E+00
     29.554  0.6603E-02  0.4339E+00
     29.779  0.2374E-01  0.4393E+00
     30.004  0.3238E-01  0.4465E+00
     30.229  0.2025E-01  0.4511E+00
     30.453  0.1486E-01  0.4544E+00
     30.678  0.1729E-01  0.4583E+00
     30.903  0.1874E-01  0.4625E+00
     31.128  0.1947E-01  0.4669E+00
     31.352  0.4429E-01  0.4769E+00
     31.577  0.3488E-01  0.4847E+00
     31.802  0.2767E-01  0.4909E+00
     32.027  0.2667E-01  0.4969E+00
     32.252  0.4712E-01  0.5075E+00
     32.476  0.3035E-01  0.5143E+00
     32.701  0.2737E-01  0.5205E+00
     32.926  0.1994E-01  0.5250E+00
     33.151  0.1822E-01  0.5291E+00
     33.375  0.1526E-02  0.5294E+00
     33.600  0.3731E-02  0.5303E+00
     33.825  0.1098E-01  0.5327E+00
     34.050  0.1613E-01  0.5363E+00
     34.275  0.7958E-02  0.5381E+00
     34.499  0.9320E-02  0.5402E+00
     34.724  0.2833E-01  0.5466E+00
     34.949  0.4393E-02  0.5476E+00
     35.174  0.9031E-02  0.5496E+00
     35.398  0.3166E-01  0.5567E+00
     35.623  0.1317E-01  0.5597E+00
     35.848  0.7285E-02  0.5613E+00
     36.073  0.6772E-02  0.5628E+00
     36.297  0.3180E-01  0.5700E+00
     36.522  0.9759E-02  0.5722E+00
     36.747  0.2408E-01  0.5776E+00
     36.972  0.1543E-01  0.5811E+00
     37.197  0.1595E-01  0.5847E+00
     37.421  0.8161E-02  0.5865E+00
     37.646  0.2023E-01  0.5910E+00
     37.871  0.1199E-01  0.5937E+00
     38.096  0.2202E-01  0.5987E+00
     38.320  0.1264E-01  0.6015E+00
     38.545  0.1282E-01  0.6044E+00
     38.770  0.3231E-01  0.6117E+00
     38.995  0.2149E-01  0.6165E+00
     39.220  0.6595E-03  0.6166E+00
     39.444  0.7410E-02  0.6183E+00
     39.669  0.3862E-02  0.6192E+00
     39.894  0.1023E-01  0.6215E+00
     40.119  0.1379E-01  0.6246E+00
     40.343  0.1018E-01  0.6269E+00
     40.568  0.8263E-02  0.6287E+00
     40.793  0.3912E-01  0.6375E+00
     41.018  0.4986E-01  0.6487E+00
     41.243  0.1988E-01  0.6532E+00
     41.467  0.1383E-01  0.6563E+00
     41.692  0.4533E-02  0.6573E+00
     41.917  0.5345E-02  0.6585E+00
     42.142  0.3487E-01  0.6664E+00
     42.366  0.9884E-02  0.6686E+00
     42.591  0.2170E-01  0.6735E+00
     42.816  0.1689E-01  0.6773E+00
     43.041  0.1300E-01  0.6802E+00
     43.266  0.1654E-01  0.6839E+00
     43.490  0.1746E-01  0.6878E+00
     43.715  0.5474E-02  0.6890E+00
     43.940  0.9686E-02  0.6912E+00
     44.165  0.2497E-01  0.6968E+00
     44.389  0.7259E-02  0.6985E+00
     44.614  0.2097E-01  0.7032E+00
     44.839  0.4064E-02  0.7041E+00
     45.064  0.1184E-01  0.7068E+00
     45.289  0.1902E-01  0.7110E+00
     45.513  0.7834E-02  0.7128E+00
     45.738  0.6463E-02  0.7142E+00
     45.963  0.1106E-01  0.7167E+00
     46.188  0.2032E-02  0.7172E+00
     46.412  0.8095E-05  0.7172E+00
     46.637  0.1018E-02  0.7174E+00
     46.862  0.3779E-03  0.7175E+00
     47.087  0.3028E-02  0.7182E+00
     47.312  0.7901E-02  0.7200E+00
     47.536  0.1799E-03  0.7200E+00
     47.761  0.8235E-09  0.7200E+00
     47.986  0.0000E+00  0.7200E+00
     48.211  0.0000E+00  0.7200E+00
     48.435  0.0000E+00  0.7200E+00
     48.660  0.0000E+00  0.7200E+00
     48.885  0.0000E+00  0.7200E+00
     49.110  0.0000E+00  0.7200E+00
     49.335  0.0000E+00  0.7200E+00
     49.559  0.0000E+00  0.7200E+00
     49.784  0.0000E+00  0.7200E+00
     50.009  0.0000E+00  0.7200E+00
     50.234  0.0000E+00  0.7200E+00
     50.23371764    -17.19959524  301      3.49400265      1.00000000
    -17.200  0.0000E+00  0.0000E+00  0.0000E+00  0.0000E+00  0.0000E+00  0.0000E+00  0.0000E+00  0.0000E+00  0.0000E+00
    -16.975  0.0000E+00  0.0000E+00  0.0000E+00  0.0000E+00  0.0000E+00  0.0000E+00  0.0000E+00  0.0000E+00  0.0000E+00
    -16.750  0.0000E+00  0.0000E+00  0.0000E+00  0.0000E+00  0.0000E+00  0.0000E+00  0.0000E+00  0.0000E+00  0.0000E+00
    -16.525  0.0000E+00  0.0000E+00  0.0000E+00  0.0000E+00  0.0000E+00  0.0000E+00  0.0000E+00  0.0000E+00  0.0000E+00
    -16.300  0.0000E+00  0.0000E+00  0.0000E+00  0.0000E+00  0.0000E+00  0.0000E+00  0.0000E+00  0.0000E+00  0.0000E+00
    -16.076  0.0000E+00  0.0000E+00  0.0000E+00  0.0000E+00  0.0000E+00  0.0000E+00  0.0000E+00  0.0000E+00  0.0000E+00
    -15.851  0.0000E+00  0.0000E+00  0.0000E+00  0.0000E+00  0.0000E+00  0.0000E+00  0.0000E+00  0.0000E+00  0.0000E+00
    -15.626  0.0000E+00  0.0000E+00  0.0000E+00  0.0000E+00  0.0000E+00  0.0000E+00  0.0000E+00  0.0000E+00  0.0000E+00
    -15.401  0.0000E+00  0.0000E+00  0.0000E+00  0.0000E+00  0.0000E+00  0.0000E+00  0.0000E+00  0.0000E+00  0.0000E+00
    -15.177  0.0000E+00  0.0000E+00  0.0000E+00  0.0000E+00  0.0000E+00  0.0000E+00  0.0000E+00  0.0000E+00  0.0000E+00
    -14.952  0.0000E+00  0.0000E+00  0.0000E+00  0.0000E+00  0.0000E+00  0.0000E+00  0.0000E+00  0.0000E+00  0.0000E+00
    -14.727  0.0000E+00  0.0000E+00  0.0000E+00  0.0000E+00  0.0000E+00  0.0000E+00  0.0000E+00  0.0000E+00  0.0000E+00
    -14.502  0.7104E-10  0.6782E-17  0.6847E-17  0.6782E-17  0.2557E-20  0.2558E-20  0.2731E-20  0.2557E-20  0.1427E-27
    -14.277  0.1556E-04  0.1252E-08  0.1366E-08  0.1252E-08  0.4710E-12  0.4712E-12  0.4837E-11  0.4710E-12  0.7771E-22
    -14.053  0.1503E-02  0.1580E-04  0.2716E-04  0.1580E-04  0.5948E-08  0.5946E-08  0.4825E-06  0.5944E-08  0.2268E-17
    -13.828  0.8268E-02  0.1535E-03  0.3488E-03  0.1535E-03  0.1157E-06  0.3488E-07  0.1386E-04  0.3486E-07  0.4759E-16
    -13.603  0.1261E-01  0.8145E-03  0.1314E-02  0.8145E-03  0.7936E-06  0.4857E-06  0.1257E-03  0.4857E-06  0.1327E-09
    -13.378  0.1067E-01  0.9560E-03  0.2006E-02  0.8523E-03  0.1054E-05  0.8532E-06  0.2917E-03  0.5860E-06  0.3944E-05
    -13.154  0.1577E-01  0.3703E-02  0.5056E-02  0.2675E-02  0.3275E-05  0.4195E-05  0.1091E-02  0.1548E-05  0.3922E-04
    -12.929  0.1117E-01  0.6618E-02  0.7673E-02  0.4829E-02  0.4064E-05  0.5190E-05  0.3052E-02  0.1892E-05  0.1729E-03
    -12.704  0.8539E-02  0.1422E-01  0.9822E-02  0.8698E-02  0.6109E-05  0.7042E-05  0.1121E-01  0.1418E-05  0.7774E-03
    -12.479  0.2443E-02  0.6988E-02  0.1450E-02  0.2806E-02  0.2576E-05  0.1097E-05  0.8957E-02  0.1724E-06  0.6383E-03
    -12.254  0.1337E-04  0.4990E-04  0.4023E-05  0.9821E-05  0.7176E-08  0.4272E-08  0.6751E-04  0.2474E-09  0.6892E-05
    -12.030  0.2131E-10  0.1613E-09  0.2563E-11  0.1095E-10  0.7051E-14  0.2920E-14  0.1770E-09  0.1185E-15  0.3482E-10
    -11.805  0.0000E+00  0.0000E+00  0.0000E+00  0.0000E+00  0.0000E+00  0.0000E+00  0.0000E+00  0.0000E+00  0.0000E+00
    -11.580  0.0000E+00  0.0000E+00  0.0000E+00  0.0000E+00  0.0000E+00  0.0000E+00  0.0000E+00  0.0000E+00  0.0000E+00
    -11.355  0.0000E+00  0.0000E+00  0.0000E+00  0.0000E+00  0.0000E+00  0.0000E+00  0.0000E+00  0.0000E+00  0.0000E+00
    -11.131  0.0000E+00  0.0000E+00  0.0000E+00  0.0000E+00  0.0000E+00  0.0000E+00  0.0000E+00  0.0000E+00  0.0000E+00
    -10.906  0.0000E+00  0.0000E+00  0.0000E+00  0.0000E+00  0.0000E+00  0.0000E+00  0.0000E+00  0.0000E+00  0.0000E+00
    -10.681  0.0000E+00  0.0000E+00  0.0000E+00  0.0000E+00  0.0000E+00  0.0000E+00  0.0000E+00  0.0000E+00  0.0000E+00
    -10.456  0.0000E+00  0.0000E+00  0.0000E+00  0.0000E+00  0.0000E+00  0.0000E+00  0.0000E+00  0.0000E+00  0.0000E+00
    -10.231  0.0000E+00  0.0000E+00  0.0000E+00  0.0000E+00  0.0000E+00  0.0000E+00  0.0000E+00  0.0000E+00  0.0000E+00
    -10.007  0.0000E+00  0.0000E+00  0.0000E+00  0.0000E+00  0.0000E+00  0.0000E+00  0.0000E+00  0.0000E+00  0.0000E+00
     -9.782  0.0000E+00  0.0000E+00  0.0000E+00  0.0000E+00  0.0000E+00  0.0000E+00  0.0000E+00  0.0000E+00  0.0000E+00
     -9.557  0.0000E+00  0.0000E+00  0.0000E+00  0.0000E+00  0.0000E+00  0.0000E+00  0.0000E+00  0.0000E+00  0.0000E+00
     -9.332  0.0000E+00  0.0000E+00  0.0000E+00  0.0000E+00  0.0000E+00  0.0000E+00  0.0000E+00  0.0000E+00  0.0000E+00
     -9.108  0.0000E+00  0.0000E+00  0.0000E+00  0.0000E+00  0.0000E+00  0.0000E+00  0.0000E+00  0.0000E+00  0.0000E+00
     -8.883  0.0000E+00  0.0000E+00  0.0000E+00  0.0000E+00  0.0000E+00  0.0000E+00  0.0000E+00  0.0000E+00  0.0000E+00
     -8.658  0.0000E+00  0.0000E+00  0.0000E+00  0.0000E+00  0.0000E+00  0.0000E+00  0.0000E+00  0.0000E+00  0.0000E+00
     -8.433  0.0000E+00  0.0000E+00  0.0000E+00  0.0000E+00  0.0000E+00  0.0000E+00  0.0000E+00  0.0000E+00  0.0000E+00
     -8.208  0.0000E+00  0.0000E+00  0.0000E+00  0.0000E+00  0.0000E+00  0.0000E+00  0.0000E+00  0.0000E+00  0.0000E+00
     -7.984  0.0000E+00  0.0000E+00  0.0000E+00  0.0000E+00  0.0000E+00  0.0000E+00  0.0000E+00  0.0000E+00  0.0000E+00
     -7.759  0.0000E+00  0.0000E+00  0.0000E+00  0.0000E+00  0.0000E+00  0.0000E+00  0.0000E+00  0.0000E+00  0.0000E+00
     -7.534  0.0000E+00  0.0000E+00  0.0000E+00  0.0000E+00  0.0000E+00  0.0000E+00  0.0000E+00  0.0000E+00  0.0000E+00
     -7.309  0.0000E+00  0.0000E+00  0.0000E+00  0.0000E+00  0.0000E+00  0.0000E+00  0.0000E+00  0.0000E+00  0.0000E+00
     -7.085  0.0000E+00  0.0000E+00  0.0000E+00  0.0000E+00  0.0000E+00  0.0000E+00  0.0000E+00  0.0000E+00  0.0000E+00
     -6.860  0.0000E+00  0.0000E+00  0.0000E+00  0.0000E+00  0.0000E+00  0.0000E+00  0.0000E+00  0.0000E+00  0.0000E+00
     -6.635  0.0000E+00  0.0000E+00  0.0000E+00  0.0000E+00  0.0000E+00  0.0000E+00  0.0000E+00  0.0000E+00  0.0000E+00
     -6.410  0.0000E+00  0.0000E+00  0.0000E+00  0.0000E+00  0.0000E+00  0.0000E+00  0.0000E+00  0.0000E+00  0.0000E+00
     -6.185  0.0000E+00  0.0000E+00  0.0000E+00  0.0000E+00  0.0000E+00  0.0000E+00  0.0000E+00  0.0000E+00  0.0000E+00
     -5.961  0.0000E+00  0.0000E+00  0.0000E+00  0.0000E+00  0.0000E+00  0.0000E+00  0.0000E+00  0.0000E+00  0.0000E+00
     -5.736  0.0000E+00  0.0000E+00  0.0000E+00  0.0000E+00  0.0000E+00  0.0000E+00  0.0000E+00  0.0000E+00  0.0000E+00
     -5.511  0.0000E+00  0.0000E+00  0.0000E+00  0.0000E+00  0.0000E+00  0.0000E+00  0.0000E+00  0.0000E+00  0.0000E+00
     -5.286  0.0000E+00  0.0000E+00  0.0000E+00  0.0000E+00  0.0000E+00  0.0000E+00  0.0000E+00  0.0000E+00  0.0000E+00
     -5.062  0.0000E+00  0.0000E+00  0.0000E+00  0.0000E+00  0.0000E+00  0.0000E+00  0.0000E+00  0.0000E+00  0.0000E+00
     -4.837  0.0000E+00  0.0000E+00  0.0000E+00  0.0000E+00  0.0000E+00  0.0000E+00  0.0000E+00  0.0000E+00  0.0000E+00
     -4.612  0.0000E+00  0.0000E+00  0.0000E+00  0.0000E+00  0.0000E+00  0.0000E+00  0.0000E+00  0.0000E+00  0.0000E+00
     -4.387  0.0000E+00  0.0000E+00  0.0000E+00  0.0000E+00  0.0000E+00  0.0000E+00  0.0000E+00  0.0000E+00  0.0000E+00
     -4.162  0.0000E+00  0.0000E+00  0.0000E+00  0.0000E+00  0.0000E+00  0.0000E+00  0.0000E+00  0.0000E+00  0.0000E+00
     -3.938  0.0000E+00  0.0000E+00  0.0000E+00  0.0000E+00  0.0000E+00  0.0000E+00  0.0000E+00  0.0000E+00  0.0000E+00
     -3.713  0.0000E+00  0.0000E+00  0.0000E+00  0.0000E+00  0.0000E+00  0.0000E+00  0.0000E+00  0.0000E+00  0.0000E+00
     -3.488  0.0000E+00  0.0000E+00  0.0000E+00  0.0000E+00  0.0000E+00  0.0000E+00  0.0000E+00  0.0000E+00  0.0000E+00
     -3.263  0.0000E+00  0.0000E+00  0.0000E+00  0.0000E+00  0.0000E+00  0.0000E+00  0.0000E+00  0.0000E+00  0.0000E+00
     -3.039  0.0000E+00  0.0000E+00  0.0000E+00  0.0000E+00  0.0000E+00  0.0000E+00  0.0000E+00  0.0000E+00  0.0000E+00
     -2.814  0.0000E+00  0.0000E+00  0.0000E+00  0.0000E+00  0.0000E+00  0.0000E+00  0.0000E+00  0.0000E+00  0.0000E+00
     -2.589  0.0000E+00  0.0000E+00  0.0000E+00  0.0000E+00  0.0000E+00  0.0000E+00  0.0000E+00  0.0000E+00  0.0000E+00
     -2.364  0.0000E+00  0.0000E+00  0.0000E+00  0.0000E+00  0.0000E+00  0.0000E+00  0.0000E+00  0.0000E+00  0.0000E+00
     -2.139  0.0000E+00  0.0000E+00  0.0000E+00  0.0000E+00  0.0000E+00  0.0000E+00  0.0000E+00  0.0000E+00  0.0000E+00
     -1.915  0.2434E-10  0.2392E-27  0.1438E-27  0.1218E-27  0.8276E-12  0.8276E-12  0.1174E-23  0.8276E-12  0.3373E-23
     -1.690  0.3173E-04  0.9213E-13  0.2603E-12  0.9213E-13  0.1079E-05  0.1079E-05  0.3343E-14  0.1079E-05  0.4398E-17
     -1.465  0.5097E-02  0.5656E-06  0.1598E-05  0.5656E-06  0.1734E-03  0.1734E-03  0.2052E-07  0.1734E-03  0.7032E-15
     -1.240  0.2233E-01  0.3338E-03  0.9595E-03  0.3338E-03  0.7638E-03  0.7644E-03  0.1510E-04  0.7644E-03  0.3039E-10
     -1.016  0.5389E-01  0.4591E-03  0.3969E-02  0.6733E-03  0.2115E-02  0.1663E-02  0.2352E-03  0.1639E-02  0.2082E-05
     -0.791  0.5007E-01  0.3444E-03  0.2329E-01  0.4076E-02  0.1894E-02  0.1948E-02  0.4717E-03  0.1500E-02  0.4310E-04
     -0.566  0.1092E+00  0.2981E-02  0.6731E-01  0.5102E-02  0.2827E-02  0.5154E-02  0.4194E-02  0.2415E-02  0.7834E-03
     -0.341  0.9273E-01  0.1873E-02  0.6483E-01  0.7122E-02  0.2894E-02  0.4895E-02  0.4654E-02  0.1922E-02  0.5146E-03
     -0.116  0.5295E-01  0.4852E-03  0.1706E-01  0.8542E-02  0.2634E-02  0.9732E-03  0.4371E-02  0.6243E-03  0.5723E-04
      0.108  0.4038E-01  0.5016E-03  0.5176E-02  0.2793E-02  0.1062E-02  0.1474E-02  0.2724E-02  0.2315E-03  0.3630E-03
      0.333  0.1141E-01  0.1065E-02  0.1124E-01  0.5083E-02  0.7081E-03  0.1100E-02  0.8696E-03  0.2298E-03  0.8696E-04
      0.558  0.2299E-01  0.2289E-02  0.2388E-01  0.1254E-01  0.2223E-02  0.1753E-02  0.2623E-02  0.7688E-03  0.1611E-07
      0.783  0.2339E-01  0.1777E-02  0.2157E-01  0.2041E-01  0.3074E-02  0.1024E-02  0.5227E-02  0.9198E-03  0.9060E-08
      1.007  0.1282E-01  0.5472E-03  0.4639E-02  0.1216E-02  0.2453E-03  0.5370E-03  0.1666E-02  0.4956E-03  0.5590E-04
      1.232  0.1572E-01  0.4226E-02  0.2262E-01  0.2430E-01  0.3535E-02  0.1459E-02  0.7675E-02  0.8298E-03  0.1401E-02
      1.457  0.1397E-01  0.9062E-02  0.5068E-02  0.5401E-01  0.5126E-02  0.4136E-03  0.4861E-02  0.1842E-02  0.2378E-02
      1.682  0.1368E-01  0.7633E-02  0.1727E-02  0.1028E-01  0.3211E-03  0.6783E-04  0.1724E-02  0.2090E-03  0.6388E-02
      1.907  0.1726E-01  0.2767E-01  0.1526E-01  0.3717E-01  0.2451E-02  0.1283E-02  0.1496E-01  0.2053E-02  0.1450E-01
      2.131  0.1306E-01  0.1725E-01  0.1855E-01  0.2607E-01  0.1669E-02  0.2107E-02  0.1452E-01  0.3015E-02  0.2106E-01
      2.356  0.3439E-02  0.1354E-01  0.6990E-02  0.1254E-01  0.8936E-03  0.1876E-02  0.1487E-01  0.1953E-02  0.3054E-01
      2.581  0.3007E-03  0.1132E-01  0.5656E-02  0.8261E-02  0.6668E-03  0.2191E-02  0.1073E-01  0.1913E-02  0.2378E-01
      2.806  0.1057E-04  0.4544E-02  0.1391E-02  0.4511E-02  0.2821E-03  0.6454E-03  0.2944E-02  0.6424E-03  0.9898E-02
      3.030  0.1978E-08  0.2481E-02  0.1357E-02  0.2481E-02  0.5386E-04  0.1265E-03  0.5925E-03  0.1265E-03  0.2546E-02
      3.255  0.8646E-15  0.1559E-03  0.1541E-03  0.1559E-03  0.2134E-05  0.2173E-05  0.2323E-04  0.2173E-05  0.3067E-04
      3.480  0.8238E-20  0.5763E-07  0.5763E-07  0.5763E-07  0.2143E-10  0.2144E-10  0.2334E-09  0.2144E-10  0.2366E-09
      3.705  0.4647E-29  0.2596E-14  0.2596E-14  0.2596E-14  0.1207E-19  0.1207E-19  0.1314E-18  0.1207E-19  0.1314E-18
      3.930  0.0000E+00  0.0000E+00  0.0000E+00  0.0000E+00  0.0000E+00  0.0000E+00  0.0000E+00  0.0000E+00  0.0000E+00
      4.154  0.0000E+00  0.0000E+00  0.0000E+00  0.0000E+00  0.0000E+00  0.0000E+00  0.0000E+00  0.0000E+00  0.0000E+00
      4.379  0.0000E+00  0.0000E+00  0.0000E+00  0.0000E+00  0.0000E+00  0.0000E+00  0.0000E+00  0.0000E+00  0.0000E+00
      4.604  0.0000E+00  0.0000E+00  0.0000E+00  0.0000E+00  0.0000E+00  0.0000E+00  0.0000E+00  0.0000E+00  0.0000E+00
      4.829  0.0000E+00  0.0000E+00  0.0000E+00  0.0000E+00  0.0000E+00  0.0000E+00  0.0000E+00  0.0000E+00  0.0000E+00
      5.053  0.0000E+00  0.0000E+00  0.0000E+00  0.0000E+00  0.0000E+00  0.0000E+00  0.0000E+00  0.0000E+00  0.0000E+00
      5.278  0.0000E+00  0.0000E+00  0.0000E+00  0.0000E+00  0.0000E+00  0.0000E+00  0.0000E+00  0.0000E+00  0.0000E+00
      5.503  0.0000E+00  0.0000E+00  0.0000E+00  0.0000E+00  0.0000E+00  0.0000E+00  0.0000E+00  0.0000E+00  0.0000E+00
      5.728  0.0000E+00  0.0000E+00  0.0000E+00  0.0000E+00  0.0000E+00  0.0000E+00  0.0000E+00  0.0000E+00  0.0000E+00
      5.953  0.0000E+00  0.0000E+00  0.0000E+00  0.0000E+00  0.0000E+00  0.0000E+00  0.0000E+00  0.0000E+00  0.0000E+00
      6.177  0.0000E+00  0.0000E+00  0.0000E+00  0.0000E+00  0.0000E+00  0.0000E+00  0.0000E+00  0.0000E+00  0.0000E+00
      6.402  0.0000E+00  0.0000E+00  0.0000E+00  0.0000E+00  0.0000E+00  0.0000E+00  0.0000E+00  0.0000E+00  0.0000E+00
      6.627  0.0000E+00  0.0000E+00  0.0000E+00  0.0000E+00  0.0000E+00  0.0000E+00  0.0000E+00  0.0000E+00  0.0000E+00
      6.852  0.0000E+00  0.0000E+00  0.0000E+00  0.0000E+00  0.0000E+00  0.0000E+00  0.0000E+00  0.0000E+00  0.0000E+00
      7.076  0.6458E-11  0.4844E-28  0.4290E-28  0.3916E-28  0.4183E-25  0.4144E-25  0.2126E-27  0.4163E-25  0.1891E-28
      7.301  0.1248E-04  0.9362E-22  0.8291E-22  0.7569E-22  0.8085E-19  0.8010E-19  0.4110E-21  0.8046E-19  0.3655E-22
      7.526  0.2753E-02  0.2065E-19  0.1829E-19  0.1669E-19  0.1783E-16  0.1767E-16  0.9064E-19  0.1775E-16  0.8062E-20
      7.751  0.1378E-02  0.1034E-19  0.9157E-20  0.8359E-20  0.8929E-17  0.8846E-17  0.4539E-19  0.8886E-17  0.4037E-20
      7.976  0.6317E-06  0.2606E-12  0.2606E-12  0.2606E-12  0.5946E-14  0.5946E-14  0.2086E-22  0.5946E-14  0.2081E-23
      8.200  0.3597E-04  0.1105E-05  0.1105E-05  0.1105E-05  0.2522E-07  0.2522E-07  0.9927E-16  0.2522E-07  0.9817E-18
      8.425  0.1537E-01  0.4722E-03  0.4723E-03  0.4722E-03  0.1078E-04  0.1078E-04  0.8909E-08  0.1078E-04  0.4194E-15
      8.650  0.1574E-01  0.3581E-03  0.6696E-03  0.3581E-03  0.8171E-05  0.8171E-05  0.5781E-04  0.8171E-05  0.3381E-15
      8.875  0.1561E-01  0.3326E-06  0.1188E-02  0.3326E-06  0.7589E-08  0.7589E-08  0.2204E-03  0.7589E-08  0.7672E-16
      9.099  0.1826E-03  0.6628E-10  0.1390E-04  0.6628E-10  0.1733E-11  0.6175E-15  0.2580E-05  0.6172E-15  0.8943E-18
      9.324  0.3271E-03  0.3693E-04  0.2330E-10  0.3693E-04  0.9656E-06  0.7208E-17  0.3559E-05  0.7213E-17  0.8410E-21
      9.549  0.2650E-01  0.2992E-02  0.9214E-08  0.2992E-02  0.7824E-04  0.4024E-09  0.2883E-03  0.4024E-09  0.7628E-19
      9.774  0.8289E-02  0.1035E-02  0.2842E-03  0.1035E-02  0.3199E-04  0.1221E-04  0.7412E-04  0.1221E-04  0.2528E-15
      9.999  0.4691E-01  0.4245E-02  0.7253E-02  0.4245E-02  0.1969E-03  0.1637E-03  0.1041E-02  0.1637E-03  0.5029E-14
     10.223  0.3409E-01  0.1673E-02  0.4891E-02  0.1673E-02  0.8540E-04  0.4992E-04  0.1113E-02  0.4992E-04  0.2809E-14
     10.448  0.8585E-04  0.4035E-04  0.4568E-04  0.4035E-04  0.1029E-05  0.9701E-06  0.1845E-05  0.9701E-06  0.1062E-16
     10.673  0.4865E-02  0.5812E-02  0.5685E-02  0.5812E-02  0.1188E-03  0.1234E-03  0.3867E-04  0.1234E-03  0.8119E-15
     10.898  0.5141E-01  0.1803E-01  0.1014E-01  0.1803E-01  0.8678E-04  0.3662E-03  0.2192E-02  0.3662E-03  0.6807E-10
     11.122  0.3319E-01  0.1172E-01  0.1124E-01  0.1137E-01  0.1324E-02  0.1349E-03  0.1794E-02  0.1349E-03  0.8707E-05
     11.347  0.6335E-01  0.2311E-01  0.2151E-01  0.1384E-01  0.1081E-02  0.2109E-03  0.3991E-02  0.2105E-03  0.2340E-03
     11.572  0.1298E-01  0.3848E-01  0.2872E-01  0.3752E-01  0.1856E-02  0.5879E-03  0.2489E-02  0.5878E-03  0.2427E-04
     11.797  0.2185E-02  0.6353E-03  0.5475E-03  0.6353E-03  0.9084E-04  0.5931E-05  0.1697E-03  0.5931E-05  0.8494E-09
     12.022  0.6435E-01  0.3610E-02  0.4675E-02  0.3608E-02  0.3208E-02  0.1982E-06  0.4276E-02  0.1236E-06  0.7319E-07
     12.246  0.2607E-01  0.1645E-01  0.8726E-02  0.9141E-02  0.9651E-02  0.3376E-03  0.2238E-02  0.5615E-04  0.2753E-03
     12.471  0.7717E-01  0.4960E-01  0.2924E-01  0.2650E-01  0.2174E-01  0.1962E-02  0.5966E-02  0.1647E-03  0.9358E-03
     12.696  0.5535E-01  0.3759E-01  0.1705E-01  0.3129E-01  0.7320E-01  0.2215E-02  0.3911E-02  0.1009E-03  0.3727E-03
     12.921  0.2367E-01  0.2477E-01  0.5225E-02  0.2523E-01  0.2613E-01  0.3907E-03  0.1972E-02  0.3448E-03  0.2657E-04
     13.145  0.1197E+00  0.1628E-01  0.3423E-02  0.8649E-02  0.3279E-01  0.4031E-03  0.3358E-02  0.1815E-04  0.2676E-03
     13.370  0.1144E+00  0.4720E-02  0.8326E-03  0.1160E-01  0.6005E-01  0.2162E-03  0.1261E-02  0.3000E-03  0.9609E-04
     13.595  0.8133E-01  0.4032E-01  0.4145E-02  0.4887E-01  0.1044E+00  0.1249E-02  0.2630E-02  0.2899E-03  0.9454E-03
     13.820  0.4148E-01  0.9004E-02  0.1156E-03  0.8091E-02  0.2971E-01  0.1475E-03  0.6299E-03  0.1239E-03  0.2306E-03
     14.045  0.3476E-04  0.3875E-05  0.2279E-07  0.2612E-05  0.3748E-02  0.1008E-06  0.2644E-06  0.1029E-06  0.1314E-06
     14.269  0.4725E-02  0.2473E-04  0.1767E-03  0.6252E-03  0.1986E-01  0.1144E-03  0.2193E-04  0.2850E-03  0.1407E-05
     14.494  0.1930E+00  0.3919E-02  0.1587E-01  0.3003E-01  0.1156E+00  0.1338E-01  0.4138E-03  0.8670E-02  0.6664E-03
     14.719  0.1394E+00  0.4419E-02  0.4336E-01  0.1791E-01  0.5343E-01  0.3449E-01  0.1926E-03  0.1233E-01  0.5461E-03
     14.944  0.9486E-01  0.3530E-02  0.2216E-01  0.4973E-02  0.2688E-01  0.2039E-01  0.2551E-03  0.1792E-01  0.4729E-03
     15.168  0.1515E+00  0.3281E-02  0.3039E-01  0.5788E-02  0.4634E-01  0.2952E-01  0.2251E-03  0.2515E-01  0.1929E-03
     15.393  0.2132E+00  0.4125E-02  0.8454E-01  0.1014E-01  0.4000E-01  0.2238E-01  0.1186E-02  0.9660E-02  0.1309E-02
     15.618  0.1270E+00  0.3089E-02  0.3083E-01  0.1212E-01  0.3912E-02  0.7087E-02  0.9346E-03  0.3845E-02  0.7259E-03
     15.843  0.8107E-01  0.4390E-02  0.7625E-01  0.4389E-02  0.4871E-03  0.1431E-01  0.7693E-03  0.1384E-01  0.4623E-04
     16.068  0.1705E+00  0.5701E-02  0.1108E+00  0.5441E-02  0.2252E-02  0.6682E-02  0.7047E-03  0.5094E-02  0.3279E-03
     16.292  0.1188E+00  0.4207E-03  0.5983E-01  0.2037E-01  0.4322E-02  0.3784E-02  0.2699E-03  0.1244E-02  0.6860E-03
     16.517  0.2726E-01  0.1824E-03  0.8784E-02  0.5796E-02  0.1216E-01  0.9013E-03  0.7356E-04  0.1965E-03  0.2672E-03
     16.742  0.1992E+00  0.1231E-01  0.9839E-01  0.1500E-01  0.1547E-01  0.8680E-03  0.1240E-02  0.4238E-03  0.2631E-02
     16.967  0.1044E+00  0.7418E-02  0.8892E-01  0.7753E-02  0.4204E-02  0.3140E-02  0.1780E-02  0.3085E-02  0.3267E-03
     17.191  0.7906E-02  0.8080E-03  0.1117E-01  0.8081E-03  0.5581E-02  0.5502E-02  0.1222E-03  0.5502E-02  0.1510E-07
     17.416  0.7998E-04  0.1811E-04  0.1017E-03  0.1811E-04  0.3042E-04  0.2404E-04  0.2299E-07  0.2404E-04  0.1809E-10
     17.641  0.4047E-01  0.9284E-02  0.4590E-01  0.9217E-02  0.3609E-02  0.1389E-02  0.2976E-03  0.1372E-02  0.1157E-04
     17.866  0.1263E+00  0.3153E-01  0.1268E+00  0.2547E-01  0.2863E-02  0.5175E-02  0.4522E-02  0.3659E-02  0.1045E-02