    2    2   50    1
  0.9573706E+01  0.3002906E-09  0.3002906E-09  0.3002906E-09  0.5000000E-15
  1.000000000000000E-004
  CAR 
 unknown system                          
      8     29     18
 
  0.0000000E+00  0.0000000E+00  0.0000000E+00  0.1953125E-02
    1      -14.134445   1.000000
    2        3.004687   1.000000
    3        3.004687   1.000000
    4        3.004694   1.000000
    5        7.495383   0.000000
    6       18.664790   0.000000
    7       18.664790   0.000000
    8       18.664791   0.000000
    9       22.517262   0.000000
   10       24.263114   0.000000
   11       24.263115   0.000000
   12       26.781539   0.000000
   13       26.781539   0.000000
   14       26.781556   0.000000
   15       40.783595   0.000000
   16       40.783595   0.000000
   17       40.783755   0.000000
   18       41.188381   0.000000
 
  0.1250000E+00  0.0000000E+00  0.0000000E+00  0.1562500E-01
    1      -13.978232   1.000000
    2        2.059119   1.000000
    3        2.905998   1.000000
    4        2.906003   1.000000
    5        8.412755   0.000000
    6       16.993383   0.000000
    7       19.008716   0.000000
    8       19.008719   0.000000
    9       23.254233   0.000000
   10       23.254233   0.000000
   11       24.591980   0.000000
   12       27.023614   0.000000
   13       28.454527   0.000000
   14       28.454546   0.000000
   15       38.720939   0.000000
   16       40.628024   0.000000
   17       40.628144   0.000000
   18       43.069939   0.000000
 
  0.2500000E+00  0.0000000E+00  0.0000000E+00  0.1562500E-01
    1      -13.572954   1.000000
    2        0.391846   1.000000
    3        2.678378   1.000000
    4        2.678382   1.000000
    5        9.869476   0.000000
    6       15.422417   0.000000
    7       19.453015   0.000000
    8       19.453021   0.000000
    9       22.868407   0.000000
   10       22.868409   0.000000
   11       24.592308   0.000000
   12       30.472686   0.000000
   13       31.038248   0.000000
   14       31.038281   0.000000
   15       36.724441   0.000000
   16       39.433063   0.000000
   17       39.433101   0.000000
   18       45.632766   0.000000
 
  0.3750000E+00  0.0000000E+00  0.0000000E+00  0.1562500E-01
    1      -13.118347   1.000000
    2       -0.974006   1.000000
    3        2.463960   1.000000
    4        2.463963   1.000000
    5       10.627601   0.000000
    6       15.147064   0.000000
    7       19.239756   0.000000
    8       19.239763   0.000000
    9       23.823692   0.000000
   10       24.169615   0.000000
   11       24.169626   0.000000
   12       31.677048   0.000000
   13       33.000120   0.000000
   14       33.000162   0.000000
   15       36.615978   0.000000
   16       36.615979   0.000000
   17       39.335946   0.000000
   18       47.045155   0.000000
 
  0.5000000E+00  0.0000000E+00  0.0000000E+00  0.7812500E-02
    1      -12.911091   1.000000
    2       -1.504905   1.000000
    3        2.378573   1.000000
    4        2.378576   1.000000
    5       10.746266   0.000000
    6       15.332964   0.000000
    7       19.062444   0.000000
    8       19.062451   0.000000
    9       23.527917   0.000000
   10       25.197292   0.000000
   11       25.197311   0.000000
   12       31.111879   0.000000
   13       33.475661   0.000000
   14       33.475661   0.000000
   15       35.192713   0.000000
   16       35.192749   0.000000
   17       44.943136   0.000000
   18       46.592269   0.000000
 
  0.1250000E+00  0.1250000E+00  0.0000000E+00  0.1171875E-01
    1      -13.928266   1.000000
    2        1.980025   1.000000
    3        2.779417   1.000000
    4        2.779421   1.000000
    5        8.707879   0.000000
    6       16.515869   0.000000
    7       19.144435   0.000000
    8       19.144439   0.000000
    9       21.550295   0.000000
   10       24.735187   0.000000
   11       25.703370   0.000000
   12       27.548480   0.000000
   13       27.548488   0.000000
   14       28.999856   0.000000
   15       38.865885   0.000000
   16       40.098381   0.000000
   17       40.098466   0.000000
   18       43.902722   0.000000
 
  0.2500000E+00  0.1250000E+00  0.0000000E+00  0.4687500E-01
    1      -13.611438   1.000000
    2        0.776560   1.000000
    3        2.535614   1.000000
    4        2.539420   1.000000
    5       10.001501   0.000000
    6       15.173816   0.000000
    7       19.133154   0.000000
    8       19.615066   0.000000
    9       20.789059   0.000000
   10       24.634513   0.000000
   11       26.627972   0.000000
   12       29.724968   0.000000
   13       30.012079   0.000000
   14       30.764740   0.000000
   15       36.987705   0.000000
   16       38.755918   0.000000
   17       40.658316   0.000000
   18       45.377220   0.000000
 
  0.3750000E+00  0.1250000E+00  0.0000000E+00  0.4687500E-01
    1      -13.175184   1.000000
    2       -0.513080   1.000000
    3        2.180673   1.000000
    4        2.332877   1.000000
    5       11.094653   0.000000
    6       14.756815   0.000000
    7       18.138990   0.000000
    8       19.651118   0.000000
    9       22.070348   0.000000
   10       25.229047   0.000000
   11       26.077069   0.000000
   12       31.661219   0.000000
   13       32.716932   0.000000
   14       32.745178   0.000000
   15       35.640101   0.000000
   16       37.933722   0.000000
   17       40.824763   0.000000
   18       44.451119   0.000000
 
  0.5000000E+00  0.1250000E+00  0.0000000E+00  0.4687500E-01
    1      -12.879408   1.000000
    2       -1.244127   1.000000
    3        1.894126   1.000000
    4        2.268754   1.000000
    5       11.417839   0.000000
    6       15.141252   0.000000
    7       17.627755   0.000000
    8       19.443541   0.000000
    9       23.433216   0.000000
   10       25.684054   0.000000
   11       25.775037   0.000000
   12       32.059128   0.000000
   13       32.656456   0.000000
   14       33.004858   0.000000
   15       35.581987   0.000000
   16       37.292563   0.000000
   17       43.976528   0.000000
   18       47.168567   0.000000
 
 -0.3750000E+00  0.1250000E+00  0.0000000E+00  0.4687500E-01
    1      -12.945156   1.000000
    2       -1.078423   1.000000
    3        1.830439   1.000000
    4        2.378349   1.000000
    5       11.399382   0.000000
    6       15.082228   0.000000
    7       17.721707   0.000000
    8       19.513330   0.000000
    9       24.059404   0.000000
   10       24.268994   0.000000
   11       25.755754   0.000000
   12       32.305497   0.000000
   13       32.578544   0.000000
   14       33.953312   0.000000
   15       34.393742   0.000000
   16       38.414792   0.000000
   17       42.041768   0.000000
   18       45.124141   0.000000
 
 -0.2500000E+00  0.1250000E+00  0.0000000E+00  0.4687500E-01
    1      -13.319791   1.000000
    2       -0.111617   1.000000
    3        2.044966   1.000000
    4        2.608200   1.000000
    5       10.829333   0.000000
    6       14.932156   0.000000
    7       18.338465   0.000000
    8       20.006447   0.000000
    9       21.827975   0.000000
   10       24.058003   0.000000
   11       26.169985   0.000000
   12       30.831930   0.000000
   13       32.107770   0.000000
   14       32.979907   0.000000
   15       35.353120   0.000000
   16       38.649924   0.000000
   17       41.269776   0.000000
   18       43.397792   0.000000
 
 -0.1250000E+00  0.1250000E+00  0.0000000E+00  0.2343750E-01
    1      -13.740391   1.000000
    2        1.159676   1.000000
    3        2.495879   1.000000
    4        2.831667   1.000000
    5        9.489319   0.000000
    6       15.784949   0.000000
    7       18.965447   0.000000
    8       19.694516   0.000000
    9       21.597777   0.000000
   10       23.577421   0.000000
   11       26.153527   0.000000
   12       28.348434   0.000000
   13       29.584210   0.000000
   14       30.514855   0.000000
   15       36.956996   0.000000
   16       39.794672   0.000000
   17       41.304488   0.000000
   18       43.957375   0.000000
 
  0.2500000E+00  0.2500000E+00  0.0000000E+00  0.1171875E-01
    1      -13.416959   1.000000
    2        0.420437   1.000000
    3        2.288103   1.000000
    4        2.288106   1.000000
    5       10.824916   0.000000
    6       14.105621   0.000000
    7       18.217253   0.000000
    8       20.206727   0.000000
    9       20.206740   0.000000
   10       26.108839   0.000000
   11       29.843987   0.000000
   12       29.843991   0.000000
   13       30.260443   0.000000
   14       31.223123   0.000000
   15       38.018428   0.000000
   16       38.350100   0.000000
   17       38.350140   0.000000
   18       44.441733   0.000000
 
  0.3750000E+00  0.2500000E+00  0.0000000E+00  0.4687500E-01
    1      -13.082012   1.000000
    2       -0.297649   1.000000
    3        1.844601   1.000000
    4        2.077567   1.000000
    5       11.931565   0.000000
    6       13.578491   0.000000
    7       16.882299   0.000000
    8       20.512037   0.000000
    9       20.969172   0.000000
   10       26.815339   0.000000
   11       29.914663   0.000000
   12       30.183821   0.000000
   13       32.097126   0.000000
   14       34.590089   0.000000
   15       36.249016   0.000000
   16       37.660611   0.000000
   17       40.772262   0.000000
   18       43.234616   0.000000
 
  0.5000000E+00  0.2500000E+00  0.0000000E+00  0.4687500E-01
    1      -12.796024   1.000000
    2       -0.721797   1.000000
    3        1.142345   1.000000
    4        2.017402   1.000000
    5       12.530608   0.000000
    6       14.365947   0.000000
    7       16.047185   0.000000
    8       20.344746   0.000000
    9       21.479651   0.000000
   10       27.172233   0.000000
   11       29.333816   0.000000
   12       30.581084   0.000000
   13       32.026145   0.000000
   14       34.634027   0.000000
   15       36.604745   0.000000
   16       40.779983   0.000000
   17       43.264264   0.000000
   18       44.543924   0.000000
 
 -0.3750000E+00  0.2500000E+00  0.0000000E+00  0.4687500E-01
    1      -12.750894   1.000000
    2       -0.657577   1.000000
    3        0.690343   1.000000
    4        2.136733   1.000000
    5       12.770606   0.000000
    6       14.944263   0.000000
    7       15.845686   0.000000
    8       20.160278   0.000000
    9       22.243769   0.000000
   10       25.270505   0.000000
   11       28.842728   0.000000
   12       31.388276   0.000000
   13       31.812726   0.000000
   14       35.148457   0.000000
   15       37.030874   0.000000
   16       39.908526   0.000000
   17       42.831856   0.000000
   18       45.913568   0.000000
 
 -0.2500000E+00  0.2500000E+00  0.0000000E+00  0.2343750E-01
    1      -12.978457   1.000000
    2       -0.417232   1.000000
    3        1.062718   1.000000
    4        2.378119   1.000000
    5       12.258126   0.000000
    6       14.640382   0.000000
    7       16.739167   0.000000
    8       20.221942   0.000000
    9       22.774133   0.000000
   10       23.674688   0.000000
   11       28.299214   0.000000
   12       31.202349   0.000000
   13       32.300777   0.000000
   14       33.769031   0.000000
   15       36.552053   0.000000
   16       40.844308   0.000000
   17       41.131877   0.000000
   18       43.201970   0.000000
 
  0.3750000E+00  0.3750000E+00  0.0000000E+00  0.1171875E-01
    1      -12.886262   1.000000
    2       -0.631653   1.000000
    3        1.855671   1.000000
    4        1.855673   1.000000
    5       12.424283   0.000000
    6       12.600671   0.000000
    7       16.142651   0.000000
    8       21.195840   0.000000
    9       21.195861   0.000000
   10       28.141710   0.000000
   11       28.861484   0.000000
   12       32.725816   0.000000
   13       32.725818   0.000000
   14       37.504805   0.000000
   15       37.504812   0.000000
   16       37.900749   0.000000
   17       39.309463   0.000000
   18       39.826939   0.000000
 
  0.5000000E+00  0.3750000E+00  0.0000000E+00  0.4687500E-01
    1      -12.703060   1.000000
    2       -0.779761   1.000000
    3        1.326424   1.000000
    4        1.783120   1.000000
    5       12.524671   0.000000
    6       13.201130   0.000000
    7       15.727812   0.000000
    8       21.221318   0.000000
    9       21.232759   0.000000
   10       28.695914   0.000000
   11       29.134676   0.000000
   12       31.715335   0.000000
   13       32.427035   0.000000
   14       37.580795   0.000000
   15       37.957618   0.000000
   16       40.889146   0.000000
   17       42.120230   0.000000
   18       42.968429   0.000000
 
 -0.3750000E+00  0.3750000E+00  0.0000000E+00  0.2343750E-01
    1      -12.647448   1.000000
    2       -0.400363   1.000000
    3        0.363043   1.000000
    4        1.894393   1.000000
    5       12.971662   0.000000
    6       14.497650   0.000000
    7       15.312200   0.000000
    8       20.788018   0.000000
    9       20.953290   0.000000
   10       27.842185   0.000000
   11       29.803125   0.000000
   12       30.786408   0.000000
   13       31.122226   0.000000
   14       37.992764   0.000000
   15       38.833427   0.000000
   16       40.123851   0.000000
   17       43.561973   0.000000
   18       45.015517   0.000000
 
  0.5000000E+00  0.5000000E+00  0.0000000E+00  0.5859375E-02
    1      -12.661982   1.000000
    2       -0.979018   1.000000
    3        1.690452   1.000000
    4        1.690454   1.000000
    5       12.094279   0.000000
    6       12.708280   0.000000
    7       15.844255   0.000000
    8       21.604485   0.000000
    9       21.604514   0.000000
   10       27.838585   0.000000
   11       29.525266   0.000000
   12       33.380046   0.000000
   13       33.380047   0.000000
   14       36.890928   0.000000
   15       39.671263   0.000000
   16       39.671263   0.000000
   17       41.189881   0.000000
   18       43.559472   0.000000
 
  0.3750000E+00  0.2500000E+00  0.1250000E+00  0.4687500E-01
    1      -13.283013   1.000000
    2        0.046545   1.000000
    3        1.886312   1.000000
    4        2.411809   1.000000
    5       11.252767   0.000000
    6       14.389000   0.000000
    7       17.809331   0.000000
    8       20.262916   0.000000
    9       20.886544   0.000000
   10       25.154384   0.000000
   11       28.411001   0.000000
   12       30.096021   0.000000
   13       31.365439   0.000000
   14       33.835391   0.000000
   15       35.221794   0.000000
   16       38.847865   0.000000
   17       40.568798   0.000000
   18       44.179974   0.000000
 
  0.5000000E+00  0.2500000E+00  0.1250000E+00  0.9375000E-01
    1      -12.925183   1.000000
    2       -0.618931   1.000000
    3        1.326809   1.000000
    4        2.167096   1.000000
    5       12.290667   0.000000
    6       14.486395   0.000000
    7       16.654187   0.000000
    8       19.849047   0.000000
    9       22.419807   0.000000
   10       25.092800   0.000000
   11       28.622986   0.000000
   12       31.416381   0.000000
   13       31.999855   0.000000
   14       34.663736   0.000000
   15       35.305785   0.000000
   16       40.804919   0.000000
   17       42.045570   0.000000
   18       42.442258   0.000000
 
 -0.3750000E+00  0.2500000E+00  0.1250000E+00  0.4687500E-01
    1      -12.766659   1.000000
    2       -0.900129   1.000000
    3        1.124674   1.000000
    4        2.050696   1.000000
    5       12.502966   0.000000
    6       14.965029   0.000000
    7       16.236523   0.000000
    8       19.602418   0.000000
    9       23.241270   0.000000
   10       24.753746   0.000000
   11       28.771796   0.000000
   12       31.340243   0.000000
   13       32.137137   0.000000
   14       34.077804   0.000000
   15       37.600959   0.000000
   16       38.168380   0.000000
   17       45.168992   0.000000
   18       45.747734   0.000000
 
  0.5000000E+00  0.3750000E+00  0.1250000E+00  0.4687500E-01
    1      -12.825016   1.000000
    2       -0.562147   1.000000
    3        1.357277   1.000000
    4        1.795196   1.000000
    5       13.019144   0.000000
    6       13.316785   0.000000
    7       15.928645   0.000000
    8       20.151758   0.000000
    9       21.882814   0.000000
   10       27.093943   0.000000
   11       29.902672   0.000000
   12       31.309576   0.000000
   13       32.173068   0.000000
   14       36.128073   0.000000
   15       36.212435   0.000000
   16       40.296963   0.000000
   17       41.126804   0.000000
   18       44.576753   0.000000
 
 -0.3750000E+00  0.3750000E+00  0.1250000E+00  0.9375000E-01
    1      -12.666430   1.000000
    2       -0.415431   1.000000
    3        0.584365   1.000000
    4        1.666200   1.000000
    5       13.448656   0.000000
    6       14.484374   0.000000
    7       15.275851   0.000000
    8       19.284995   0.000000
    9       22.731172   0.000000
   10       26.183971   0.000000
   11       29.745076   0.000000
   12       31.171136   0.000000
   13       32.434372   0.000000
   14       36.113620   0.000000
   15       38.678936   0.000000
   16       40.897981   0.000000
   17       42.602736   0.000000
   18       43.990580   0.000000
 
 -0.2500000E+00  0.3750000E+00  0.1250000E+00  0.4687500E-01
    1      -12.710376   1.000000
    2       -0.298075   1.000000
    3        0.379916   1.000000
    4        1.856629   1.000000
    5       13.554372   0.000000
    6       14.564191   0.000000
    7       15.435410   0.000000
    8       19.344254   0.000000
    9       23.613277   0.000000
   10       24.242384   0.000000
   11       30.423130   0.000000
   12       31.119564   0.000000
   13       31.639578   0.000000
   14       36.533088   0.000000
   15       36.775167   0.000000
   16       41.468719   0.000000
   17       42.097611   0.000000
   18       45.039364   0.000000
 
 -0.3750000E+00  0.5000000E+00  0.1250000E+00  0.2343750E-01
    1      -12.637274   1.000000
    2       -0.684817   1.000000
    3        1.156559   1.000000
    4        1.479525   1.000000
    5       12.933180   0.000000
    6       13.581034   0.000000
    7       15.524087   0.000000
    8       19.984304   0.000000
    9       22.272163   0.000000
   10       28.582672   0.000000
   11       28.962341   0.000000
   12       30.393879   0.000000
   13       33.729144   0.000000
   14       38.296361   0.000000
   15       38.814787   0.000000
   16       41.052911   0.000000
   17       41.803654   0.000000
   18       42.682768   0.000000
 
 -0.2500000E+00  0.5000000E+00  0.2500000E+00  0.1171875E-01
    1      -12.612929   1.000000
    2        0.126676   1.000000
    3        0.126679   1.000000
    4        1.279805   1.000000
    5       14.485865   0.000000
    6       14.485876   0.000000
    7       14.873791   0.000000
    8       18.191095   0.000000
    9       24.619745   0.000000
   10       24.619752   0.000000
   11       28.918448   0.000000
   12       31.487186   0.000000
   13       34.241695   0.000000
   14       37.076592   0.000000
   15       39.998452   0.000000
   16       39.998453   0.000000
   17       41.949210   0.000000
   18       43.421817   0.000000
