       N       E                     dE             d eps       ncg     rms          rms(c)
DAV:   1    -0.118719153373E+00   -0.11872E+00   -0.48772E+03  1062   0.390E+02
DAV:   2    -0.134461201241E+02   -0.13327E+02   -0.13327E+02  1512   0.572E+01
DAV:   3    -0.134688300123E+02   -0.22710E-01   -0.22710E-01  1098   0.289E+00
DAV:   4    -0.134688425535E+02   -0.12541E-04   -0.12541E-04  1872   0.605E-02
DAV:   5    -0.134688425536E+02   -0.10778E-09   -0.10752E-09  1098   0.144E-04    0.720E+00
DAV:   6    -0.119319577807E+02    0.15369E+01   -0.10254E+01  1062   0.997E+00    0.228E+00
DAV:   7    -0.119179944050E+02    0.13963E-01   -0.52777E-02  1422   0.135E+00    0.133E+00
DAV:   8    -0.119118251277E+02    0.61693E-02   -0.26556E-02  1440   0.109E+00    0.180E-01
DAV:   9    -0.119117076394E+02    0.11749E-03   -0.14234E-04  1386   0.535E-02    0.123E-01
DAV:  10    -0.119117596932E+02   -0.52054E-04   -0.24542E-04  1314   0.735E-02    0.649E-03
DAV:  11    -0.119117597593E+02   -0.66144E-07   -0.82275E-06  1350   0.114E-02    0.336E-03
DAV:  12    -0.119117597439E+02    0.15464E-07   -0.34603E-07  1458   0.261E-03
   1 F= -.11911760E+02 E0= -.11911760E+02  d E =-.119118E+02
