 vasp.5.4.4.18Apr17-6-g9f103f2a35 (build Apr 25 2017 10:43:04) complex          
  
 executed on             LinuxIFC date 2019.10.28  21:34:32
 running on   36 total cores
 distrk:  each k-point on   18 cores,    2 groups
 distr:  one band on NCORES_PER_BAND=   1 cores,   18 groups


--------------------------------------------------------------------------------------------------------


 INCAR:
 POTCAR:    PAW_PBE Mg 13Apr2007                  
 POTCAR:    PAW_PBE O 08Apr2002                   

 ----------------------------------------------------------------------------- 
|                                                                             |
|           W    W    AA    RRRRR   N    N  II  N    N   GGGG   !!!           |
|           W    W   A  A   R    R  NN   N  II  NN   N  G    G  !!!           |
|           W    W  A    A  R    R  N N  N  II  N N  N  G       !!!           |
|           W WW W  AAAAAA  RRRRR   N  N N  II  N  N N  G  GGG   !            |
|           WW  WW  A    A  R   R   N   NN  II  N   NN  G    G                |
|           W    W  A    A  R    R  N    N  II  N    N   GGGG   !!!           |
|                                                                             |
|      For optimal performance we recommend to set                            |
|        NCORE= 4 - approx SQRT( number of cores)                             |
|      NCORE specifies how many cores store one orbital (NPAR=cpu/NCORE).     |
|      This setting can  greatly improve the performance of VASP for DFT.     |
|      The default,   NCORE=1            might be grossly inefficient         |
|      on modern multi-core architectures or massively parallel machines.     |
|      Do your own testing !!!!                                               |
|      Unfortunately you need to use the default for GW and RPA calculations. |
|      (for HF NCORE is supported but not extensively tested yet)             |
|                                                                             |
 ----------------------------------------------------------------------------- 


 ----------------------------------------------------------------------------- 
|                                                                             |
|           W    W    AA    RRRRR   N    N  II  N    N   GGGG   !!!           |
|           W    W   A  A   R    R  NN   N  II  NN   N  G    G  !!!           |
|           W    W  A    A  R    R  N N  N  II  N N  N  G       !!!           |
|           W WW W  AAAAAA  RRRRR   N  N N  II  N  N N  G  GGG   !            |
|           WW  WW  A    A  R   R   N   NN  II  N   NN  G    G                |
|           W    W  A    A  R    R  N    N  II  N    N   GGGG   !!!           |
|                                                                             |
|      You have enabled k-point parallelism (KPAR>1).                         |
|      This developmental code was originally  written by Paul Kent at ORNL,  |
|      and carefully double checked in Vienna.                                |
|      GW as well as linear response parallelism added by Martijn Marsman     |
|      and Georg Kresse.                                                      |
|      Carefully verify results versus KPAR=1.                                |
|      Report problems to Paul Kent and Vienna.                               |
|                                                                             |
 ----------------------------------------------------------------------------- 

 POTCAR:    PAW_PBE Mg 13Apr2007                  
   VRHFIN =Mg: s2p0                                                             
   LEXCH  = PE                                                                  
   EATOM  =    23.0369 eV,    1.6932 Ry                                         
                                                                                
   TITEL  = PAW_PBE Mg 13Apr2007                                                
   LULTRA =        F    use ultrasoft PP ?                                      
   IUNSCR =        1    unscreen: 0-lin 1-nonlin 2-no                           
   RPACOR =    1.500    partial core radius                                     
   POMASS =   24.305; ZVAL   =    2.000    mass and valenz                      
   RCORE  =    2.000    outmost cutoff radius                                   
   RWIGS  =    2.880; RWIGS  =    1.524    wigner-seitz radius (au A)           
   ENMAX  =  200.000; ENMIN  =  100.000 eV                                      
   RCLOC  =    1.506    cutoff for local pot                                    
   LCOR   =        T    correct aug charges                                     
   LPAW   =        T    paw PP                                                  
   EAUG   =  454.734                                                            
   DEXC   =    0.000                                                            
   RMAX   =    2.045    core radius for proj-oper                               
   RAUG   =    1.300    factor for augmentation sphere                          
   RDEP   =    2.025    radius for radial grids                                 
   RDEPT  =    1.942    core radius for aug-charge                              
                                                                                
   Atomic configuration                                                         
    6 entries                                                                   
     n  l   j            E        occ.                                          
     1  0  0.50     -1259.6230   2.0000                                         
     2  0  0.50       -79.8442   2.0000                                         
     2  1  1.50       -46.6121   6.0000                                         
     3  0  0.50        -4.7055   2.0000                                         
     3  1  0.50        -1.3660   0.0000                                         
     3  2  1.50        -1.3606   0.0000                                         
   Description                                                                  
     l       E           TYP  RCUT    TYP  RCUT                                 
     0     -4.7054661     23  2.000                                             
     0     27.2116520     23  2.000                                             
     1      1.3605826     23  2.000                                             
     1     27.2116520     23  2.000                                             
     2     -1.3605826     23  2.000                                             
  local pseudopotential read in
  partial core-charges read in
  partial kinetic energy density read in
  atomic valenz-charges read in
  non local Contribution for L=           0  read in
    real space projection operators read in
  non local Contribution for L=           0  read in
    real space projection operators read in
  non local Contribution for L=           1  read in
    real space projection operators read in
  non local Contribution for L=           1  read in
    real space projection operators read in
  non local Contribution for L=           2  read in
    real space projection operators read in
    PAW grid and wavefunctions read in
 
   number of l-projection  operators is LMAX  =           5
   number of lm-projection operators is LMMAX =          13
 
 POTCAR:    PAW_PBE O 08Apr2002                   
   VRHFIN =O: s2p4                                                              
   LEXCH  = PE                                                                  
   EATOM  =   432.3788 eV,   31.7789 Ry                                         
                                                                                
   TITEL  = PAW_PBE O 08Apr2002                                                 
   LULTRA =        F    use ultrasoft PP ?                                      
   IUNSCR =        1    unscreen: 0-lin 1-nonlin 2-no                           
   RPACOR =    1.200    partial core radius                                     
   POMASS =   16.000; ZVAL   =    6.000    mass and valenz                      
   RCORE  =    1.520    outmost cutoff radius                                   
   RWIGS  =    1.550; RWIGS  =    0.820    wigner-seitz radius (au A)           
   ENMAX  =  400.000; ENMIN  =  300.000 eV                                      
   ICORE  =        2    local potential                                         
   LCOR   =        T    correct aug charges                                     
   LPAW   =        T    paw PP                                                  
   EAUG   =  605.392                                                            
   DEXC   =    0.000                                                            
   RMAX   =    1.553    core radius for proj-oper                               
   RAUG   =    1.300    factor for augmentation sphere                          
   RDEP   =    1.550    radius for radial grids                                 
   RDEPT  =    1.329    core radius for aug-charge                              
                                                                                
   Atomic configuration                                                         
    4 entries                                                                   
     n  l   j            E        occ.                                          
     1  0  0.50      -514.6923   2.0000                                         
     2  0  0.50       -23.9615   2.0000                                         
     2  1  0.50        -9.0305   4.0000                                         
     3  2  1.50        -9.5241   0.0000                                         
   Description                                                                  
     l       E           TYP  RCUT    TYP  RCUT                                 
     0    -23.9615318     23  1.200                                             
     0     -9.5240782     23  1.200                                             
     1     -9.0304911     23  1.520                                             
     1      8.1634956     23  1.520                                             
     2     -9.5240782      7  1.500                                             
  local pseudopotential read in
  partial core-charges read in
  partial kinetic energy density read in
  kinetic energy density of atom read in
  atomic valenz-charges read in
  non local Contribution for L=           0  read in
    real space projection operators read in
  non local Contribution for L=           0  read in
    real space projection operators read in
  non local Contribution for L=           1  read in
    real space projection operators read in
  non local Contribution for L=           1  read in
    real space projection operators read in
    PAW grid and wavefunctions read in
 
   number of l-projection  operators is LMAX  =           4
   number of lm-projection operators is LMMAX =           8
 
  PAW_PBE Mg 13Apr2007                  :
 energy of atom  1       EATOM=  -23.0369
 kinetic energy error for atom=    0.0000 (will be added to EATOM!!)
  PAW_PBE O 08Apr2002                   :
 energy of atom  2       EATOM= -432.3788
 kinetic energy error for atom=    0.0208 (will be added to EATOM!!)
 
 
 POSCAR: Mg1 O1                                  
  positions in direct lattice
  No initial velocities read in
 exchange correlation table for  LEXCH =        8
   RHO(1)=    0.500       N(1)  =     2000
   RHO(2)=  100.500       N(2)  =     4000
 


--------------------------------------------------------------------------------------------------------


 ion  position               nearest neighbor table
   1  0.000  0.000  0.000-   2 2.12   2 2.12   2 2.12   2 2.12   2 2.12   2 2.12
   2  0.500  0.500  0.500-   1 2.12   1 2.12   1 2.12   1 2.12   1 2.12   1 2.12
 
  LATTYP: Found a face centered cubic cell.
 ALAT       =     4.2467500000
  
  Lattice vectors:
  
 A1 = (   0.0000000000,   2.1233750000,   2.1233750000)
 A2 = (   2.1233750000,   0.0000000000,   2.1233750000)
 A3 = (   2.1233750000,   2.1233750000,   0.0000000000)


Analysis of symmetry for initial positions (statically):
=====================================================================
 Subroutine PRICEL returns:
 Original cell was already a primitive cell.
 

 Routine SETGRP: Setting up the symmetry group for a 
 face centered cubic supercell.


 Subroutine GETGRP returns: Found 48 space group operations
 (whereof 48 operations were pure point group operations)
 out of a pool of 48 trial point group operations.


The static configuration has the point symmetry O_h .


Analysis of symmetry for dynamics (positions and initial velocities):
=====================================================================
 Subroutine PRICEL returns:
 Original cell was already a primitive cell.
 

 Routine SETGRP: Setting up the symmetry group for a 
 face centered cubic supercell.


 Subroutine GETGRP returns: Found 48 space group operations
 (whereof 48 operations were pure point group operations)
 out of a pool of 48 trial point group operations.


The dynamic configuration has the point symmetry O_h .


 Subroutine INISYM returns: Found 48 space group operations
 (whereof 48 operations are pure point group operations),
 and found     1 'primitive' translations

 
 
 KPOINTS: Generated by vise. Mode: primitive_unifo

Automatic generation of k-mesh.
Space group operators:
 irot       det(A)        alpha          n_x          n_y          n_z        tau_x        tau_y        tau_z
    1     1.000000     0.000000     1.000000     0.000000     0.000000     0.000000     0.000000     0.000000
    2    -1.000000     0.000000     1.000000     0.000000     0.000000     0.000000     0.000000     0.000000
    3     1.000000   120.000000    -0.577350    -0.577350    -0.577350     0.000000     0.000000     0.000000
    4    -1.000000   120.000000    -0.577350    -0.577350    -0.577350     0.000000     0.000000     0.000000
    5     1.000000   120.000000     0.577350     0.577350     0.577350     0.000000     0.000000     0.000000
    6    -1.000000   120.000000     0.577350     0.577350     0.577350     0.000000     0.000000     0.000000
    7     1.000000    90.000000     0.000000     0.000000    -1.000000     0.000000     0.000000     0.000000
    8    -1.000000    90.000000     0.000000     0.000000    -1.000000     0.000000     0.000000     0.000000
    9     1.000000   180.000000     0.000000     0.707107     0.707107     0.000000     0.000000     0.000000
   10    -1.000000   180.000000     0.000000     0.707107     0.707107     0.000000     0.000000     0.000000
   11     1.000000    90.000000     0.000000     1.000000     0.000000     0.000000     0.000000     0.000000
   12    -1.000000    90.000000     0.000000     1.000000     0.000000     0.000000     0.000000     0.000000
   13     1.000000   180.000000     0.000000     0.000000     1.000000     0.000000     0.000000     0.000000
   14    -1.000000   180.000000     0.000000     0.000000     1.000000     0.000000     0.000000     0.000000
   15     1.000000   120.000000    -0.577350     0.577350     0.577350     0.000000     0.000000     0.000000
   16    -1.000000   120.000000    -0.577350     0.577350     0.577350     0.000000     0.000000     0.000000
   17     1.000000   120.000000    -0.577350     0.577350    -0.577350     0.000000     0.000000     0.000000
   18    -1.000000   120.000000    -0.577350     0.577350    -0.577350     0.000000     0.000000     0.000000
   19     1.000000    90.000000     0.000000     0.000000     1.000000     0.000000     0.000000     0.000000
   20    -1.000000    90.000000     0.000000     0.000000     1.000000     0.000000     0.000000     0.000000
   21     1.000000    90.000000    -1.000000     0.000000     0.000000     0.000000     0.000000     0.000000
   22    -1.000000    90.000000    -1.000000     0.000000     0.000000     0.000000     0.000000     0.000000
   23     1.000000   180.000000     0.707107     0.000000     0.707107     0.000000     0.000000     0.000000
   24    -1.000000   180.000000     0.707107     0.000000     0.707107     0.000000     0.000000     0.000000
   25     1.000000   120.000000     0.577350    -0.577350     0.577350     0.000000     0.000000     0.000000
   26    -1.000000   120.000000     0.577350    -0.577350     0.577350     0.000000     0.000000     0.000000
   27     1.000000   120.000000    -0.577350    -0.577350     0.577350     0.000000     0.000000     0.000000
   28    -1.000000   120.000000    -0.577350    -0.577350     0.577350     0.000000     0.000000     0.000000
   29     1.000000   180.000000     1.000000     0.000000     0.000000     0.000000     0.000000     0.000000
   30    -1.000000   180.000000     1.000000     0.000000     0.000000     0.000000     0.000000     0.000000
   31     1.000000    90.000000     0.000000    -1.000000     0.000000     0.000000     0.000000     0.000000
   32    -1.000000    90.000000     0.000000    -1.000000     0.000000     0.000000     0.000000     0.000000
   33     1.000000   180.000000     0.707107     0.707107     0.000000     0.000000     0.000000     0.000000
   34    -1.000000   180.000000     0.707107     0.707107     0.000000     0.000000     0.000000     0.000000
   35     1.000000    90.000000     1.000000     0.000000     0.000000     0.000000     0.000000     0.000000
   36    -1.000000    90.000000     1.000000     0.000000     0.000000     0.000000     0.000000     0.000000
   37     1.000000   120.000000     0.577350    -0.577350    -0.577350     0.000000     0.000000     0.000000
   38    -1.000000   120.000000     0.577350    -0.577350    -0.577350     0.000000     0.000000     0.000000
   39     1.000000   180.000000     0.000000     1.000000     0.000000     0.000000     0.000000     0.000000
   40    -1.000000   180.000000     0.000000     1.000000     0.000000     0.000000     0.000000     0.000000
   41     1.000000   120.000000     0.577350     0.577350    -0.577350     0.000000     0.000000     0.000000
   42    -1.000000   120.000000     0.577350     0.577350    -0.577350     0.000000     0.000000     0.000000
   43     1.000000   180.000000     0.000000    -0.707107     0.707107     0.000000     0.000000     0.000000
   44    -1.000000   180.000000     0.000000    -0.707107     0.707107     0.000000     0.000000     0.000000
   45     1.000000   180.000000     0.707107    -0.707107     0.000000     0.000000     0.000000     0.000000
   46    -1.000000   180.000000     0.707107    -0.707107     0.000000     0.000000     0.000000     0.000000
   47     1.000000   180.000000     0.707107     0.000000    -0.707107     0.000000     0.000000     0.000000
   48    -1.000000   180.000000     0.707107     0.000000    -0.707107     0.000000     0.000000     0.000000
 
 Subroutine IBZKPT returns following result:
 ===========================================
 
 Found     29 irreducible k-points:
 
 Following reciprocal coordinates:
            Coordinates               Weight
  0.000000  0.000000  0.000000      1.000000
  0.125000  0.000000  0.000000      8.000000
  0.250000  0.000000  0.000000      8.000000
  0.375000  0.000000  0.000000      8.000000
  0.500000  0.000000  0.000000      4.000000
  0.125000  0.125000  0.000000      6.000000
  0.250000  0.125000  0.000000     24.000000
  0.375000  0.125000  0.000000     24.000000
  0.500000  0.125000  0.000000     24.000000
 -0.375000  0.125000  0.000000     24.000000
 -0.250000  0.125000  0.000000     24.000000
 -0.125000  0.125000  0.000000     12.000000
  0.250000  0.250000  0.000000      6.000000
  0.375000  0.250000  0.000000     24.000000
  0.500000  0.250000  0.000000     24.000000
 -0.375000  0.250000  0.000000     24.000000
 -0.250000  0.250000  0.000000     12.000000
  0.375000  0.375000  0.000000      6.000000
  0.500000  0.375000  0.000000     24.000000
 -0.375000  0.375000  0.000000     12.000000
  0.500000  0.500000  0.000000      3.000000
  0.375000  0.250000  0.125000     24.000000
  0.500000  0.250000  0.125000     48.000000
 -0.375000  0.250000  0.125000     24.000000
  0.500000  0.375000  0.125000     24.000000
 -0.375000  0.375000  0.125000     48.000000
 -0.250000  0.375000  0.125000     24.000000
 -0.375000  0.500000  0.125000     12.000000
 -0.250000  0.500000  0.250000      6.000000
 
 Following cartesian coordinates:
            Coordinates               Weight
  0.000000  0.000000  0.000000      1.000000
 -0.029434  0.029434  0.029434      8.000000
 -0.058869  0.058869  0.058869      8.000000
 -0.088303  0.088303  0.088303      8.000000
 -0.117737  0.117737  0.117737      4.000000
  0.000000  0.000000  0.058869      6.000000
 -0.029434  0.029434  0.088303     24.000000
 -0.058869  0.058869  0.117737     24.000000
 -0.088303  0.088303  0.147171     24.000000
  0.117737 -0.117737 -0.058869     24.000000
  0.088303 -0.088303 -0.029434     24.000000
  0.058869 -0.058869  0.000000     12.000000
  0.000000  0.000000  0.117737      6.000000
 -0.029434  0.029434  0.147171     24.000000
 -0.058869  0.058869  0.176606     24.000000
  0.147171 -0.147171 -0.029434     24.000000
  0.117737 -0.117737  0.000000     12.000000
  0.000000  0.000000  0.176606      6.000000
 -0.029434  0.029434  0.206040     24.000000
  0.176606 -0.176606  0.000000     12.000000
  0.000000  0.000000  0.235474      3.000000
  0.000000  0.058869  0.117737     24.000000
 -0.029434  0.088303  0.147171     48.000000
  0.176606 -0.117737 -0.058869     24.000000
  0.000000  0.058869  0.176606     24.000000
  0.206040 -0.147171 -0.029434     48.000000
  0.176606 -0.117737  0.000000     24.000000
  0.235474 -0.176606  0.000000     12.000000
  0.235474 -0.117737  0.000000      6.000000
 


--------------------------------------------------------------------------------------------------------




 Dimension of arrays:
   k-points           NKPTS =     29   k-points in BZ     NKDIM =     29   number of bands    NBANDS=     18
   number of dos      NEDOS =    301   number of ions     NIONS =      2
   non local maximal  LDIM  =      5   non local SUM 2l+1 LMDIM =     13
   total plane-waves  NPLWV =   5832
   max r-space proj   IRMAX =      1   max aug-charges    IRDMAX=  13137
   dimension x,y,z NGX =    18 NGY =   18 NGZ =   18
   dimension x,y,z NGXF=    36 NGYF=   36 NGZF=   36
   support grid    NGXF=    36 NGYF=   36 NGZF=   36
   ions per type =               1   1
   NGX,Y,Z   is equivalent  to a cutoff of   9.97,  9.97,  9.97 a.u.
   NGXF,Y,Z  is equivalent  to a cutoff of  19.93, 19.93, 19.93 a.u.

 SYSTEM =  unknown system                          
 POSCAR =  Mg1 O1                                  

 Startparameter for this run:
   NWRITE =      2    write-flag & timer
   PREC   = n         normal or accurate (medium, high low for compatibility)
   ISTART =      0    job   : 0-new  1-cont  2-samecut
   ICHARG =      2    charge: 1-file 2-atom 10-const
   ISPIN  =      1    spin polarized calculation?
   LNONCOLLINEAR =      F non collinear calculations
   LSORBIT =      F    spin-orbit coupling
   INIWAV =      1    electr: 0-lowe 1-rand  2-diag
   LASPH  =      T    aspherical Exc in radial PAW
   METAGGA=      F    non-selfconsistent MetaGGA calc.

 Electronic Relaxation 1
   ENCUT  =  520.0 eV  38.22 Ry    6.18 a.u.   5.58  5.58  5.58*2*pi/ulx,y,z
   ENINI  =  520.0     initial cutoff
   ENAUG  =  605.4 eV  augmentation charge cutoff
   NELM   =    100;   NELMIN=  2; NELMDL= -5     # of ELM steps 
   EDIFF  = 0.1E-06   stopping-criterion for ELM
   LREAL  =      F    real-space projection
   NLSPLINE    = F    spline interpolate recip. space projectors
   LCOMPAT=      F    compatible to vasp.4.4
   GGA_COMPAT  = T    GGA compatible to vasp.4.4-vasp.4.6
   LMAXPAW     = -100 max onsite density
   LMAXMIX     =    2 max onsite mixed and CHGCAR
   VOSKOWN=      0    Vosko Wilk Nusair interpolation
   ROPT   =    0.00000   0.00000
 Ionic relaxation
   EDIFFG = -.5E-02   stopping-criterion for IOM
   NSW    =     50    number of steps for IOM
   NBLOCK =      1;   KBLOCK =     50    inner block; outer block 
   IBRION =      2    ionic relax: 0-MD 1-quasi-New 2-CG
   NFREE  =      1    steps in history (QN), initial steepest desc. (CG)
   ISIF   =      3    stress and relaxation
   IWAVPR =     11    prediction:  0-non 1-charg 2-wave 3-comb
   ISYM   =      2    0-nonsym 1-usesym 2-fastsym
   LCORR  =      T    Harris-Foulkes like correction to forces

   POTIM  = 0.5000    time-step for ionic-motion
   TEIN   =    0.0    initial temperature
   TEBEG  =    0.0;   TEEND  =   0.0 temperature during run
   SMASS  =  -3.00    Nose mass-parameter (am)
   estimated Nose-frequenzy (Omega)   =  0.10E-29 period in steps =****** mass=  -0.206E-27a.u.
   SCALEE = 1.0000    scale energy and forces
   NPACO  =    256;   APACO  = 16.0  distance and # of slots for P.C.
   PSTRESS=    0.0 pullay stress

  Mass of Ions in am
   POMASS =  24.30 16.00
  Ionic Valenz
   ZVAL   =   2.00  6.00
  Atomic Wigner-Seitz radii
   RWIGS  =  -1.00 -1.00
  virtual crystal weights 
   VCA    =   1.00  1.00
   NELECT =       8.0000    total number of electrons
   NUPDOWN=      -1.0000    fix difference up-down

 DOS related values:
   EMIN   =  10.00;   EMAX   =-10.00  energy-range for DOS
   EFERMI =   0.00
   ISMEAR =     0;   SIGMA  =   0.10  broadening in eV -4-tet -1-fermi 0-gaus

 Electronic relaxation 2 (details)
   IALGO  =     38    algorithm
   LDIAG  =      T    sub-space diagonalisation (order eigenvalues)
   LSUBROT=      F    optimize rotation matrix (better conditioning)
   TURBO    =      0    0=normal 1=particle mesh
   IRESTART =      0    0=no restart 2=restart with 2 vectors
   NREBOOT  =      0    no. of reboots
   NMIN     =      0    reboot dimension
   EREF     =   0.00    reference energy to select bands
   IMIX   =      4    mixing-type and parameters
     AMIX     =   0.40;   BMIX     =  1.00
     AMIX_MAG =   1.60;   BMIX_MAG =  1.00
     AMIN     =   0.10
     WC   =   100.;   INIMIX=   1;  MIXPRE=   1;  MAXMIX= -45

 Intra band minimization:
   WEIMIN = 0.0010     energy-eigenvalue tresh-hold
   EBREAK =  0.14E-08  absolut break condition
   DEPER  =   0.30     relativ break condition  

   TIME   =   0.40     timestep for ELM

  volume/ion in A,a.u.               =       9.57        64.61
  Fermi-wavevector in a.u.,A,eV,Ry     =   1.223869  2.312776 20.379546  1.497854
  Thomas-Fermi vector in A             =   2.358964
 
 Write flags
   LWAVE        =      F    write WAVECAR
   LDOWNSAMPLE  =      F    k-point downsampling of WAVECAR
   LCHARG       =      F    write CHGCAR
   LVTOT        =      F    write LOCPOT, total local potential
   LVHAR        =      F    write LOCPOT, Hartree potential only
   LELF         =      F    write electronic localiz. function (ELF)
   LORBIT       =     12    0 simple, 1 ext, 2 COOP (PROOUT), +10 PAW based schemes


 Dipole corrections
   LMONO  =      F    monopole corrections only (constant potential shift)
   LDIPOL =      F    correct potential (dipole corrections)
   IDIPOL =      0    1-x, 2-y, 3-z, 4-all directions 
   EPSILON=  1.0000000 bulk dielectric constant

 Exchange correlation treatment:
   GGA     =    --    GGA type
   LEXCH   =     8    internal setting for exchange type
   VOSKOWN=      0    Vosko Wilk Nusair interpolation
   LHFCALC =     F    Hartree Fock is set to
   LHFONE  =     F    Hartree Fock one center treatment
   AEXX    =    0.0000 exact exchange contribution

 Linear response parameters
   LEPSILON=     F    determine dielectric tensor
   LRPA    =     F    only Hartree local field effects (RPA)
   LNABLA  =     F    use nabla operator in PAW spheres
   LVEL    =     F    velocity operator in full k-point grid
   LINTERFAST=   F  fast interpolation
   KINTER  =     0    interpolate to denser k-point grid
   CSHIFT  =0.1000    complex shift for real part using Kramers Kronig
   OMEGAMAX=  -1.0    maximum frequency
   DEG_THRESHOLD= 0.2000000E-02 threshold for treating states as degnerate
   RTIME   =   -0.100 relaxation time in fs
  (WPLASMAI=    0.000 imaginary part of plasma frequency in eV, 0.658/RTIME)
   DFIELD  = 0.0000000 0.0000000 0.0000000 field for delta impulse in time
 
 Orbital magnetization related:
   ORBITALMAG=     F  switch on orbital magnetization
   LCHIMAG   =     F  perturbation theory with respect to B field
   DQ        =  0.001000  dq finite difference perturbation B field
   LLRAUG    =     F  two centre corrections for induced B field



--------------------------------------------------------------------------------------------------------


 conjugate gradient relaxation of ions
 charge density and potential will be updated during run
 non-spin polarized calculation
 Variant of blocked Davidson
 Davidson routine will perform the subspace rotation
 perform sub-space diagonalisation
    after iterative eigenvector-optimisation
 modified Broyden-mixing scheme, WC =      100.0
 initial mixing is a Kerker type mixing with AMIX =  0.4000 and BMIX =      1.0000
 Hartree-type preconditioning will be used
 using additional bands           14
 reciprocal scheme for non local part
 use partial core corrections
 calculate Harris-corrections to forces 
   (improved forces if not selfconsistent)
 use gradient corrections 
 use of overlap-Matrix (Vanderbilt PP)
 Gauss-broadening in eV      SIGMA  =   0.10


--------------------------------------------------------------------------------------------------------


  energy-cutoff  :      520.00
  volume of cell :       19.15
      direct lattice vectors                 reciprocal lattice vectors
     0.000000000  2.123375000  2.123375000    -0.235474186  0.235474186  0.235474186
     2.123375000  0.000000000  2.123375000     0.235474186 -0.235474186  0.235474186
     2.123375000  2.123375000  0.000000000     0.235474186  0.235474186 -0.235474186

  length of vectors
     3.002905723  3.002905723  3.002905723     0.407853254  0.407853254  0.407853254


 
 k-points in units of 2pi/SCALE and weight: Generated by vise. Mode: primitive_unifo
   0.00000000  0.00000000  0.00000000       0.002
  -0.02943427  0.02943427  0.02943427       0.016
  -0.05886855  0.05886855  0.05886855       0.016
  -0.08830282  0.08830282  0.08830282       0.016
  -0.11773709  0.11773709  0.11773709       0.008
   0.00000000  0.00000000  0.05886855       0.012
  -0.02943427  0.02943427  0.08830282       0.047
  -0.05886855  0.05886855  0.11773709       0.047
  -0.08830282  0.08830282  0.14717137       0.047
   0.11773709 -0.11773709 -0.05886855       0.047
   0.08830282 -0.08830282 -0.02943427       0.047
   0.05886855 -0.05886855  0.00000000       0.023
   0.00000000  0.00000000  0.11773709       0.012
  -0.02943427  0.02943427  0.14717137       0.047
  -0.05886855  0.05886855  0.17660564       0.047
   0.14717137 -0.14717137 -0.02943427       0.047
   0.11773709 -0.11773709  0.00000000       0.023
   0.00000000  0.00000000  0.17660564       0.012
  -0.02943427  0.02943427  0.20603991       0.047
   0.17660564 -0.17660564  0.00000000       0.023
   0.00000000  0.00000000  0.23547419       0.006
   0.00000000  0.05886855  0.11773709       0.047
  -0.02943427  0.08830282  0.14717137       0.094
   0.17660564 -0.11773709 -0.05886855       0.047
   0.00000000  0.05886855  0.17660564       0.047
   0.20603991 -0.14717137 -0.02943427       0.094
   0.17660564 -0.11773709  0.00000000       0.047
   0.23547419 -0.17660564  0.00000000       0.023
   0.23547419 -0.11773709  0.00000000       0.012
 
 k-points in reciprocal lattice and weights: Generated by vise. Mode: primitive_unifo
   0.00000000  0.00000000  0.00000000       0.002
   0.12500000  0.00000000  0.00000000       0.016
   0.25000000  0.00000000  0.00000000       0.016
   0.37500000  0.00000000  0.00000000       0.016
   0.50000000  0.00000000  0.00000000       0.008
   0.12500000  0.12500000  0.00000000       0.012
   0.25000000  0.12500000  0.00000000       0.047
   0.37500000  0.12500000  0.00000000       0.047
   0.50000000  0.12500000  0.00000000       0.047
  -0.37500000  0.12500000  0.00000000       0.047
  -0.25000000  0.12500000  0.00000000       0.047
  -0.12500000  0.12500000  0.00000000       0.023
   0.25000000  0.25000000  0.00000000       0.012
   0.37500000  0.25000000  0.00000000       0.047
   0.50000000  0.25000000  0.00000000       0.047
  -0.37500000  0.25000000  0.00000000       0.047
  -0.25000000  0.25000000  0.00000000       0.023
   0.37500000  0.37500000  0.00000000       0.012
   0.50000000  0.37500000  0.00000000       0.047
  -0.37500000  0.37500000  0.00000000       0.023
   0.50000000  0.50000000  0.00000000       0.006
   0.37500000  0.25000000  0.12500000       0.047
   0.50000000  0.25000000  0.12500000       0.094
  -0.37500000  0.25000000  0.12500000       0.047
   0.50000000  0.37500000  0.12500000       0.047
  -0.37500000  0.37500000  0.12500000       0.094
  -0.25000000  0.37500000  0.12500000       0.047
  -0.37500000  0.50000000  0.12500000       0.023
  -0.25000000  0.50000000  0.25000000       0.012
 
 position of ions in fractional coordinates (direct lattice) 
   0.00000000  0.00000000  0.00000000
   0.50000000  0.50000000  0.50000000
 
 position of ions in cartesian coordinates  (Angst):
   0.00000000  0.00000000  0.00000000
   2.12337500  2.12337500  2.12337500
 


--------------------------------------------------------------------------------------------------------


 k-point  1 :   0.0000 0.0000 0.0000  plane waves:     531
 k-point  2 :   0.1250 0.0000 0.0000  plane waves:     534
 k-point  3 :   0.2500 0.0000 0.0000  plane waves:     522
 k-point  4 :   0.3750 0.0000 0.0000  plane waves:     516
 k-point  5 :   0.5000 0.0000 0.0000  plane waves:     502
 k-point  6 :   0.1250 0.1250 0.0000  plane waves:     524
 k-point  7 :   0.2500 0.1250 0.0000  plane waves:     519
 k-point  8 :   0.3750 0.1250 0.0000  plane waves:     509
 k-point  9 :   0.5000 0.1250 0.0000  plane waves:     516
 k-point 10 :  -0.3750 0.1250 0.0000  plane waves:     513
 k-point 11 :  -0.2500 0.1250 0.0000  plane waves:     518
 k-point 12 :  -0.1250 0.1250 0.0000  plane waves:     523
 k-point 13 :   0.2500 0.2500 0.0000  plane waves:     528
 k-point 14 :   0.3750 0.2500 0.0000  plane waves:     511
 k-point 15 :   0.5000 0.2500 0.0000  plane waves:     516
 k-point 16 :  -0.3750 0.2500 0.0000  plane waves:     519
 k-point 17 :  -0.2500 0.2500 0.0000  plane waves:     512
 k-point 18 :   0.3750 0.3750 0.0000  plane waves:     504
 k-point 19 :   0.5000 0.3750 0.0000  plane waves:     508
 k-point 20 :  -0.3750 0.3750 0.0000  plane waves:     512
 k-point 21 :   0.5000 0.5000 0.0000  plane waves:     524
 k-point 22 :   0.3750 0.2500 0.1250  plane waves:     522
 k-point 23 :   0.5000 0.2500 0.1250  plane waves:     518
 k-point 24 :  -0.3750 0.2500 0.1250  plane waves:     520
 k-point 25 :   0.5000 0.3750 0.1250  plane waves:     514
 k-point 26 :  -0.3750 0.3750 0.1250  plane waves:     509
 k-point 27 :  -0.2500 0.3750 0.1250  plane waves:     517
 k-point 28 :  -0.3750 0.5000 0.1250  plane waves:     504
 k-point 29 :  -0.2500 0.5000 0.2500  plane waves:     516

 maximum and minimum number of plane-waves per node :       534      502

 maximum number of plane-waves:       534
 maximum index in each direction: 
   IXMAX=    5   IYMAX=    5   IZMAX=    5
   IXMIN=   -6   IYMIN=   -6   IZMIN=   -5


 serial   3D FFT for wavefunctions
 parallel 3D FFT for charge:
    minimum data exchange during FFTs selected (reduces bandwidth)


 total amount of memory used by VASP MPI-rank0    34063. kBytes
=======================================================================

   base      :      30000. kBytes
   nonl-proj :       3274. kBytes
   fftplans  :        117. kBytes
   grid      :        389. kBytes
   one-center:         16. kBytes
   wavefun   :        267. kBytes
 
     INWAV:  cpu time    0.0000: real time    0.0003
 Broyden mixing: mesh for mixing (old mesh)
   NGX = 11   NGY = 11   NGZ = 11
  (NGX  = 36   NGY  = 36   NGZ  = 36)
  gives a total of   1331 points

 initial charge density was supplied:
 charge density of overlapping atoms calculated
 number of electron       8.0000000 magnetization 
 keeping initial charge density in first step


--------------------------------------------------------------------------------------------------------


 Maximum index for augmentation-charges          595 (set IRDMAX)


--------------------------------------------------------------------------------------------------------


 First call to EWALD:  gamma=   0.663
 Maximum number of real-space cells 3x 3x 3
 Maximum number of reciprocal cells 3x 3x 3

    FEWALD:  cpu time    0.0000: real time    0.0012


--------------------------------------- Iteration      1(   1)  ---------------------------------------


    POTLOK:  cpu time    0.0040: real time    0.0057
    SETDIJ:  cpu time    0.1000: real time    0.1001
     EDDAV:  cpu time    0.0600: real time    0.0595
       DOS:  cpu time    0.0000: real time    0.0003
    --------------------------------------------
      LOOP:  cpu time    0.1640: real time    0.1656

 eigenvalue-minimisations  :  1062
 total energy-change (2. order) :-0.1187192E+00  (-0.4877218E+03)
 number of electron       8.0000000 magnetization 
 augmentation part        8.0000000 magnetization 

 Free energy of the ion-electron system (eV)
  ---------------------------------------------------
  alpha Z        PSCENC =        19.07805803
  Ewald energy   TEWEN  =      -355.26551564
  -Hartree energ DENC   =      -122.44930271
  -exchange      EXHF   =         0.00000000
  -V(xc)+E(xc)   XCENC  =       -20.50704350
  PAW double counting   =       411.85617216     -361.79210629
  entropy T*S    EENTRO =        -0.00000000
  eigenvalues    EBANDS =       -26.43383149
  atomic energy  EATOM  =       455.39485029
  Solvation  Ediel_sol  =         0.00000000
  ---------------------------------------------------
  free energy    TOTEN  =        -0.11871915 eV

  energy without entropy =       -0.11871915  energy(sigma->0) =       -0.11871915


--------------------------------------------------------------------------------------------------------




--------------------------------------- Iteration      1(   2)  ---------------------------------------


     EDDAV:  cpu time    0.0920: real time    0.0976
       DOS:  cpu time    0.0000: real time    0.0003
    --------------------------------------------
      LOOP:  cpu time    0.0920: real time    0.0979

 eigenvalue-minimisations  :  1512
 total energy-change (2. order) :-0.1332740E+02  (-0.1332740E+02)
 number of electron       8.0000000 magnetization 
 augmentation part        8.0000000 magnetization 

 Free energy of the ion-electron system (eV)
  ---------------------------------------------------
  alpha Z        PSCENC =        19.07805803
  Ewald energy   TEWEN  =      -355.26551564
  -Hartree energ DENC   =      -122.44930271
  -exchange      EXHF   =         0.00000000
  -V(xc)+E(xc)   XCENC  =       -20.50704350
  PAW double counting   =       411.85617216     -361.79210629
  entropy T*S    EENTRO =        -0.00000000
  eigenvalues    EBANDS =       -39.76123246
  atomic energy  EATOM  =       455.39485029
  Solvation  Ediel_sol  =         0.00000000
  ---------------------------------------------------
  free energy    TOTEN  =       -13.44612012 eV

  energy without entropy =      -13.44612012  energy(sigma->0) =      -13.44612012


--------------------------------------------------------------------------------------------------------




--------------------------------------- Iteration      1(   3)  ---------------------------------------


     EDDAV:  cpu time    0.0600: real time    0.0613
       DOS:  cpu time    0.0000: real time    0.0002
    --------------------------------------------
      LOOP:  cpu time    0.0600: real time    0.0616

 eigenvalue-minimisations  :  1098
 total energy-change (2. order) :-0.2270989E-01  (-0.2270989E-01)
 number of electron       8.0000000 magnetization 
 augmentation part        8.0000000 magnetization 

 Free energy of the ion-electron system (eV)
  ---------------------------------------------------
  alpha Z        PSCENC =        19.07805803
  Ewald energy   TEWEN  =      -355.26551564
  -Hartree energ DENC   =      -122.44930271
  -exchange      EXHF   =         0.00000000
  -V(xc)+E(xc)   XCENC  =       -20.50704350
  PAW double counting   =       411.85617216     -361.79210629
  entropy T*S    EENTRO =        -0.00000000
  eigenvalues    EBANDS =       -39.78394235
  atomic energy  EATOM  =       455.39485029
  Solvation  Ediel_sol  =         0.00000000
  ---------------------------------------------------
  free energy    TOTEN  =       -13.46883001 eV

  energy without entropy =      -13.46883001  energy(sigma->0) =      -13.46883001


--------------------------------------------------------------------------------------------------------




--------------------------------------- Iteration      1(   4)  ---------------------------------------


     EDDAV:  cpu time    0.1520: real time    0.1601
       DOS:  cpu time    0.0000: real time    0.0005
    --------------------------------------------
      LOOP:  cpu time    0.1520: real time    0.1607

 eigenvalue-minimisations  :  1872
 total energy-change (2. order) :-0.1254115E-04  (-0.1254115E-04)
 number of electron       8.0000000 magnetization 
 augmentation part        8.0000000 magnetization 

 Free energy of the ion-electron system (eV)
  ---------------------------------------------------
  alpha Z        PSCENC =        19.07805803
  Ewald energy   TEWEN  =      -355.26551564
  -Hartree energ DENC   =      -122.44930271
  -exchange      EXHF   =         0.00000000
  -V(xc)+E(xc)   XCENC  =       -20.50704350
  PAW double counting   =       411.85617216     -361.79210629
  entropy T*S    EENTRO =        -0.00000000
  eigenvalues    EBANDS =       -39.78395489
  atomic energy  EATOM  =       455.39485029
  Solvation  Ediel_sol  =         0.00000000
  ---------------------------------------------------
  free energy    TOTEN  =       -13.46884255 eV

  energy without entropy =      -13.46884255  energy(sigma->0) =      -13.46884255


--------------------------------------------------------------------------------------------------------




--------------------------------------- Iteration      1(   5)  ---------------------------------------


     EDDAV:  cpu time    0.0600: real time    0.0623
       DOS:  cpu time    0.0000: real time    0.0004
    CHARGE:  cpu time    0.0040: real time    0.0032
    MIXING:  cpu time    0.0000: real time    0.0007
    --------------------------------------------
      LOOP:  cpu time    0.0640: real time    0.0666

 eigenvalue-minimisations  :  1098
 total energy-change (2. order) :-0.1077751E-09  (-0.1075174E-09)
 number of electron       8.0000001 magnetization 
 augmentation part        0.8033138 magnetization 

 Broyden mixing:
  rms(total) = 0.71980E+00    rms(broyden)= 0.71964E+00
  rms(prec ) = 0.27969E+01
  weight for this iteration     100.00

 Free energy of the ion-electron system (eV)
  ---------------------------------------------------
  alpha Z        PSCENC =        19.07805803
  Ewald energy   TEWEN  =      -355.26551564
  -Hartree energ DENC   =      -122.44930271
  -exchange      EXHF   =         0.00000000
  -V(xc)+E(xc)   XCENC  =       -20.50704350
  PAW double counting   =       411.85617216     -361.79210629
  entropy T*S    EENTRO =        -0.00000000
  eigenvalues    EBANDS =       -39.78395489
  atomic energy  EATOM  =       455.39485029
  Solvation  Ediel_sol  =         0.00000000
  ---------------------------------------------------
  free energy    TOTEN  =       -13.46884255 eV

  energy without entropy =      -13.46884255  energy(sigma->0) =      -13.46884255


--------------------------------------------------------------------------------------------------------




--------------------------------------- Iteration      1(   6)  ---------------------------------------


    POTLOK:  cpu time    0.0040: real time    0.0034
    SETDIJ:  cpu time    0.1000: real time    0.1018
     EDDAV:  cpu time    0.0560: real time    0.0560
       DOS:  cpu time    0.0000: real time    0.0003
    CHARGE:  cpu time    0.0040: real time    0.0030
    MIXING:  cpu time    0.0000: real time    0.0003
    --------------------------------------------
      LOOP:  cpu time    0.1640: real time    0.1648

 eigenvalue-minimisations  :  1062
 total energy-change (2. order) : 0.1536885E+01  (-0.1025430E+01)
 number of electron       8.0000001 magnetization 
 augmentation part        0.6573062 magnetization 

 Broyden mixing:
  rms(total) = 0.22843E+00    rms(broyden)= 0.22811E+00
  rms(prec ) = 0.56561E+00
  weight for this iteration     100.00

 eigenvalues of (default mixing * dielectric matrix)
  average eigenvalue GAMMA=   0.8481
  0.8481

 Free energy of the ion-electron system (eV)
  ---------------------------------------------------
  alpha Z        PSCENC =        19.07805803
  Ewald energy   TEWEN  =      -355.26551564
  -Hartree energ DENC   =      -141.07010158
  -exchange      EXHF   =         0.00000000
  -V(xc)+E(xc)   XCENC  =       -19.19462164
  PAW double counting   =       482.92545360     -433.21332200
  entropy T*S    EENTRO =        -0.00000000
  eigenvalues    EBANDS =       -20.58675883
  atomic energy  EATOM  =       455.39485029
  Solvation  Ediel_sol  =         0.00000000
  ---------------------------------------------------
  free energy    TOTEN  =       -11.93195778 eV

  energy without entropy =      -11.93195778  energy(sigma->0) =      -11.93195778


--------------------------------------------------------------------------------------------------------




--------------------------------------- Iteration      1(   7)  ---------------------------------------


    POTLOK:  cpu time    0.0040: real time    0.0023
    SETDIJ:  cpu time    0.1000: real time    0.1017
     EDDAV:  cpu time    0.0880: real time    0.0895
       DOS:  cpu time    0.0000: real time    0.0003
    CHARGE:  cpu time    0.0040: real time    0.0030
    MIXING:  cpu time    0.0000: real time    0.0003
    --------------------------------------------
      LOOP:  cpu time    0.1960: real time    0.1970

 eigenvalue-minimisations  :  1422
 total energy-change (2. order) : 0.1396338E-01  (-0.5277704E-02)
 number of electron       8.0000001 magnetization 
 augmentation part        0.6645196 magnetization 

 Broyden mixing:
  rms(total) = 0.13267E+00    rms(broyden)= 0.13267E+00
  rms(prec ) = 0.35300E+00
  weight for this iteration     100.00

 eigenvalues of (default mixing * dielectric matrix)
  average eigenvalue GAMMA=   1.8226
  0.9569  2.6883

 Free energy of the ion-electron system (eV)
  ---------------------------------------------------
  alpha Z        PSCENC =        19.07805803
  Ewald energy   TEWEN  =      -355.26551564
  -Hartree energ DENC   =      -140.98498857
  -exchange      EXHF   =         0.00000000
  -V(xc)+E(xc)   XCENC  =       -19.15920736
  PAW double counting   =       505.99852414     -456.24129813
  entropy T*S    EENTRO =        -0.00000000
  eigenvalues    EBANDS =       -20.73841717
  atomic energy  EATOM  =       455.39485029
  Solvation  Ediel_sol  =         0.00000000
  ---------------------------------------------------
  free energy    TOTEN  =       -11.91799441 eV

  energy without entropy =      -11.91799441  energy(sigma->0) =      -11.91799441


--------------------------------------------------------------------------------------------------------




--------------------------------------- Iteration      1(   8)  ---------------------------------------


    POTLOK:  cpu time    0.0040: real time    0.0022
    SETDIJ:  cpu time    0.1000: real time    0.1017
     EDDAV:  cpu time    0.0800: real time    0.0798
       DOS:  cpu time    0.0000: real time    0.0003
    CHARGE:  cpu time    0.0040: real time    0.0030
    MIXING:  cpu time    0.0000: real time    0.0002
    --------------------------------------------
      LOOP:  cpu time    0.1880: real time    0.1872

 eigenvalue-minimisations  :  1440
 total energy-change (2. order) : 0.6169277E-02  (-0.2655589E-02)
 number of electron       8.0000001 magnetization 
 augmentation part        0.6657022 magnetization 

 Broyden mixing:
  rms(total) = 0.17994E-01    rms(broyden)= 0.17990E-01
  rms(prec ) = 0.34288E-01
  weight for this iteration     100.00

 eigenvalues of (default mixing * dielectric matrix)
  average eigenvalue GAMMA=   1.3881
  2.6004  0.9511  0.6128

 Free energy of the ion-electron system (eV)
  ---------------------------------------------------
  alpha Z        PSCENC =        19.07805803
  Ewald energy   TEWEN  =      -355.26551564
  -Hartree energ DENC   =      -142.44240836
  -exchange      EXHF   =         0.00000000
  -V(xc)+E(xc)   XCENC  =       -18.96429490
  PAW double counting   =       552.22035446     -502.43533986
  entropy T*S    EENTRO =        -0.00000000
  eigenvalues    EBANDS =       -19.49752915
  atomic energy  EATOM  =       455.39485029
  Solvation  Ediel_sol  =         0.00000000
  ---------------------------------------------------
  free energy    TOTEN  =       -11.91182513 eV

  energy without entropy =      -11.91182513  energy(sigma->0) =      -11.91182513


--------------------------------------------------------------------------------------------------------




--------------------------------------- Iteration      1(   9)  ---------------------------------------


    POTLOK:  cpu time    0.0000: real time    0.0022
    SETDIJ:  cpu time    0.1040: real time    0.1019
     EDDAV:  cpu time    0.0920: real time    0.0911
       DOS:  cpu time    0.0000: real time    0.0003
    CHARGE:  cpu time    0.0000: real time    0.0030
    MIXING:  cpu time    0.0000: real time    0.0003
    --------------------------------------------
      LOOP:  cpu time    0.1960: real time    0.1988

 eigenvalue-minimisations  :  1386
 total energy-change (2. order) : 0.1174883E-03  (-0.1423411E-04)
 number of electron       8.0000001 magnetization 
 augmentation part        0.6652114 magnetization 

 Broyden mixing:
  rms(total) = 0.12309E-01    rms(broyden)= 0.12309E-01
  rms(prec ) = 0.22173E-01
  weight for this iteration     100.00

 eigenvalues of (default mixing * dielectric matrix)
  average eigenvalue GAMMA=   1.8093
  0.9712  0.9712  2.7934  2.5015

 Free energy of the ion-electron system (eV)
  ---------------------------------------------------
  alpha Z        PSCENC =        19.07805803
  Ewald energy   TEWEN  =      -355.26551564
  -Hartree energ DENC   =      -142.46068430
  -exchange      EXHF   =         0.00000000
  -V(xc)+E(xc)   XCENC  =       -18.96473106
  PAW double counting   =       550.03043910     -500.24855389
  entropy T*S    EENTRO =        -0.00000000
  eigenvalues    EBANDS =       -19.47557017
  atomic energy  EATOM  =       455.39485029
  Solvation  Ediel_sol  =         0.00000000
  ---------------------------------------------------
  free energy    TOTEN  =       -11.91170764 eV

  energy without entropy =      -11.91170764  energy(sigma->0) =      -11.91170764


--------------------------------------------------------------------------------------------------------




--------------------------------------- Iteration      1(  10)  ---------------------------------------


    POTLOK:  cpu time    0.0040: real time    0.0023
    SETDIJ:  cpu time    0.1040: real time    0.1025
     EDDAV:  cpu time    0.1000: real time    0.1009
       DOS:  cpu time    0.0000: real time    0.0007
    CHARGE:  cpu time    0.0040: real time    0.0034
    MIXING:  cpu time    0.0000: real time    0.0004
    --------------------------------------------
      LOOP:  cpu time    0.2120: real time    0.2103

 eigenvalue-minimisations  :  1314
 total energy-change (2. order) :-0.5205381E-04  (-0.2454162E-04)
 number of electron       8.0000001 magnetization 
 augmentation part        0.6647472 magnetization 

 Broyden mixing:
  rms(total) = 0.64922E-03    rms(broyden)= 0.64758E-03
  rms(prec ) = 0.21152E-02
  weight for this iteration     100.00

 eigenvalues of (default mixing * dielectric matrix)
  average eigenvalue GAMMA=   1.6303
  2.7813  2.4786  0.9527  0.9527  0.9861

 Free energy of the ion-electron system (eV)
  ---------------------------------------------------
  alpha Z        PSCENC =        19.07805803
  Ewald energy   TEWEN  =      -355.26551564
  -Hartree energ DENC   =      -142.45966335
  -exchange      EXHF   =         0.00000000
  -V(xc)+E(xc)   XCENC  =       -18.96340278
  PAW double counting   =       542.73933989     -492.96648773
  entropy T*S    EENTRO =        -0.00000000
  eigenvalues    EBANDS =       -19.46893841
  atomic energy  EATOM  =       455.39485029
  Solvation  Ediel_sol  =         0.00000000
  ---------------------------------------------------
  free energy    TOTEN  =       -11.91175969 eV

  energy without entropy =      -11.91175969  energy(sigma->0) =      -11.91175969


--------------------------------------------------------------------------------------------------------




--------------------------------------- Iteration      1(  11)  ---------------------------------------


    POTLOK:  cpu time    0.0000: real time    0.0023
    SETDIJ:  cpu time    0.1040: real time    0.1017
     EDDAV:  cpu time    0.0760: real time    0.0764
       DOS:  cpu time    0.0000: real time    0.0006
    CHARGE:  cpu time    0.0040: real time    0.0033
    MIXING:  cpu time    0.0000: real time    0.0005
    --------------------------------------------
      LOOP:  cpu time    0.1840: real time    0.1848

 eigenvalue-minimisations  :  1350
 total energy-change (2. order) :-0.6614351E-07  (-0.8227500E-06)
 number of electron       8.0000001 magnetization 
 augmentation part        0.6646290 magnetization 

 Broyden mixing:
  rms(total) = 0.33598E-03    rms(broyden)= 0.33524E-03
  rms(prec ) = 0.65898E-03
  weight for this iteration     100.00

 eigenvalues of (default mixing * dielectric matrix)
  average eigenvalue GAMMA=   1.8227
  2.7811  2.7145  2.5070  1.0301  0.9518  0.9518

 Free energy of the ion-electron system (eV)
  ---------------------------------------------------
  alpha Z        PSCENC =        19.07805803
  Ewald energy   TEWEN  =      -355.26551564
  -Hartree energ DENC   =      -142.47426106
  -exchange      EXHF   =         0.00000000
  -V(xc)+E(xc)   XCENC  =       -18.96248717
  PAW double counting   =       542.80417034     -493.03152928
  entropy T*S    EENTRO =        -0.00000000
  eigenvalues    EBANDS =       -19.45504527
  atomic energy  EATOM  =       455.39485029
  Solvation  Ediel_sol  =         0.00000000
  ---------------------------------------------------
  free energy    TOTEN  =       -11.91175976 eV

  energy without entropy =      -11.91175976  energy(sigma->0) =      -11.91175976


--------------------------------------------------------------------------------------------------------




--------------------------------------- Iteration      1(  12)  ---------------------------------------


    POTLOK:  cpu time    0.0000: real time    0.0023
    SETDIJ:  cpu time    0.1040: real time    0.1015
     EDDAV:  cpu time    0.0880: real time    0.0891
       DOS:  cpu time    0.0000: real time    0.0004
    --------------------------------------------
      LOOP:  cpu time    0.1920: real time    0.1934

 eigenvalue-minimisations  :  1458
 total energy-change (2. order) : 0.1546391E-07  (-0.3460349E-07)
 number of electron       8.0000001 magnetization 
 augmentation part        0.6646290 magnetization 

 Free energy of the ion-electron system (eV)
  ---------------------------------------------------
  alpha Z        PSCENC =        19.07805803
  Ewald energy   TEWEN  =      -355.26551564
  -Hartree energ DENC   =      -142.47370327
  -exchange      EXHF   =         0.00000000
  -V(xc)+E(xc)   XCENC  =       -18.96263440
  PAW double counting   =       543.04901995     -493.27605015
  entropy T*S    EENTRO =        -0.00000000
  eigenvalues    EBANDS =       -19.45578454
  atomic energy  EATOM  =       455.39485029
  Solvation  Ediel_sol  =         0.00000000
  ---------------------------------------------------
  free energy    TOTEN  =       -11.91175974 eV

  energy without entropy =      -11.91175974  energy(sigma->0) =      -11.91175974


--------------------------------------------------------------------------------------------------------




 average (electrostatic) potential at core
  the test charge radii are     1.0714  0.7215
  (the norm of the test charge is              1.0000)
       1 -35.2895       2 -69.7443
 
 
 
 E-fermi :   3.4940     XC(G=0): -10.9627     alpha+bet :-12.8408


 k-point     1 :       0.0000    0.0000    0.0000
  band No.  band energies     occupation 
      1     -14.1344      2.00000
      2       3.0047      2.00000
      3       3.0047      2.00000
      4       3.0047      2.00000
      5       7.4954      0.00000
      6      18.6648      0.00000
      7      18.6648      0.00000
      8      18.6648      0.00000
      9      22.5173      0.00000
     10      24.2631      0.00000
     11      24.2631      0.00000
     12      26.7815      0.00000
     13      26.7815      0.00000
     14      26.7816      0.00000
     15      40.7836      0.00000
     16      40.7836      0.00000
     17      40.7838      0.00000
     18      41.1884      0.00000

 k-point     2 :       0.1250    0.0000    0.0000
  band No.  band energies     occupation 
      1     -13.9782      2.00000
      2       2.0591      2.00000
      3       2.9060      2.00000
      4       2.9060      2.00000
      5       8.4128      0.00000
      6      16.9934      0.00000
      7      19.0087      0.00000
      8      19.0087      0.00000
      9      23.2542      0.00000
     10      23.2542      0.00000
     11      24.5920      0.00000
     12      27.0236      0.00000
     13      28.4545      0.00000
     14      28.4545      0.00000
     15      38.7209      0.00000
     16      40.6280      0.00000
     17      40.6281      0.00000
     18      43.0699      0.00000

 k-point     3 :       0.2500    0.0000    0.0000
  band No.  band energies     occupation 
      1     -13.5730      2.00000
      2       0.3918      2.00000
      3       2.6784      2.00000
      4       2.6784      2.00000
      5       9.8695      0.00000
      6      15.4224      0.00000
      7      19.4530      0.00000
      8      19.4530      0.00000
      9      22.8684      0.00000
     10      22.8684      0.00000
     11      24.5923      0.00000
     12      30.4727      0.00000
     13      31.0382      0.00000
     14      31.0383      0.00000
     15      36.7244      0.00000
     16      39.4331      0.00000
     17      39.4331      0.00000
     18      45.6328      0.00000

 k-point     4 :       0.3750    0.0000    0.0000
  band No.  band energies     occupation 
      1     -13.1183      2.00000
      2      -0.9740      2.00000
      3       2.4640      2.00000
      4       2.4640      2.00000
      5      10.6276      0.00000
      6      15.1471      0.00000
      7      19.2398      0.00000
      8      19.2398      0.00000
      9      23.8237      0.00000
     10      24.1696      0.00000
     11      24.1696      0.00000
     12      31.6770      0.00000
     13      33.0001      0.00000
     14      33.0002      0.00000
     15      36.6160      0.00000
     16      36.6160      0.00000
     17      39.3359      0.00000
     18      47.0452      0.00000

 k-point     5 :       0.5000    0.0000    0.0000
  band No.  band energies     occupation 
      1     -12.9111      2.00000
      2      -1.5049      2.00000
      3       2.3786      2.00000
      4       2.3786      2.00000
      5      10.7463      0.00000
      6      15.3330      0.00000
      7      19.0624      0.00000
      8      19.0625      0.00000
      9      23.5279      0.00000
     10      25.1973      0.00000
     11      25.1973      0.00000
     12      31.1119      0.00000
     13      33.4757      0.00000
     14      33.4757      0.00000
     15      35.1927      0.00000
     16      35.1927      0.00000
     17      44.9431      0.00000
     18      46.5923      0.00000

 k-point     6 :       0.1250    0.1250    0.0000
  band No.  band energies     occupation 
      1     -13.9283      2.00000
      2       1.9800      2.00000
      3       2.7794      2.00000
      4       2.7794      2.00000
      5       8.7079      0.00000
      6      16.5159      0.00000
      7      19.1444      0.00000
      8      19.1444      0.00000
      9      21.5503      0.00000
     10      24.7352      0.00000
     11      25.7034      0.00000
     12      27.5485      0.00000
     13      27.5485      0.00000
     14      28.9999      0.00000
     15      38.8659      0.00000
     16      40.0984      0.00000
     17      40.0985      0.00000
     18      43.9027      0.00000

 k-point     7 :       0.2500    0.1250    0.0000
  band No.  band energies     occupation 
      1     -13.6114      2.00000
      2       0.7766      2.00000
      3       2.5356      2.00000
      4       2.5394      2.00000
      5      10.0015      0.00000
      6      15.1738      0.00000
      7      19.1332      0.00000
      8      19.6151      0.00000
      9      20.7891      0.00000
     10      24.6345      0.00000
     11      26.6280      0.00000
     12      29.7250      0.00000
     13      30.0121      0.00000
     14      30.7647      0.00000
     15      36.9877      0.00000
     16      38.7559      0.00000
     17      40.6583      0.00000
     18      45.3772      0.00000

 k-point     8 :       0.3750    0.1250    0.0000
  band No.  band energies     occupation 
      1     -13.1752      2.00000
      2      -0.5131      2.00000
      3       2.1807      2.00000
      4       2.3329      2.00000
      5      11.0947      0.00000
      6      14.7568      0.00000
      7      18.1390      0.00000
      8      19.6511      0.00000
      9      22.0703      0.00000
     10      25.2290      0.00000
     11      26.0771      0.00000
     12      31.6612      0.00000
     13      32.7169      0.00000
     14      32.7452      0.00000
     15      35.6401      0.00000
     16      37.9337      0.00000
     17      40.8248      0.00000
     18      44.4511      0.00000

 k-point     9 :       0.5000    0.1250    0.0000
  band No.  band energies     occupation 
      1     -12.8794      2.00000
      2      -1.2441      2.00000
      3       1.8941      2.00000
      4       2.2688      2.00000
      5      11.4178      0.00000
      6      15.1413      0.00000
      7      17.6278      0.00000
      8      19.4435      0.00000
      9      23.4332      0.00000
     10      25.6841      0.00000
     11      25.7750      0.00000
     12      32.0591      0.00000
     13      32.6565      0.00000
     14      33.0049      0.00000
     15      35.5820      0.00000
     16      37.2926      0.00000
     17      43.9765      0.00000
     18      47.1686      0.00000

 k-point    10 :      -0.3750    0.1250    0.0000
  band No.  band energies     occupation 
      1     -12.9452      2.00000
      2      -1.0784      2.00000
      3       1.8304      2.00000
      4       2.3783      2.00000
      5      11.3994      0.00000
      6      15.0822      0.00000
      7      17.7217      0.00000
      8      19.5133      0.00000
      9      24.0594      0.00000
     10      24.2690      0.00000
     11      25.7558      0.00000
     12      32.3055      0.00000
     13      32.5785      0.00000
     14      33.9533      0.00000
     15      34.3937      0.00000
     16      38.4148      0.00000
     17      42.0418      0.00000
     18      45.1241      0.00000

 k-point    11 :      -0.2500    0.1250    0.0000
  band No.  band energies     occupation 
      1     -13.3198      2.00000
      2      -0.1116      2.00000
      3       2.0450      2.00000
      4       2.6082      2.00000
      5      10.8293      0.00000
      6      14.9322      0.00000
      7      18.3385      0.00000
      8      20.0064      0.00000
      9      21.8280      0.00000
     10      24.0580      0.00000
     11      26.1700      0.00000
     12      30.8319      0.00000
     13      32.1078      0.00000
     14      32.9799      0.00000
     15      35.3531      0.00000
     16      38.6499      0.00000
     17      41.2698      0.00000
     18      43.3978      0.00000

 k-point    12 :      -0.1250    0.1250    0.0000
  band No.  band energies     occupation 
      1     -13.7404      2.00000
      2       1.1597      2.00000
      3       2.4959      2.00000
      4       2.8317      2.00000
      5       9.4893      0.00000
      6      15.7849      0.00000
      7      18.9654      0.00000
      8      19.6945      0.00000
      9      21.5978      0.00000
     10      23.5774      0.00000
     11      26.1535      0.00000
     12      28.3484      0.00000
     13      29.5842      0.00000
     14      30.5149      0.00000
     15      36.9570      0.00000
     16      39.7947      0.00000
     17      41.3045      0.00000
     18      43.9574      0.00000

 k-point    13 :       0.2500    0.2500    0.0000
  band No.  band energies     occupation 
      1     -13.4170      2.00000
      2       0.4204      2.00000
      3       2.2881      2.00000
      4       2.2881      2.00000
      5      10.8249      0.00000
      6      14.1056      0.00000
      7      18.2173      0.00000
      8      20.2067      0.00000
      9      20.2067      0.00000
     10      26.1088      0.00000
     11      29.8440      0.00000
     12      29.8440      0.00000
     13      30.2604      0.00000
     14      31.2231      0.00000
     15      38.0184      0.00000
     16      38.3501      0.00000
     17      38.3501      0.00000
     18      44.4417      0.00000

 k-point    14 :       0.3750    0.2500    0.0000
  band No.  band energies     occupation 
      1     -13.0820      2.00000
      2      -0.2976      2.00000
      3       1.8446      2.00000
      4       2.0776      2.00000
      5      11.9316      0.00000
      6      13.5785      0.00000
      7      16.8823      0.00000
      8      20.5120      0.00000
      9      20.9692      0.00000
     10      26.8153      0.00000
     11      29.9147      0.00000
     12      30.1838      0.00000
     13      32.0971      0.00000
     14      34.5901      0.00000
     15      36.2490      0.00000
     16      37.6606      0.00000
     17      40.7723      0.00000
     18      43.2346      0.00000

 k-point    15 :       0.5000    0.2500    0.0000
  band No.  band energies     occupation 
      1     -12.7960      2.00000
      2      -0.7218      2.00000
      3       1.1423      2.00000
      4       2.0174      2.00000
      5      12.5306      0.00000
      6      14.3659      0.00000
      7      16.0472      0.00000
      8      20.3447      0.00000
      9      21.4797      0.00000
     10      27.1722      0.00000
     11      29.3338      0.00000
     12      30.5811      0.00000
     13      32.0261      0.00000
     14      34.6340      0.00000
     15      36.6047      0.00000
     16      40.7800      0.00000
     17      43.2643      0.00000
     18      44.5439      0.00000

 k-point    16 :      -0.3750    0.2500    0.0000
  band No.  band energies     occupation 
      1     -12.7509      2.00000
      2      -0.6576      2.00000
      3       0.6903      2.00000
      4       2.1367      2.00000
      5      12.7706      0.00000
      6      14.9443      0.00000
      7      15.8457      0.00000
      8      20.1603      0.00000
      9      22.2438      0.00000
     10      25.2705      0.00000
     11      28.8427      0.00000
     12      31.3883      0.00000
     13      31.8127      0.00000
     14      35.1485      0.00000
     15      37.0309      0.00000
     16      39.9085      0.00000
     17      42.8319      0.00000
     18      45.9136      0.00000

 k-point    17 :      -0.2500    0.2500    0.0000
  band No.  band energies     occupation 
      1     -12.9785      2.00000
      2      -0.4172      2.00000
      3       1.0627      2.00000
      4       2.3781      2.00000
      5      12.2581      0.00000
      6      14.6404      0.00000
      7      16.7392      0.00000
      8      20.2219      0.00000
      9      22.7741      0.00000
     10      23.6747      0.00000
     11      28.2992      0.00000
     12      31.2023      0.00000
     13      32.3008      0.00000
     14      33.7690      0.00000
     15      36.5521      0.00000
     16      40.8443      0.00000
     17      41.1319      0.00000
     18      43.2020      0.00000

 k-point    18 :       0.3750    0.3750    0.0000
  band No.  band energies     occupation 
      1     -12.8863      2.00000
      2      -0.6317      2.00000
      3       1.8557      2.00000
      4       1.8557      2.00000
      5      12.4243      0.00000
      6      12.6007      0.00000
      7      16.1427      0.00000
      8      21.1958      0.00000
      9      21.1959      0.00000
     10      28.1417      0.00000
     11      28.8615      0.00000
     12      32.7258      0.00000
     13      32.7258      0.00000
     14      37.5048      0.00000
     15      37.5048      0.00000
     16      37.9007      0.00000
     17      39.3095      0.00000
     18      39.8269      0.00000

 k-point    19 :       0.5000    0.3750    0.0000
  band No.  band energies     occupation 
      1     -12.7031      2.00000
      2      -0.7798      2.00000
      3       1.3264      2.00000
      4       1.7831      2.00000
      5      12.5247      0.00000
      6      13.2011      0.00000
      7      15.7278      0.00000
      8      21.2213      0.00000
      9      21.2328      0.00000
     10      28.6959      0.00000
     11      29.1347      0.00000
     12      31.7153      0.00000
     13      32.4270      0.00000
     14      37.5808      0.00000
     15      37.9576      0.00000
     16      40.8891      0.00000
     17      42.1202      0.00000
     18      42.9684      0.00000

 k-point    20 :      -0.3750    0.3750    0.0000
  band No.  band energies     occupation 
      1     -12.6474      2.00000
      2      -0.4004      2.00000
      3       0.3630      2.00000
      4       1.8944      2.00000
      5      12.9717      0.00000
      6      14.4977      0.00000
      7      15.3122      0.00000
      8      20.7880      0.00000
      9      20.9533      0.00000
     10      27.8422      0.00000
     11      29.8031      0.00000
     12      30.7864      0.00000
     13      31.1222      0.00000
     14      37.9928      0.00000
     15      38.8334      0.00000
     16      40.1239      0.00000
     17      43.5620      0.00000
     18      45.0155      0.00000

 k-point    21 :       0.5000    0.5000    0.0000
  band No.  band energies     occupation 
      1     -12.6620      2.00000
      2      -0.9790      2.00000
      3       1.6905      2.00000
      4       1.6905      2.00000
      5      12.0943      0.00000
      6      12.7083      0.00000
      7      15.8443      0.00000
      8      21.6045      0.00000
      9      21.6045      0.00000
     10      27.8386      0.00000
     11      29.5253      0.00000
     12      33.3800      0.00000
     13      33.3800      0.00000
     14      36.8909      0.00000
     15      39.6713      0.00000
     16      39.6713      0.00000
     17      41.1899      0.00000
     18      43.5595      0.00000

 k-point    22 :       0.3750    0.2500    0.1250
  band No.  band energies     occupation 
      1     -13.2830      2.00000
      2       0.0465      2.00000
      3       1.8863      2.00000
      4       2.4118      2.00000
      5      11.2528      0.00000
      6      14.3890      0.00000
      7      17.8093      0.00000
      8      20.2629      0.00000
      9      20.8865      0.00000
     10      25.1544      0.00000
     11      28.4110      0.00000
     12      30.0960      0.00000
     13      31.3654      0.00000
     14      33.8354      0.00000
     15      35.2218      0.00000
     16      38.8479      0.00000
     17      40.5688      0.00000
     18      44.1800      0.00000

 k-point    23 :       0.5000    0.2500    0.1250
  band No.  band energies     occupation 
      1     -12.9252      2.00000
      2      -0.6189      2.00000
      3       1.3268      2.00000
      4       2.1671      2.00000
      5      12.2907      0.00000
      6      14.4864      0.00000
      7      16.6542      0.00000
      8      19.8490      0.00000
      9      22.4198      0.00000
     10      25.0928      0.00000
     11      28.6230      0.00000
     12      31.4164      0.00000
     13      31.9999      0.00000
     14      34.6637      0.00000
     15      35.3058      0.00000
     16      40.8049      0.00000
     17      42.0456      0.00000
     18      42.4423      0.00000

 k-point    24 :      -0.3750    0.2500    0.1250
  band No.  band energies     occupation 
      1     -12.7667      2.00000
      2      -0.9001      2.00000
      3       1.1247      2.00000
      4       2.0507      2.00000
      5      12.5030      0.00000
      6      14.9650      0.00000
      7      16.2365      0.00000
      8      19.6024      0.00000
      9      23.2413      0.00000
     10      24.7537      0.00000
     11      28.7718      0.00000
     12      31.3402      0.00000
     13      32.1371      0.00000
     14      34.0778      0.00000
     15      37.6010      0.00000
     16      38.1684      0.00000
     17      45.1690      0.00000
     18      45.7477      0.00000

 k-point    25 :       0.5000    0.3750    0.1250
  band No.  band energies     occupation 
      1     -12.8250      2.00000
      2      -0.5621      2.00000
      3       1.3573      2.00000
      4       1.7952      2.00000
      5      13.0191      0.00000
      6      13.3168      0.00000
      7      15.9286      0.00000
      8      20.1518      0.00000
      9      21.8828      0.00000
     10      27.0939      0.00000
     11      29.9027      0.00000
     12      31.3096      0.00000
     13      32.1731      0.00000
     14      36.1281      0.00000
     15      36.2124      0.00000
     16      40.2970      0.00000
     17      41.1268      0.00000
     18      44.5768      0.00000

 k-point    26 :      -0.3750    0.3750    0.1250
  band No.  band energies     occupation 
      1     -12.6664      2.00000
      2      -0.4154      2.00000
      3       0.5844      2.00000
      4       1.6662      2.00000
      5      13.4487      0.00000
      6      14.4844      0.00000
      7      15.2759      0.00000
      8      19.2850      0.00000
      9      22.7312      0.00000
     10      26.1840      0.00000
     11      29.7451      0.00000
     12      31.1711      0.00000
     13      32.4344      0.00000
     14      36.1136      0.00000
     15      38.6789      0.00000
     16      40.8980      0.00000
     17      42.6027      0.00000
     18      43.9906      0.00000

 k-point    27 :      -0.2500    0.3750    0.1250
  band No.  band energies     occupation 
      1     -12.7104      2.00000
      2      -0.2981      2.00000
      3       0.3799      2.00000
      4       1.8566      2.00000
      5      13.5544      0.00000
      6      14.5642      0.00000
      7      15.4354      0.00000
      8      19.3443      0.00000
      9      23.6133      0.00000
     10      24.2424      0.00000
     11      30.4231      0.00000
     12      31.1196      0.00000
     13      31.6396      0.00000
     14      36.5331      0.00000
     15      36.7752      0.00000
     16      41.4687      0.00000
     17      42.0976      0.00000
     18      45.0394      0.00000

 k-point    28 :      -0.3750    0.5000    0.1250
  band No.  band energies     occupation 
      1     -12.6373      2.00000
      2      -0.6848      2.00000
      3       1.1566      2.00000
      4       1.4795      2.00000
      5      12.9332      0.00000
      6      13.5810      0.00000
      7      15.5241      0.00000
      8      19.9843      0.00000
      9      22.2722      0.00000
     10      28.5827      0.00000
     11      28.9623      0.00000
     12      30.3939      0.00000
     13      33.7291      0.00000
     14      38.2964      0.00000
     15      38.8148      0.00000
     16      41.0529      0.00000
     17      41.8037      0.00000
     18      42.6828      0.00000

 k-point    29 :      -0.2500    0.5000    0.2500
  band No.  band energies     occupation 
      1     -12.6129      2.00000
      2       0.1267      2.00000
      3       0.1267      2.00000
      4       1.2798      2.00000
      5      14.4859      0.00000
      6      14.4859      0.00000
      7      14.8738      0.00000
      8      18.1911      0.00000
      9      24.6197      0.00000
     10      24.6198      0.00000
     11      28.9184      0.00000
     12      31.4872      0.00000
     13      34.2417      0.00000
     14      37.0766      0.00000
     15      39.9985      0.00000
     16      39.9985      0.00000
     17      41.9492      0.00000
     18      43.4218      0.00000


--------------------------------------------------------------------------------------------------------


 soft charge-density along one line, spin component           1
         0         1         2         3         4         5         6         7         8         9
 total charge-density along one line
 
 pseudopotential strength for first ion, spin component:           1
  2.973   9.448  -0.000  -0.000   0.000  -0.000  -0.000   0.000
  9.448  29.867  -0.000  -0.000   0.000  -0.000  -0.000   0.000
 -0.000  -0.000   7.293   0.000   0.000  10.570   0.000   0.000
 -0.000  -0.000   0.000   7.293   0.000   0.000  10.570   0.000
  0.000   0.000   0.000   0.000   7.293   0.000   0.000  10.570
 -0.000  -0.000  10.570   0.000   0.000  14.536   0.000   0.000
 -0.000  -0.000   0.000  10.570   0.000   0.000  14.536   0.000
  0.000   0.000   0.000   0.000  10.570   0.000   0.000  14.536
  0.000   0.000   0.000   0.000  -0.000   0.000   0.000  -0.000
  0.000   0.000  -0.000  -0.000   0.000  -0.000  -0.000   0.000
 -0.000  -0.000   0.000  -0.000  -0.000   0.000  -0.000  -0.000
  0.000   0.000   0.000   0.000  -0.000   0.000   0.000  -0.000
  0.000   0.000   0.000   0.000  -0.000   0.000   0.000  -0.000
 total augmentation occupancy for first ion, spin component:           1
  0.993  -0.045   0.000   0.000   0.000   0.000   0.000   0.000  -0.000   0.000  -0.000   0.000   0.000
 -0.045   0.002   0.000   0.000   0.000   0.000   0.000   0.000   0.000   0.000   0.000  -0.000  -0.000
  0.000   0.000   0.115   0.000  -0.000  -0.012   0.000   0.000   0.000   0.000   0.000   0.000   0.000
  0.000   0.000  -0.000   0.115  -0.000   0.000  -0.012   0.000   0.000   0.000   0.000   0.000   0.000
  0.000   0.000   0.000  -0.000   0.115  -0.000   0.000  -0.012   0.000   0.000   0.000   0.000   0.000
  0.000   0.000  -0.012   0.000   0.000   0.001   0.000   0.000   0.000   0.000   0.000   0.000   0.000
  0.000   0.000   0.000  -0.012   0.000   0.000   0.001   0.000   0.000   0.000   0.000   0.000   0.000
  0.000   0.000   0.000   0.000  -0.012   0.000   0.000   0.001   0.000   0.000   0.000   0.000   0.000
 -0.000   0.000   0.000   0.000   0.000   0.000   0.000   0.000   0.013   0.000   0.000   0.000   0.000
 -0.000  -0.000   0.000   0.000   0.000   0.000   0.000   0.000   0.000   0.013   0.000  -0.000  -0.000
 -0.000   0.000   0.000   0.000   0.000   0.000   0.000   0.000  -0.000   0.000   0.049   0.000   0.000
  0.000   0.000   0.000   0.000   0.000   0.000   0.000   0.000   0.000  -0.000   0.000   0.013   0.000
  0.000  -0.000   0.000   0.000   0.000   0.000   0.000   0.000   0.000  -0.000   0.000   0.000   0.049


------------------------ aborting loop because EDIFF is reached ----------------------------------------


 


 total charge     
 
# of ion       s       p       d       tot
------------------------------------------
    1        0.145   0.172   0.075   0.391
    2        1.542   3.546   0.000   5.088
--------------------------------------------------
tot          1.687   3.718   0.075   5.480
 
    CHARGE:  cpu time    0.0000: real time    0.0030
    FORLOC:  cpu time    0.0000: real time    0.0002
    FORNL :  cpu time    0.0000: real time    0.0038
    STRESS:  cpu time    0.0560: real time    0.0571
    FORCOR:  cpu time    0.0040: real time    0.0018
    FORHAR:  cpu time    0.0000: real time    0.0005
    MIXING:  cpu time    0.0000: real time    0.0006
    OFIELD:  cpu time    0.0000: real time    0.0000

  FORCE on cell =-STRESS in cart. coord.  units (eV):
  Direction    XX          YY          ZZ          XY          YZ          ZX
  --------------------------------------------------------------------------------------
  Alpha Z    19.07806    19.07806    19.07806
  Ewald    -118.42187  -118.42187  -118.42187     0.00000     0.00000     0.00000
  Hartree    47.49119    47.49119    47.49119     0.00000     0.00000     0.00000
  E(xc)     -36.29797   -36.29797   -36.29797     0.00000     0.00000     0.00000
  Local     -41.50504   -41.50504   -41.50504     0.00005     0.00005     0.00005
  n-local   -19.05962   -19.66021   -17.32710    -0.50872     0.49777    -0.30528
  augment     6.82907     6.82907     6.82907    -0.00002    -0.00002    -0.00002
  Kinetic   143.21990   143.32532   137.98792     4.73764    -3.52087     2.30417
  Fock        0.00000     0.00000     0.00000     0.00000     0.00000     0.00000
  -------------------------------------------------------------------------------------
  Total       0.00219     0.00219     0.00219     0.00000     0.00000     0.00000
  in kB       0.18326     0.18326     0.18326     0.00000     0.00000     0.00000
  external pressure =        0.18 kB  Pullay stress =        0.00 kB


 VOLUME and BASIS-vectors are now :
 -----------------------------------------------------------------------------
  energy-cutoff  :      520.00
  volume of cell :       19.15
      direct lattice vectors                 reciprocal lattice vectors
     0.000000000  2.123375000  2.123375000    -0.235474186  0.235474186  0.235474186
     2.123375000  0.000000000  2.123375000     0.235474186 -0.235474186  0.235474186
     2.123375000  2.123375000  0.000000000     0.235474186  0.235474186 -0.235474186

  length of vectors
     3.002905723  3.002905723  3.002905723     0.407853254  0.407853254  0.407853254


 FORCES acting on ions
    electron-ion (+dipol)            ewald-force                    non-local-force                 convergence-correction
 -----------------------------------------------------------------------------------------------
   0.116E-14 -.152E-14 -.364E-14   -.448E-15 0.104E-15 0.175E-15   0.155E-24 -.155E-24 0.103E-24   -.833E-16 -.685E-16 -.913E-16
   -.488E-12 -.978E-13 -.252E-12   0.743E-15 -.918E-16 0.291E-15   -.827E-24 0.207E-24 0.620E-24   0.186E-13 0.137E-13 0.225E-13
 -----------------------------------------------------------------------------------------------
   -.487E-12 -.993E-13 -.255E-12   0.295E-15 0.126E-16 0.466E-15   -.672E-24 0.517E-25 0.724E-24   0.185E-13 0.136E-13 0.224E-13
 
 
 POSITION                                       TOTAL-FORCE (eV/Angst)
 -----------------------------------------------------------------------------------
      0.00000      0.00000      0.00000        -0.000000     -0.000000     -0.000000
      2.12337      2.12337      2.12337         0.000000      0.000000      0.000000
 -----------------------------------------------------------------------------------
    total drift:                               -0.000000     -0.000000     -0.000000


--------------------------------------------------------------------------------------------------------



  FREE ENERGIE OF THE ION-ELECTRON SYSTEM (eV)
  ---------------------------------------------------
  free  energy   TOTEN  =       -11.91175974 eV

  energy  without entropy=      -11.91175974  energy(sigma->0) =      -11.91175974
 


--------------------------------------------------------------------------------------------------------


    POTLOK:  cpu time    0.1040: real time    0.1041


--------------------------------------------------------------------------------------------------------




--------------------------------------------------------------------------------------------------------


  
 reached required accuracy - stopping structural energy minimisation
     LOOP+:  cpu time    2.1400: real time    2.1694
    4ORBIT:  cpu time    0.0000: real time    0.0000
 


 total charge     
 
# of ion       s       p       d       tot
------------------------------------------
    1        0.145   0.172   0.075   0.391
    2        1.542   3.546   0.000   5.088
--------------------------------------------------
tot          1.687   3.718   0.075   5.480
 

 total amount of memory used by VASP MPI-rank0    34063. kBytes
=======================================================================

   base      :      30000. kBytes
   nonl-proj :       3274. kBytes
   fftplans  :        117. kBytes
   grid      :        389. kBytes
   one-center:         16. kBytes
   wavefun   :        267. kBytes
 
  
  
 General timing and accounting informations for this job:
 ========================================================
  
                  Total CPU time used (sec):        2.792
                            User time (sec):        2.536
                          System time (sec):        0.256
                         Elapsed time (sec):        3.041
  
                   Maximum memory used (kb):       57212.
                   Average memory used (kb):           0.
  
                          Minor page faults:        13242
                          Major page faults:            9
                 Voluntary context switches:         1834
