PROCAR lm decomposed + phase
# of k-points:   29         # of bands:   18         # of ions:    2

 k-point     1 :    0.00000000 0.00000000 0.00000000     weight = 0.00195312

band     1 # energy  -14.13444465 # occ.  2.00000000
 
ion      s     py     pz     px    dxy    dyz    dz2    dxz  x2-y2    tot
    1  0.041  0.000  0.000  0.000  0.000  0.000  0.000  0.000  0.000  0.041
    2  0.672  0.000  0.000  0.000  0.000  0.000  0.000  0.000  0.000  0.672
tot    0.713  0.000  0.000  0.000  0.000  0.000  0.000  0.000  0.000  0.713
ion          s             py             pz             px             dxy            dyz            dz2            dxz          dx2-y2  
    1  0.193  0.000   0.000 -0.000   0.000  0.000  -0.000 -0.000  -0.000 -0.000  -0.000 -0.000   0.000 -0.000  -0.000 -0.000  -0.000  0.000   0.037
    2  0.808  0.001   0.000 -0.000  -0.000  0.000  -0.000 -0.000   0.000  0.000   0.000  0.000   0.000  0.000   0.000  0.000   0.000  0.000   0.653
charge 0.690          0.000          0.000          0.000          0.000          0.000          0.000          0.000          0.000          0.690       
 
band     2 # energy    3.00468712 # occ.  2.00000000
 
ion      s     py     pz     px    dxy    dyz    dz2    dxz  x2-y2    tot
    1  0.000  0.004  0.011  0.002  0.000  0.000  0.000  0.000  0.000  0.017
    2  0.000  0.185  0.490  0.073  0.000  0.000  0.000  0.000  0.000  0.747
tot    0.000  0.189  0.500  0.074  0.000  0.000  0.000  0.000  0.000  0.764
ion          s             py             pz             px             dxy            dyz            dz2            dxz          dx2-y2  
    1  0.000 -0.000   0.052 -0.036  -0.084  0.059   0.033 -0.023  -0.000 -0.000   0.000 -0.000  -0.000 -0.000   0.000  0.000  -0.000  0.000   0.016
    2 -0.000  0.000  -0.346  0.240   0.562 -0.391  -0.217  0.150   0.000  0.000   0.000  0.000   0.000  0.000   0.000  0.000   0.000  0.000   0.716
charge 0.000          0.181          0.480          0.071          0.000          0.000          0.000          0.000          0.000          0.732       
 
band     3 # energy    3.00468712 # occ.  2.00000000
 
ion      s     py     pz     px    dxy    dyz    dz2    dxz  x2-y2    tot
    1  0.000  0.007  0.000  0.009  0.000  0.000  0.000  0.000  0.000  0.017
    2  0.000  0.313  0.009  0.425  0.000  0.000  0.000  0.000  0.000  0.747
tot    0.000  0.320  0.009  0.435  0.000  0.000  0.000  0.000  0.000  0.764
ion          s             py             pz             px             dxy            dyz            dz2            dxz          dx2-y2  
    1 -0.000  0.000   0.038 -0.073   0.006 -0.012  -0.044  0.085   0.000  0.000   0.000 -0.000  -0.000 -0.000   0.000  0.000  -0.000 -0.000   0.016
    2  0.000 -0.000  -0.251  0.487  -0.042  0.081   0.292 -0.568   0.000  0.000   0.000  0.000   0.000  0.000   0.000  0.000   0.000  0.000   0.716
charge 0.000          0.307          0.008          0.417          0.000          0.000          0.000          0.000          0.000          0.732       
 
band     4 # energy    3.00469361 # occ.  2.00000000
 
ion      s     py     pz     px    dxy    dyz    dz2    dxz  x2-y2    tot
    1  0.000  0.006  0.006  0.006  0.000  0.000  0.000  0.000  0.000  0.017
    2  0.000  0.249  0.249  0.249  0.000  0.000  0.000  0.000  0.000  0.747
tot    0.000  0.255  0.254  0.255  0.000  0.000  0.000  0.000  0.000  0.764
ion          s             py             pz             px             dxy            dyz            dz2            dxz          dx2-y2  
    1  0.000 -0.000  -0.012  0.072  -0.012  0.072  -0.012  0.072  -0.000 -0.000  -0.000  0.000  -0.000  0.000   0.000  0.000   0.000  0.000   0.016
    2 -0.000 -0.000   0.077 -0.482   0.077 -0.482   0.077 -0.482   0.000  0.000   0.000  0.000   0.000  0.000   0.000  0.000   0.000  0.000   0.716
charge 0.000          0.244          0.244          0.244          0.000          0.000          0.000          0.000          0.000          0.732       
 
band     5 # energy    7.49538278 # occ.  0.00000000
 
ion      s     py     pz     px    dxy    dyz    dz2    dxz  x2-y2    tot
    1  0.238  0.000  0.000  0.000  0.000  0.000  0.000  0.000  0.000  0.238
    2  0.253  0.000  0.000  0.000  0.000  0.000  0.000  0.000  0.000  0.253
tot    0.492  0.000  0.000  0.000  0.000  0.000  0.000  0.000  0.000  0.492
ion          s             py             pz             px             dxy            dyz            dz2            dxz          dx2-y2  
    1 -0.474 -0.001   0.000 -0.000   0.000  0.000  -0.000 -0.000   0.000  0.000   0.000  0.000  -0.000 -0.000   0.000 -0.000   0.000  0.000   0.225
    2  0.498  0.001   0.000 -0.000  -0.000  0.000  -0.000 -0.000   0.000  0.000   0.000  0.000   0.000  0.000   0.000  0.000   0.000  0.000   0.248
charge 0.473          0.000          0.000          0.000          0.000          0.000          0.000          0.000          0.000          0.473       
 
band     6 # energy   18.66479033 # occ.  0.00000000
 
ion      s     py     pz     px    dxy    dyz    dz2    dxz  x2-y2    tot
    1  0.000  0.000  0.000  0.000  0.000  0.149  0.000  0.148  0.000  0.296
    2  0.000  0.000  0.000  0.000  0.000  0.000  0.000  0.000  0.000  0.000
tot    0.000  0.000  0.000  0.000  0.000  0.149  0.000  0.148  0.000  0.296
ion          s             py             pz             px             dxy            dyz            dz2            dxz          dx2-y2  
    1 -0.000  0.000   0.000 -0.000  -0.000  0.000  -0.000 -0.000   0.000 -0.000  -0.044  0.383   0.000 -0.000   0.044 -0.382  -0.000  0.000   0.296
    2 -0.000  0.000  -0.000  0.000   0.000 -0.000   0.000  0.000   0.000  0.000   0.000  0.000   0.000  0.000   0.000  0.000   0.000  0.000   0.000
charge 0.000          0.000          0.000          0.000          0.000          0.149          0.000          0.148          0.000          0.296       
 
band     7 # energy   18.66479038 # occ.  0.00000000
 
ion      s     py     pz     px    dxy    dyz    dz2    dxz  x2-y2    tot
    1  0.000  0.000  0.000  0.000  0.006  0.144  0.000  0.145  0.000  0.296
    2  0.000  0.000  0.000  0.000  0.000  0.000  0.000  0.000  0.000  0.000
tot    0.000  0.000  0.000  0.000  0.006  0.144  0.000  0.145  0.000  0.296
ion          s             py             pz             px             dxy            dyz            dz2            dxz          dx2-y2  
    1  0.000  0.000  -0.000  0.000   0.000 -0.000  -0.000  0.000  -0.080 -0.001   0.380  0.005  -0.000 -0.000   0.381  0.005  -0.000 -0.000   0.296
    2  0.000  0.000   0.000 -0.000  -0.000  0.000   0.000 -0.000   0.000  0.000   0.000  0.000   0.000  0.000   0.000  0.000   0.000  0.000   0.000
charge 0.000          0.000          0.000          0.000          0.006          0.144          0.000          0.145          0.000          0.296       
 
band     8 # energy   18.66479064 # occ.  0.00000000
 
ion      s     py     pz     px    dxy    dyz    dz2    dxz  x2-y2    tot
    1  0.000  0.000  0.000  0.000  0.290  0.003  0.000  0.003  0.000  0.296
    2  0.000  0.000  0.000  0.000  0.000  0.000  0.000  0.000  0.000  0.000
tot    0.000  0.000  0.000  0.000  0.290  0.003  0.000  0.003  0.000  0.296
ion          s             py             pz             px             dxy            dyz            dz2            dxz          dx2-y2  
    1 -0.000  0.000  -0.000 -0.000  -0.000 -0.000  -0.000  0.000  -0.538  0.002  -0.057  0.000  -0.000  0.000  -0.057  0.000   0.000 -0.000   0.296
    2 -0.000  0.000   0.000  0.000   0.000  0.000   0.000 -0.000   0.000  0.000   0.000  0.000   0.000  0.000   0.000  0.000   0.000  0.000   0.000
charge 0.000          0.000          0.000          0.000          0.290          0.003          0.000          0.003          0.000          0.296       
 
band     9 # energy   22.51726220 # occ.  0.00000000
 
ion      s     py     pz     px    dxy    dyz    dz2    dxz  x2-y2    tot
    1  0.000  0.000  0.000  0.000  0.000  0.000  0.000  0.000  0.000  0.000
    2  0.000  0.000  0.000  0.000  0.000  0.000  0.000  0.000  0.000  0.000
tot    0.000  0.000  0.000  0.000  0.000  0.000  0.000  0.000  0.000  0.000
ion          s             py             pz             px             dxy            dyz            dz2            dxz          dx2-y2  
    1 -0.000 -0.000   0.000 -0.000   0.000 -0.000   0.000 -0.000   0.000 -0.000  -0.000 -0.000   0.000 -0.000  -0.000  0.000  -0.000 -0.000   0.000
    2  0.000  0.000  -0.000  0.000  -0.000  0.000  -0.000  0.000   0.000  0.000   0.000  0.000   0.000  0.000   0.000  0.000   0.000  0.000   0.000
charge 0.000          0.000          0.000          0.000          0.000          0.000          0.000          0.000          0.000          0.000       
 
band    10 # energy   24.26311433 # occ.  0.00000000
 
ion      s     py     pz     px    dxy    dyz    dz2    dxz  x2-y2    tot
    1  0.000  0.000  0.000  0.000  0.000  0.000  0.000  0.000  0.511  0.511
    2  0.000  0.000  0.000  0.000  0.000  0.000  0.000  0.000  0.000  0.000
tot    0.000  0.000  0.000  0.000  0.000  0.000  0.000  0.000  0.511  0.511
ion          s             py             pz             px             dxy            dyz            dz2            dxz          dx2-y2  
    1 -0.000  0.000   0.000 -0.000  -0.000 -0.000  -0.000 -0.000   0.000 -0.000   0.000 -0.000  -0.013  0.002  -0.000  0.000  -0.702  0.134   0.511
    2  0.000 -0.000   0.000 -0.000  -0.000 -0.000  -0.000 -0.000   0.000  0.000   0.000  0.000   0.000  0.000   0.000  0.000   0.000  0.000   0.000
charge 0.000          0.000          0.000          0.000          0.000          0.000          0.000          0.000          0.511          0.511       
 
band    11 # energy   24.26311474 # occ.  0.00000000
 
ion      s     py     pz     px    dxy    dyz    dz2    dxz  x2-y2    tot
    1  0.000  0.000  0.000  0.000  0.000  0.000  0.511  0.000  0.000  0.511
    2  0.000  0.000  0.000  0.000  0.000  0.000  0.000  0.000  0.000  0.000
tot    0.000  0.000  0.000  0.000  0.000  0.000  0.511  0.000  0.000  0.511
ion          s             py             pz             px             dxy            dyz            dz2            dxz          dx2-y2  
    1  0.000  0.000  -0.000 -0.000  -0.000  0.000  -0.000  0.000   0.000  0.000  -0.000 -0.000  -0.582 -0.414  -0.000 -0.000   0.011  0.008   0.511
    2 -0.000 -0.000  -0.000 -0.000  -0.000 -0.000  -0.000  0.000   0.000  0.000   0.000  0.000   0.000  0.000   0.000  0.000   0.000  0.000   0.000
charge 0.000          0.000          0.000          0.000          0.000          0.000          0.511          0.000          0.000          0.511       
 
band    12 # energy   26.78153913 # occ.  0.00000000
 
ion      s     py     pz     px    dxy    dyz    dz2    dxz  x2-y2    tot
    1  0.000  0.166  0.379  0.043  0.000  0.000  0.000  0.000  0.000  0.588
    2  0.000  0.013  0.029  0.003  0.000  0.000  0.000  0.000  0.000  0.045
tot    0.000  0.179  0.408  0.046  0.000  0.000  0.000  0.000  0.000  0.633
ion          s             py             pz             px             dxy            dyz            dz2            dxz          dx2-y2  
    1  0.000  0.000   0.399  0.078  -0.603 -0.118   0.204  0.040  -0.000  0.000  -0.000 -0.000  -0.000  0.000  -0.000 -0.000  -0.000  0.000   0.586
    2 -0.000 -0.000   0.107  0.021  -0.162 -0.032   0.055  0.011   0.000  0.000   0.000  0.000   0.000  0.000   0.000  0.000   0.000  0.000   0.042
charge 0.000          0.177          0.405          0.046          0.000          0.000          0.000          0.000          0.000          0.629       
 
band    13 # energy   26.78153915 # occ.  0.00000000
 
ion      s     py     pz     px    dxy    dyz    dz2    dxz  x2-y2    tot
    1  0.000  0.226  0.013  0.349  0.000  0.000  0.000  0.000  0.000  0.588
    2  0.000  0.017  0.001  0.027  0.000  0.000  0.000  0.000  0.000  0.045
tot    0.000  0.244  0.014  0.375  0.000  0.000  0.000  0.000  0.000  0.633
ion          s             py             pz             px             dxy            dyz            dz2            dxz          dx2-y2  
    1 -0.000  0.000   0.036  0.474   0.009  0.115  -0.045 -0.588   0.000  0.000   0.000  0.000   0.000  0.000   0.000  0.000   0.000 -0.000   0.586
    2  0.000 -0.000   0.010  0.127   0.002  0.031  -0.012 -0.158   0.000  0.000   0.000  0.000   0.000  0.000   0.000  0.000   0.000  0.000   0.042
charge 0.000          0.242          0.014          0.373          0.000          0.000          0.000          0.000          0.000          0.629       
 
band    14 # energy   26.78155552 # occ.  0.00000000
 
ion      s     py     pz     px    dxy    dyz    dz2    dxz  x2-y2    tot
    1  0.000  0.196  0.196  0.196  0.000  0.000  0.000  0.000  0.000  0.588
    2  0.000  0.015  0.015  0.015  0.000  0.000  0.000  0.000  0.000  0.045
tot    0.000  0.211  0.211  0.211  0.000  0.000  0.000  0.000  0.000  0.633
ion          s             py             pz             px             dxy            dyz            dz2            dxz          dx2-y2  
    1  0.000  0.000  -0.118 -0.426  -0.118 -0.426  -0.118 -0.426  -0.000 -0.000  -0.000  0.000  -0.000 -0.000  -0.000  0.000  -0.000  0.000   0.586
    2 -0.000 -0.000  -0.032 -0.115  -0.032 -0.115  -0.032 -0.115   0.000  0.000   0.000  0.000   0.000  0.000   0.000  0.000   0.000  0.000   0.042
charge 0.000          0.210          0.209          0.210          0.000          0.000          0.000          0.000          0.000          0.629       
 
band    15 # energy   40.78359475 # occ.  0.00000000
 
ion      s     py     pz     px    dxy    dyz    dz2    dxz  x2-y2    tot
    1  0.000  0.000  0.001  0.000  0.000  0.000  0.000  0.000  0.000  0.002
    2  0.000  0.044  0.171  0.042  0.000  0.000  0.000  0.000  0.000  0.257
tot    0.000  0.044  0.172  0.042  0.000  0.000  0.000  0.000  0.000  0.258
ion          s             py             pz             px             dxy            dyz            dz2            dxz          dx2-y2  
    1  0.000  0.000   0.013  0.009  -0.027 -0.017   0.013  0.009   0.000 -0.000   0.000  0.000   0.000  0.000  -0.000  0.000   0.000  0.000   0.002
    2 -0.000  0.000   0.150  0.098  -0.297 -0.193   0.147  0.095   0.000  0.000   0.000  0.000   0.000  0.000   0.000  0.000   0.000  0.000   0.188
charge 0.000          0.032          0.127          0.031          0.000          0.000          0.000          0.000          0.000          0.190       
 
band    16 # energy   40.78359475 # occ.  0.00000000
 
ion      s     py     pz     px    dxy    dyz    dz2    dxz  x2-y2    tot
    1  0.000  0.001  0.000  0.001  0.000  0.000  0.000  0.000  0.000  0.002
    2  0.000  0.127  0.000  0.129  0.000  0.000  0.000  0.000  0.000  0.257
tot    0.000  0.128  0.000  0.130  0.000  0.000  0.000  0.000  0.000  0.258
ion          s             py             pz             px             dxy            dyz            dz2            dxz          dx2-y2  
    1  0.000 -0.000  -0.026 -0.009  -0.000 -0.000   0.026  0.010   0.000 -0.000  -0.000 -0.000   0.000 -0.000   0.000 -0.000  -0.000 -0.000   0.002
    2 -0.000 -0.000  -0.287 -0.106  -0.003 -0.001   0.289  0.107   0.000  0.000   0.000  0.000   0.000  0.000   0.000  0.000   0.000  0.000   0.188
charge 0.000          0.094          0.000          0.096          0.000          0.000          0.000          0.000          0.000          0.190       
 
band    17 # energy   40.78375481 # occ.  0.00000000
 
ion      s     py     pz     px    dxy    dyz    dz2    dxz  x2-y2    tot
    1  0.000  0.001  0.001  0.001  0.000  0.000  0.000  0.000  0.000  0.002
    2  0.000  0.086  0.086  0.086  0.000  0.000  0.000  0.000  0.000  0.257
tot    0.000  0.086  0.086  0.086  0.000  0.000  0.000  0.000  0.000  0.258
ion          s             py             pz             px             dxy            dyz            dz2            dxz          dx2-y2  
    1 -0.000 -0.000   0.008  0.021   0.008  0.021   0.008  0.021  -0.000 -0.000  -0.000  0.000   0.000 -0.000   0.000  0.000  -0.000 -0.000   0.002
    2 -0.000  0.000   0.087  0.235   0.087  0.235   0.087  0.235   0.000  0.000   0.000  0.000   0.000  0.000   0.000  0.000   0.000  0.000   0.188
charge 0.000          0.063          0.063          0.063          0.000          0.000          0.000          0.000          0.000          0.190       
 
band    18 # energy   41.18838077 # occ.  0.00000000
 
ion      s     py     pz     px    dxy    dyz    dz2    dxz  x2-y2    tot
    1  0.479  0.000  0.000  0.000  0.000  0.000  0.000  0.000  0.000  0.479
    2  0.000  0.000  0.000  0.000  0.000  0.000  0.000  0.000  0.000  0.000
tot    0.479  0.000  0.000  0.000  0.000  0.000  0.000  0.000  0.000  0.479
ion          s             py             pz             px             dxy            dyz            dz2            dxz          dx2-y2  
    1 -0.688 -0.001   0.000 -0.000  -0.000  0.000  -0.000 -0.000  -0.000 -0.000  -0.000 -0.000  -0.000 -0.000  -0.000 -0.000   0.000 -0.000   0.473
    2  0.004  0.000   0.000 -0.000  -0.000  0.000  -0.000 -0.000   0.000  0.000   0.000  0.000   0.000  0.000   0.000  0.000   0.000  0.000   0.000
charge 0.473          0.000          0.000          0.000          0.000          0.000          0.000          0.000          0.000          0.473       
 

 k-point     2 :    0.12500000 0.00000000 0.00000000     weight = 0.01562500

band     1 # energy  -13.97823155 # occ.  2.00000000
 
ion      s     py     pz     px    dxy    dyz    dz2    dxz  x2-y2    tot
    1  0.037  0.001  0.001  0.001  0.000  0.000  0.000  0.000  0.000  0.039
    2  0.681  0.000  0.000  0.000  0.000  0.000  0.000  0.000  0.000  0.682
tot    0.718  0.001  0.001  0.001  0.000  0.000  0.000  0.000  0.000  0.720
ion          s             py             pz             px             dxy            dyz            dz2            dxz          dx2-y2  
    1  0.072 -0.167   0.025  0.011   0.025  0.011  -0.025 -0.011   0.000 -0.000  -0.000  0.000  -0.000  0.000   0.000 -0.000   0.000  0.000   0.035
    2  0.322 -0.747   0.010  0.004   0.010  0.004  -0.010 -0.004   0.000  0.000   0.000  0.000   0.000  0.000   0.000  0.000   0.000  0.000   0.663
charge 0.695          0.001          0.001          0.001          0.000          0.000          0.000          0.000          0.000          0.698       
 
band     2 # energy    2.05911862 # occ.  2.00000000
 
ion      s     py     pz     px    dxy    dyz    dz2    dxz  x2-y2    tot
    1  0.038  0.003  0.003  0.003  0.001  0.001  0.000  0.001  0.000  0.050
    2  0.030  0.206  0.206  0.206  0.000  0.000  0.000  0.000  0.000  0.649
tot    0.068  0.210  0.210  0.210  0.001  0.001  0.000  0.001  0.000  0.699
ion          s             py             pz             px             dxy            dyz            dz2            dxz          dx2-y2  
    1  0.075 -0.172  -0.053 -0.023  -0.053 -0.023   0.053  0.023   0.011 -0.024  -0.011  0.024  -0.000  0.000   0.011 -0.024   0.000 -0.000   0.047
    2 -0.070  0.160   0.406  0.178   0.406  0.178  -0.406 -0.178   0.000  0.000   0.000  0.000   0.000  0.000   0.000  0.000   0.000  0.000   0.619
charge 0.066          0.200          0.200          0.200          0.001          0.001          0.000          0.001          0.000          0.667       
 
band     3 # energy    2.90599812 # occ.  2.00000000
 
ion      s     py     pz     px    dxy    dyz    dz2    dxz  x2-y2    tot
    1  0.000  0.007  0.007  0.000  0.000  0.000  0.003  0.000  0.001  0.019
    2  0.000  0.370  0.370  0.000  0.000  0.000  0.000  0.000  0.000  0.739
tot    0.000  0.377  0.377  0.000  0.000  0.000  0.003  0.000  0.001  0.758
ion          s             py             pz             px             dxy            dyz            dz2            dxz          dx2-y2  
    1 -0.000  0.000   0.053  0.063  -0.053 -0.063   0.000  0.000  -0.013  0.011   0.000 -0.000   0.043 -0.036   0.013 -0.011   0.025 -0.021   0.018
    2  0.000 -0.000  -0.384 -0.455   0.383  0.455  -0.000 -0.000   0.000  0.000   0.000  0.000   0.000  0.000   0.000  0.000   0.000  0.000   0.708
charge 0.000          0.361          0.361          0.000          0.000          0.000          0.003          0.000          0.001          0.727       
 
band     4 # energy    2.90600331 # occ.  2.00000000
 
ion      s     py     pz     px    dxy    dyz    dz2    dxz  x2-y2    tot
    1  0.000  0.002  0.002  0.009  0.000  0.000  0.001  0.000  0.003  0.019
    2  0.000  0.123  0.123  0.493  0.000  0.000  0.000  0.000  0.000  0.739
tot    0.000  0.125  0.126  0.502  0.000  0.000  0.001  0.000  0.003  0.758
ion          s             py             pz             px             dxy            dyz            dz2            dxz          dx2-y2  
    1  0.000 -0.000  -0.043 -0.021  -0.043 -0.021  -0.085 -0.043  -0.004  0.009  -0.009  0.018   0.015 -0.029  -0.004  0.009  -0.025  0.050   0.018
    2 -0.000  0.000   0.307  0.154   0.307  0.154   0.614  0.308   0.000  0.000   0.000  0.000   0.000  0.000   0.000  0.000   0.000  0.000   0.708
charge 0.000          0.120          0.120          0.481          0.000          0.000          0.001          0.000          0.003          0.727       
 
band     5 # energy    8.41275541 # occ.  0.00000000
 
ion      s     py     pz     px    dxy    dyz    dz2    dxz  x2-y2    tot
    1  0.195  0.006  0.006  0.006  0.000  0.000  0.000  0.000  0.000  0.213
    2  0.208  0.037  0.037  0.037  0.000  0.000  0.000  0.000  0.000  0.318
tot    0.402  0.043  0.043  0.043  0.000  0.000  0.000  0.000  0.000  0.531
ion          s             py             pz             px             dxy            dyz            dz2            dxz          dx2-y2  
    1 -0.169  0.395  -0.070 -0.030  -0.070 -0.030   0.070  0.030   0.005 -0.011  -0.005  0.011   0.000 -0.000   0.005 -0.011  -0.000  0.000   0.202
    2  0.177 -0.413   0.175  0.075   0.175  0.075  -0.175 -0.075   0.000  0.000   0.000  0.000   0.000  0.000   0.000  0.000   0.000  0.000   0.311
charge 0.386          0.042          0.042          0.042          0.000          0.000          0.000          0.000          0.000          0.513       
 
band     6 # energy   16.99338321 # occ.  0.00000000
 
ion      s     py     pz     px    dxy    dyz    dz2    dxz  x2-y2    tot
    1  0.003  0.009  0.009  0.009  0.061  0.061  0.000  0.061  0.000  0.213
    2  0.000  0.012  0.012  0.012  0.000  0.000  0.000  0.000  0.000  0.037
tot    0.003  0.021  0.021  0.021  0.061  0.061  0.000  0.061  0.000  0.250
ion          s             py             pz             px             dxy            dyz            dz2            dxz          dx2-y2  
    1  0.021 -0.048  -0.086 -0.037  -0.086 -0.037   0.086  0.037   0.098 -0.227  -0.098  0.227   0.000 -0.000   0.098 -0.227  -0.000  0.000   0.213
    2  0.001 -0.003  -0.102 -0.044  -0.102 -0.044   0.102  0.044   0.000  0.000   0.000  0.000   0.000  0.000   0.000  0.000   0.000  0.000   0.037
charge 0.003          0.021          0.021          0.021          0.061          0.061          0.000          0.061          0.000          0.250       
 
band     7 # energy   19.00871636 # occ.  0.00000000
 
ion      s     py     pz     px    dxy    dyz    dz2    dxz  x2-y2    tot
    1  0.000  0.011  0.010  0.000  0.132  0.000  0.001  0.142  0.000  0.296
    2  0.000  0.005  0.005  0.000  0.000  0.000  0.000  0.000  0.000  0.010
tot    0.000  0.016  0.015  0.000  0.132  0.000  0.001  0.142  0.000  0.306
ion          s             py             pz             px             dxy            dyz            dz2            dxz          dx2-y2  
    1  0.000  0.000  -0.101  0.012   0.098 -0.012  -0.004  0.000  -0.044 -0.361   0.002  0.013  -0.004 -0.029   0.046  0.374  -0.002 -0.018   0.296
    2  0.000  0.000  -0.071  0.009   0.068 -0.008  -0.003  0.000   0.000  0.000   0.000  0.000   0.000  0.000   0.000  0.000   0.000  0.000   0.010
charge 0.000          0.016          0.014          0.000          0.132          0.000          0.001          0.142          0.000          0.306       
 
band     8 # energy   19.00871868 # occ.  0.00000000
 
ion      s     py     pz     px    dxy    dyz    dz2    dxz  x2-y2    tot
    1  0.000  0.003  0.004  0.014  0.051  0.183  0.000  0.041  0.001  0.296
    2  0.000  0.001  0.002  0.007  0.000  0.000  0.000  0.000  0.000  0.010
tot    0.000  0.004  0.006  0.020  0.051  0.183  0.000  0.041  0.001  0.306
ion          s             py             pz             px             dxy            dyz            dz2            dxz          dx2-y2  
    1  0.000 -0.000   0.046  0.029   0.052  0.033   0.098  0.062   0.120 -0.191   0.228 -0.362   0.010 -0.015   0.108 -0.171  -0.016  0.025   0.296
    2  0.000 -0.000   0.032  0.020   0.036  0.023   0.068  0.043   0.000  0.000   0.000  0.000   0.000  0.000   0.000  0.000   0.000  0.000   0.010
charge 0.000          0.004          0.006          0.020          0.051          0.183          0.000          0.041          0.001          0.306       
 
band     9 # energy   23.25423252 # occ.  0.00000000
 
ion      s     py     pz     px    dxy    dyz    dz2    dxz  x2-y2    tot
    1  0.000  0.126  0.026  0.037  0.002  0.003  0.058  0.011  0.224  0.488
    2  0.000  0.000  0.000  0.000  0.000  0.000  0.000  0.000  0.000  0.000
tot    0.000  0.126  0.026  0.037  0.002  0.003  0.058  0.011  0.224  0.488
ion          s             py             pz             px             dxy            dyz            dz2            dxz          dx2-y2  
    1  0.000 -0.000   0.345  0.074  -0.157 -0.034   0.189  0.041   0.010 -0.047  -0.012  0.057  -0.051  0.235  -0.022  0.104  -0.100  0.463   0.487
    2 -0.000  0.000  -0.009 -0.002   0.004  0.001  -0.005 -0.001   0.000  0.000   0.000  0.000   0.000  0.000   0.000  0.000   0.000  0.000   0.000
charge 0.000          0.125          0.026          0.037          0.002          0.003          0.058          0.011          0.224          0.487       
 
band    10 # energy   23.25423275 # occ.  0.00000000
 
ion      s     py     pz     px    dxy    dyz    dz2    dxz  x2-y2    tot
    1  0.000  0.000  0.100  0.089  0.009  0.008  0.224  0.000  0.058  0.488
    2  0.000  0.000  0.000  0.000  0.000  0.000  0.000  0.000  0.000  0.000
tot    0.000  0.000  0.100  0.089  0.009  0.008  0.224  0.000  0.058  0.488
ion          s             py             pz             px             dxy            dyz            dz2            dxz          dx2-y2  
    1 -0.000  0.000   0.019  0.001  -0.314 -0.023  -0.296 -0.022   0.007 -0.094   0.006 -0.089  -0.035  0.472  -0.000  0.006   0.018 -0.240   0.487
    2  0.000 -0.000  -0.000 -0.000   0.008  0.001   0.008  0.001   0.000  0.000   0.000  0.000   0.000  0.000   0.000  0.000   0.000  0.000   0.000
charge 0.000          0.000          0.099          0.088          0.009          0.008          0.224          0.000          0.058          0.487       
 
band    11 # energy   24.59197967 # occ.  0.00000000
 
ion      s     py     pz     px    dxy    dyz    dz2    dxz  x2-y2    tot
    1  0.016  0.041  0.041  0.041  0.005  0.005  0.000  0.005  0.000  0.154
    2  0.000  0.007  0.007  0.007  0.000  0.000  0.000  0.000  0.000  0.021
tot    0.016  0.048  0.048  0.048  0.005  0.005  0.000  0.005  0.000  0.175
ion          s             py             pz             px             dxy            dyz            dz2            dxz          dx2-y2  
    1 -0.049  0.114   0.186  0.081   0.186  0.081  -0.186 -0.081  -0.028  0.064   0.028 -0.064   0.000 -0.000  -0.028  0.064  -0.000  0.000   0.153
    2 -0.007  0.016   0.075  0.033   0.075  0.033  -0.075 -0.033   0.000  0.000   0.000  0.000   0.000  0.000   0.000  0.000   0.000  0.000   0.020
charge 0.016          0.048          0.048          0.048          0.005          0.005          0.000          0.005          0.000          0.174       
 
band    12 # energy   27.02361362 # occ.  0.00000000
 
ion      s     py     pz     px    dxy    dyz    dz2    dxz  x2-y2    tot
    1  0.059  0.111  0.111  0.111  0.046  0.046  0.000  0.046  0.000  0.531
    2  0.001  0.005  0.005  0.005  0.000  0.000  0.000  0.000  0.000  0.015
tot    0.060  0.116  0.116  0.116  0.046  0.046  0.000  0.046  0.000  0.546
ion          s             py             pz             px             dxy            dyz            dz2            dxz          dx2-y2  
    1 -0.097  0.222   0.305  0.134   0.305  0.134  -0.305 -0.134   0.086 -0.196  -0.086  0.196   0.000 -0.000   0.086 -0.196  -0.000  0.000   0.529
    2 -0.008  0.019   0.062  0.027   0.062  0.027  -0.062 -0.027   0.000  0.000   0.000  0.000   0.000  0.000   0.000  0.000   0.000  0.000   0.014
charge 0.059          0.116          0.116          0.116          0.046          0.046          0.000          0.046          0.000          0.544       
 
band    13 # energy   28.45452740 # occ.  0.00000000
 
ion      s     py     pz     px    dxy    dyz    dz2    dxz  x2-y2    tot
    1  0.000  0.185  0.183  0.000  0.008  0.000  0.188  0.009  0.064  0.638
    2  0.000  0.030  0.030  0.000  0.000  0.000  0.000  0.000  0.000  0.061
tot    0.000  0.216  0.213  0.000  0.008  0.000  0.188  0.009  0.064  0.699
ion          s             py             pz             px             dxy            dyz            dz2            dxz          dx2-y2  
    1 -0.000  0.000   0.355  0.242  -0.353 -0.241   0.002  0.001   0.052 -0.076  -0.000  0.000   0.244 -0.359  -0.052  0.076   0.143 -0.209   0.637
    2  0.000  0.000   0.139  0.095  -0.138 -0.094   0.001  0.001   0.000  0.000   0.000  0.000   0.000  0.000   0.000  0.000   0.000  0.000   0.056
charge 0.000          0.213          0.211          0.000          0.008          0.000          0.188          0.009          0.064          0.694       
 
band    14 # energy   28.45454620 # occ.  0.00000000
 
ion      s     py     pz     px    dxy    dyz    dz2    dxz  x2-y2    tot
    1  0.000  0.060  0.062  0.246  0.003  0.011  0.064  0.003  0.188  0.638
    2  0.000  0.010  0.010  0.040  0.000  0.000  0.000  0.000  0.000  0.061