       N       E                     dE             d eps       ncg     rms          ort
DAV:   1     0.139699900456E+03    0.13970E+03   -0.28994E+03    36   0.216E+02
DAV:   2     0.111225811060E+03   -0.28474E+02   -0.28311E+02    36   0.285E+01
DAV:   3     0.425870540444E+02   -0.68639E+02   -0.66115E+02    36   0.278E+01
DAV:   4     0.518370713827E+01   -0.37403E+02   -0.37403E+02    36   0.435E+01
DAV:   5     0.578079879647E+00   -0.46056E+01   -0.46056E+01    36   0.143E+01
SDA:   6     0.599470531745E+00    0.21391E-01   -0.13416E+01    36   0.335E+01 0.000E+00
DMP:   7     0.965459346688E-01   -0.50292E+00   -0.29785E+00    36   0.107E+01-0.856E+00
DMP:   8    -0.849139787691E-01   -0.18146E+00   -0.10818E+00    36   0.218E+00 0.139E+00
DMP:   9    -0.102281072032E+00   -0.17367E-01   -0.29673E-01    36   0.146E+00-0.188E+00
DMP:  10    -0.121297399823E+00   -0.19016E-01   -0.20393E-01    36   0.436E-01 0.193E-01
DMP:  11    -0.129523953605E+00   -0.82266E-02   -0.61520E-02    36   0.193E-01-0.102E-01
DMP:  12    -0.133756689695E+00   -0.42327E-02   -0.39975E-02    36   0.785E-02 0.562E-02
DMP:  13    -0.135873735502E+00   -0.21170E-02   -0.84898E-03    36   0.191E-02 0.555E-03
DMP:  14    -0.136409208433E+00   -0.53547E-03   -0.64912E-03    36   0.142E-02 0.538E-03
DMP:  15    -0.136843145702E+00   -0.43394E-03   -0.22528E-03    36   0.358E-03 0.536E-03
DMP:  16    -0.136990174034E+00   -0.14703E-03   -0.11150E-03    36   0.216E-03 0.164E-03
DMP:  17    -0.137075757886E+00   -0.85584E-04   -0.56594E-04    36   0.862E-04 0.145E-03
DMP:  18    -0.137115858031E+00   -0.40100E-04   -0.20267E-04    36   0.289E-04 0.570E-04
   1 F= -.13711586E+00 E0= -.13711586E+00  d E =-.137116E+00  mag=     0.0000
