<?xml version="1.0" encoding="ISO-8859-1"?>
<modeling>
 <generator>
  <i name="program" type="string">vasp </i>
  <i name="version" type="string">5.4.4.18Apr17-6-g9f103f2a35  </i>
  <i name="subversion" type="string">(build Nov 08 2019 15:19:53) gamma-only         parallel </i>
  <i name="platform" type="string">LinuxIFC </i>
  <i name="date" type="string">2020 11 30 </i>
  <i name="time" type="string">09:31:12 </i>
 </generator>
 <incar>
  <i type="string" name="PREC">accurate</i>
  <i type="string" name="ALGO"> D</i>
  <i type="int" name="ISPIN">     2</i>
  <i type="int" name="NELM">   300</i>
  <i type="int" name="IBRION">     2</i>
  <i name="EDIFF">      0.00005000</i>
  <i type="int" name="NSW">    99</i>
  <i type="int" name="ISIF">     2</i>
  <i name="ENCUT">    520.00000000</i>
  <v name="MAGMOM">      0.60000000</v>
  <i type="string" name="LREAL"> Auto</i>
  <i type="int" name="ISMEAR">     0</i>
  <i name="SIGMA">      0.05000000</i>
  <i type="logical" name="LWAVE"> F  </i>
  <i type="int" name="LORBIT">    11</i>
  <i type="logical" name="LASPH"> T  </i>
  <v type="int" name="KPOINT_BSE">    -1     0     0     0</v>
  <i type="int" name="NELM">   300</i>
  <i type="logical" name="LASPH"> T  </i>
 </incar>
 <structure name="primitive_cell" >
  <crystal>
   <varray name="basis" >
    <v>      10.00000000       0.00000000       0.00000000 </v>
    <v>       0.00000000      10.00000000       0.00000000 </v>
    <v>       0.00000000       0.00000000      10.00000000 </v>
   </varray>
   <i name="volume">   1000.00000000 </i>
   <varray name="rec_basis" >
    <v>       0.10000000       0.00000000       0.00000000 </v>
    <v>       0.00000000       0.10000000       0.00000000 </v>
    <v>       0.00000000       0.00000000       0.10000000 </v>
   </varray>
  </crystal>
  <varray name="positions" >
   <v>      -0.50000000      -0.50000000      -0.50000000 </v>
  </varray>
 </structure>
 <varray name="primitive_index" >
  <v type="int" >        1 </v>
 </varray>
 <kpoints>
  <generation param="Gamma">
   <v type="int" name="divisions">       1        1        1 </v>
   <v name="usershift">      0.00000000       0.00000000       0.00000000 </v>
   <v name="genvec1">      1.00000000       0.00000000       0.00000000 </v>
   <v name="genvec2">      0.00000000       1.00000000       0.00000000 </v>
   <v name="genvec3">      0.00000000       0.00000000       1.00000000 </v>
   <v name="shift">      0.00000000       0.00000000       0.00000000 </v>
  </generation>
  <varray name="kpointlist" >
   <v>       0.00000000       0.00000000       0.00000000 </v>
  </varray>
  <varray name="weights" >
   <v>       1.00000000 </v>
  </varray>
 </kpoints>
 <parameters>
  <separator name="general" >
   <i type="string" name="SYSTEM">unknown system</i>
   <i type="logical" name="LCOMPAT"> F  </i>
  </separator>
  <separator name="electronic" >
   <i type="string" name="PREC">accura</i>
   <i name="ENMAX">    520.00000000</i>
   <i name="ENAUG">    351.16500000</i>
   <i name="EDIFF">      0.00005000</i>
   <i type="int" name="IALGO">    53</i>
   <i type="int" name="IWAVPR">    11</i>
   <i type="int" name="NBANDS">    36</i>
   <i name="NELECT">     10.00000000</i>
   <i type="int" name="TURBO">     0</i>
   <i type="int" name="IRESTART">     0</i>
   <i type="int" name="NREBOOT">     0</i>
   <i type="int" name="NMIN">     0</i>
   <i name="EREF">      0.00000000</i>
   <separator name="electronic smearing" >
    <i type="int" name="ISMEAR">     0</i>
    <i name="SIGMA">      0.05000000</i>
    <i name="KSPACING">      0.50000000</i>
    <i type="logical" name="KGAMMA"> T  </i>
   </separator>
   <separator name="electronic projectors" >
    <i type="logical" name="LREAL"> T  </i>
    <v name="ROPT">     -0.00025000</v>
    <i type="int" name="LMAXPAW">  -100</i>
    <i type="int" name="LMAXMIX">     2</i>
    <i type="logical" name="NLSPLINE"> F  </i>
   </separator>
   <separator name="electronic startup" >
    <i type="int" name="ISTART">     0</i>
    <i type="int" name="ICHARG">     2</i>
    <i type="int" name="INIWAV">     1</i>
   </separator>
   <separator name="electronic spin" >
    <i type="int" name="ISPIN">     2</i>
    <i type="logical" name="LNONCOLLINEAR"> F  </i>
    <v name="MAGMOM">      0.60000000</v>
    <i name="NUPDOWN">     -1.00000000</i>
    <i type="logical" name="LSORBIT"> F  </i>
    <v name="SAXIS">      0.00000000      0.00000000      1.00000000</v>
    <i type="logical" name="LSPIRAL"> F  </i>
    <v name="QSPIRAL">      0.00000000      0.00000000      0.00000000</v>
    <i type="logical" name="LZEROZ"> F  </i>
   </separator>
   <separator name="electronic exchange-correlation" >
    <i type="logical" name="LASPH"> T  </i>
    <i type="logical" name="LMETAGGA"> F  </i>
   </separator>
   <separator name="electronic convergence" >
    <i type="int" name="NELM">   300</i>
    <i type="int" name="NELMDL">    -5</i>
    <i type="int" name="NELMIN">     2</i>
    <i name="ENINI">    520.00000000</i>
    <separator name="electronic convergence detail" >
     <i type="logical" name="LDIAG"> T  </i>
     <i type="logical" name="LSUBROT"> F  </i>
     <i name="WEIMIN">      0.00100000</i>
     <i name="EBREAK">      0.00000035</i>
     <i name="DEPER">      0.30000000</i>
     <i type="int" name="NRMM">     4</i>
     <i name="TIME">      0.40000000</i>
    </separator>
   </separator>
   <separator name="electronic mixer" >
    <i name="AMIX">      0.40000000</i>
    <i name="BMIX">      1.00000000</i>
    <i name="AMIN">      0.10000000</i>
    <i name="AMIX_MAG">      1.60000000</i>
    <i name="BMIX_MAG">      1.00000000</i>
    <separator name="electronic mixer details" >
     <i type="int" name="IMIX">     4</i>
     <i type="logical" name="MIXFIRST"> F  </i>
     <i type="int" name="MAXMIX">   -45</i>
     <i name="WC">    100.00000000</i>
     <i type="int" name="INIMIX">     1</i>
     <i type="int" name="MIXPRE">     1</i>
     <i type="int" name="MREMOVE">     5</i>
    </separator>
   </separator>
   <separator name="electronic dipolcorrection" >
    <i type="logical" name="LDIPOL"> F  </i>
    <i type="logical" name="LMONO"> F  </i>
    <i type="int" name="IDIPOL">     0</i>
    <i name="EPSILON">      1.00000000</i>
    <v name="DIPOL">   -100.00000000   -100.00000000   -100.00000000</v>
    <i name="EFIELD">      0.00000000</i>
   </separator>
  </separator>
  <separator name="grids" >
   <i type="int" name="NGX">    80</i>
   <i type="int" name="NGY">    80</i>
   <i type="int" name="NGZ">    80</i>
   <i type="int" name="NGXF">   160</i>
   <i type="int" name="NGYF">   160</i>
   <i type="int" name="NGZF">   160</i>
   <i type="logical" name="ADDGRID"> F  </i>
  </separator>
  <separator name="ionic" >
   <i type="int" name="NSW">    99</i>
   <i type="int" name="IBRION">     2</i>
   <i type="int" name="MDALGO">     0</i>
   <i type="int" name="ISIF">     2</i>
   <i name="PSTRESS">      0.00000000</i>
   <i name="EDIFFG">      0.00050000</i>
   <i type="int" name="NFREE">     1</i>
   <i name="POTIM">      0.50000000</i>
   <i name="SMASS">     -3.00000000</i>
   <i name="SCALEE">      1.00000000</i>
  </separator>
  <separator name="ionic md" >
   <i name="TEBEG">      0.00010000</i>
   <i name="TEEND">      0.00010000</i>
   <i type="int" name="NBLOCK">     1</i>
   <i type="int" name="KBLOCK">    99</i>
   <i type="int" name="NPACO">   256</i>
   <i name="APACO">     16.00000000</i>
  </separator>
  <separator name="symmetry" >
   <i type="int" name="ISYM">     2</i>
   <i name="SYMPREC">      0.00001000</i>
  </separator>
  <separator name="dos" >
   <i type="int" name="LORBIT">    11</i>
   <v name="RWIGS">     -1.00000000</v>
   <i type="int" name="NEDOS">   301</i>
   <i name="EMIN">     10.00000000</i>
   <i name="EMAX">    -10.00000000</i>
   <i name="EFERMI">      0.00000000</i>
  </separator>
  <separator name="writing" >
   <i type="int" name="NWRITE">     2</i>
   <i type="logical" name="LWAVE"> F  </i>
   <i type="logical" name="LDOWNSAMPLE"> F  </i>
   <i type="logical" name="LCHARG"> T  </i>
   <i type="logical" name="LPARD"> F  </i>
   <i type="logical" name="LVTOT"> F  </i>
   <i type="logical" name="LVHAR"> F  </i>
   <i type="logical" name="LELF"> F  </i>
   <i type="logical" name="LOPTICS"> F  </i>
   <v name="STM">      0.00000000      0.00000000      0.00000000      0.00000000      0.00000000      0.00000000      0.00000000</v>
  </separator>
  <separator name="performance" >
   <i type="int" name="NPAR">    36</i>
   <i type="int" name="NSIM">     4</i>
   <i type="int" name="NBLK">    -1</i>
   <i type="logical" name="LPLANE"> T  </i>
   <i type="logical" name="LSCALAPACK"> T  </i>
   <i type="logical" name="LSCAAWARE"> F  </i>
   <i type="logical" name="LSCALU"> F  </i>
   <i type="logical" name="LASYNC"> F  </i>
   <i type="logical" name="LORBITALREAL"> F  </i>
  </separator>
  <separator name="miscellaneous" >
   <i type="int" name="IDIOT">     3</i>
   <i type="int" name="ISPECIAL">     0</i>
   <i type="logical" name="LMUSIC"> F  </i>
   <v name="POMASS">    137.32700000</v>
   <v name="DARWINR">      0.00000000</v>
   <v name="DARWINV">      1.00000000</v>
   <i type="logical" name="LCORR"> T  </i>
  </separator>
  <i type="logical" name="GGA_COMPAT"> T  </i>
  <i type="logical" name="LBERRY"> F  </i>
  <i type="int" name="ICORELEVEL">     0</i>
  <i type="logical" name="LDAU"> F  </i>
  <i type="int" name="I_CONSTRAINED_M">     0</i>
  <separator name="electronic exchange-correlation" >
   <i type="string" name="GGA">--</i>
   <i type="int" name="VOSKOWN">     0</i>
   <i type="logical" name="LHFCALC"> F  </i>
   <i type="string" name="PRECFOCK"></i>
   <i type="logical" name="LSYMGRAD"> F  </i>
   <i type="logical" name="LHFONE"> F  </i>
   <i type="logical" name="LRHFCALC"> F  </i>
   <i type="logical" name="LTHOMAS"> F  </i>
   <i type="logical" name="LMODELHF"> F  </i>
   <i name="ENCUT4O">     -1.00000000</i>
   <i type="int" name="EXXOEP">     0</i>
   <i type="int" name="FOURORBIT">     0</i>
   <i name="AEXX">      0.00000000</i>
   <i name="HFALPHA">      0.00000000</i>
   <i name="MCALPHA">      0.00000000</i>
   <i name="ALDAX">      1.00000000</i>
   <i name="AGGAX">      1.00000000</i>
   <i name="ALDAC">      1.00000000</i>
   <i name="AGGAC">      1.00000000</i>
   <i type="int" name="NKREDX">     1</i>
   <i type="int" name="NKREDY">     1</i>
   <i type="int" name="NKREDZ">     1</i>
   <i type="logical" name="SHIFTRED"> F  </i>
   <i type="logical" name="ODDONLY"> F  </i>
   <i type="logical" name="EVENONLY"> F  </i>
   <i type="int" name="LMAXFOCK">     0</i>
   <i type="int" name="NMAXFOCKAE">     0</i>
   <i type="logical" name="LFOCKAEDFT"> F  </i>
   <i name="HFSCREEN">      0.00000000</i>
   <i name="HFSCREENC">      0.00000000</i>
   <i type="int" name="NBANDSGWLOW">     0</i>
  </separator>
  <separator name="vdW DFT" >
   <i type="logical" name="LUSE_VDW"> F  </i>
   <i name="Zab_VDW">     -0.84910000</i>
   <i name="PARAM1">      0.12340000</i>
   <i name="PARAM2">      1.00000000</i>
   <i name="PARAM3">      0.00000000</i>
  </separator>
  <separator name="model GW" >
   <i type="int" name="MODEL_GW">     0</i>
   <i name="MODEL_EPS0">    600.00000000</i>
   <i name="MODEL_ALPHA">      1.00000000</i>
  </separator>
  <separator name="linear response parameters" >
   <i type="logical" name="LEPSILON"> F  </i>
   <i type="logical" name="LRPA"> F  </i>
   <i type="logical" name="LNABLA"> F  </i>
   <i type="logical" name="LVEL"> F  </i>
   <i type="int" name="KINTER">     0</i>
   <i name="CSHIFT">      0.10000000</i>
   <i name="OMEGAMAX">     -1.00000000</i>
   <i name="DEG_THRESHOLD">      0.00200000</i>
   <i name="RTIME">     -0.10000000</i>
   <i name="WPLASMAI">      0.00000000</i>
   <v name="DFIELD">      0.00000000      0.00000000      0.00000000</v>
   <v name="WPLASMA">      0.00000000      0.00000000      0.00000000      0.00000000      0.00000000      0.00000000      0.00000000      0.00000000      0.00000000</v>
  </separator>
  <separator name="orbital magnetization" >
   <i type="logical" name="NUCIND"> F  </i>
   <v name="MAGPOS">      0.00000000      0.00000000      0.00000000</v>
   <i type="logical" name="LNICSALL"> T  </i>
   <i type="logical" name="ORBITALMAG"> F  </i>
   <i type="logical" name="LMAGBLOCH"> F  </i>
   <i type="logical" name="LCHIMAG"> F  </i>
   <i type="logical" name="LGAUGE"> T  </i>
   <i type="int" name="MAGATOM">     0</i>
   <v name="MAGDIPOL">      0.00000000      0.00000000      0.00000000</v>
   <v name="AVECCONST">      0.00000000      0.00000000      0.00000000</v>
  </separator>
  <separator name="response functions" >
   <i type="logical" name="LADDER"> F  </i>
   <i type="logical" name="LRPAFORCE"> F  </i>
   <i type="logical" name="LFXC"> F  </i>
   <i type="logical" name="LHARTREE"> T  </i>
   <i type="int" name="IBSE">     0</i>
   <v type="int" name="KPOINT">    -1     0     0     0</v>
   <i type="logical" name="LTCTE"> F  </i>
   <i type="logical" name="LTETE"> F  </i>
   <i type="logical" name="LTRIPLET"> F  </i>
   <i type="logical" name="LFXCEPS"> F  </i>
   <i type="logical" name="LFXHEG"> F  </i>
   <i type="int" name="NATURALO">     2</i>
   <i type="logical" name="L2ORDER"> F  </i>
   <i type="logical" name="LMP2LT"> F  </i>
   <i type="logical" name="LUSEW"> F  </i>
   <i name="ENCUTGW">     -2.00000000</i>
   <i name="ENCUTGWSOFT">     -2.00000000</i>
   <i name="ENCUTLF">     -1.00000000</i>
   <i type="int" name="LMAXMP2">    -1</i>
   <i name="SCISSOR">      0.00000000</i>
   <i type="int" name="NOMEGA">     0</i>
   <i type="int" name="NOMEGAR">     0</i>
   <i type="int" name="NBANDSGW">    -1</i>
   <i type="int" name="NBANDSO">    -1</i>
   <i type="int" name="NBANDSV">    -1</i>
   <i type="int" name="NELM">   300</i>
   <i type="int" name="NELMHF">     1</i>
   <i type="int" name="DIM">     3</i>
   <i type="int" name="ANTIRES">     0</i>
   <i name="OMEGAMAX">    -30.00000000</i>
   <i name="OMEGAMIN">    -30.00000000</i>
   <i name="OMEGATL">   -200.00000000</i>
   <i type="int" name="OMEGAGRID">   140</i>
   <i name="CSHIFT">     -0.10000000</i>
   <i type="logical" name="SELFENERGY"> F  </i>
   <i type="logical" name="LSPECTRAL"> F  </i>
   <i type="logical" name="LSPECTRALGW"> F  </i>
   <i type="logical" name="LSINGLES"> F  </i>
   <i type="logical" name="LFERMIGW"> F  </i>
   <i type="logical" name="ODDONLYGW"> F  </i>
   <i type="logical" name="EVENONLYGW"> F  </i>
   <i type="int" name="NKREDLFX">     1</i>
   <i type="int" name="NKREDLFY">     1</i>
   <i type="int" name="NKREDLFZ">     1</i>
   <i type="int" name="MAXMEM">  2800</i>
   <i type="int" name="TELESCOPE">     0</i>
   <i type="int" name="TAUPAR">     1</i>
   <i type="int" name="OMEGAPAR">    -1</i>
   <i name="LAMBDA">      1.00000000</i>
  </separator>
  <separator name="External order field" >
   <i name="OFIELD_KAPPA">      0.00000000</i>
   <v name="OFIELD_K">      0.00000000      0.00000000      0.00000000</v>
   <i name="OFIELD_Q6_NEAR">      0.00000000</i>
   <i name="OFIELD_Q6_FAR">      0.00000000</i>
   <i name="OFIELD_A">      0.00000000</i>
  </separator>
 </parameters>
 <atominfo>
  <atoms>       1 </atoms>
  <types>       1 </types>
  <array name="atoms" >
   <dimension dim="1">ion</dimension>
   <field type="string">element</field>
   <field type="int">atomtype</field>
   <set>
    <rc><c>Ba</c><c>   1</c></rc>
   </set>
  </array>
  <array name="atomtypes" >
   <dimension dim="1">type</dimension>
   <field type="int">atomspertype</field>
   <field type="string">element</field>
   <field>mass</field>
   <field>valence</field>
   <field type="string">pseudopotential</field>
   <set>
    <rc><c>   1</c><c>Ba</c><c>    137.32700000</c><c>     10.00000000</c><c>  PAW_PBE Ba_sv 06Sep2000               </c></rc>
   </set>
  </array>
 </atominfo>
 <structure name="initialpos" >
  <crystal>
   <varray name="basis" >
    <v>      10.00000000       0.00000000       0.00000000 </v>
    <v>       0.00000000      10.00000000       0.00000000 </v>
    <v>       0.00000000       0.00000000      10.00000000 </v>
   </varray>
   <i name="volume">   1000.00000000 </i>
   <varray name="rec_basis" >
    <v>       0.10000000       0.00000000       0.00000000 </v>
    <v>       0.00000000       0.10000000       0.00000000 </v>
    <v>       0.00000000       0.00000000       0.10000000 </v>
   </varray>
  </crystal>
  <varray name="positions" >
   <v>       0.50000000       0.50000000       0.50000000 </v>
  </varray>
 </structure>
 <calculation>
  <scstep>
   <time name="total">    0.84    0.85</time>
   <energy>
    <i name="alphaZ">      2.62424330 </i>
    <i name="ewald">   -204.28240005 </i>
    <i name="hartreedc">   -343.25770745 </i>
    <i name="XCdc">     23.14242328 </i>
    <i name="pawpsdc">    517.32694270 </i>
    <i name="pawaedc">   -514.69929582 </i>
    <i name="eentropy">     -0.00216471 </i>
    <i name="bandstr">    -42.00761326 </i>
    <i name="atom">    700.85547246 </i>
    <i name="e_fr_energy">    139.69990046 </i>
    <i name="e_wo_entrp">    139.70206517 </i>
    <i name="e_0_energy">    139.70098281 </i>
   </energy>
  </scstep>
  <scstep>
   <time name="total">    0.36    0.36</time>
   <energy>
    <i name="e_fr_energy">    111.22581106 </i>
    <i name="e_wo_entrp">    111.24220723 </i>
    <i name="e_0_energy">    111.23400915 </i>
   </energy>
  </scstep>
  <scstep>
   <time name="total">    0.36    0.36</time>
   <energy>
    <i name="e_fr_energy">     42.58705404 </i>
    <i name="e_wo_entrp">     42.58705404 </i>
    <i name="e_0_energy">     42.58705404 </i>
   </energy>
  </scstep>
  <scstep>
   <time name="total">    0.37    0.37</time>
   <energy>
    <i name="e_fr_energy">      5.18370714 </i>
    <i name="e_wo_entrp">      5.18370714 </i>
    <i name="e_0_energy">      5.18370714 </i>
   </energy>
  </scstep>
  <scstep>
   <time name="total">    0.61    0.61</time>
   <energy>
    <i name="e_fr_energy">      0.57807988 </i>
    <i name="e_wo_entrp">      0.57807988 </i>
    <i name="e_0_energy">      0.57807988 </i>
   </energy>
  </scstep>
  <scstep>
   <time name="total">    1.01    1.01</time>
   <energy>
    <i name="e_fr_energy">      0.59947053 </i>
    <i name="e_wo_entrp">      0.59947053 </i>
    <i name="e_0_energy">      0.59947053 </i>
   </energy>
  </scstep>
  <scstep>
   <time name="total">    0.93    0.93</time>
   <energy>
    <i name="e_fr_energy">      0.09654593 </i>
    <i name="e_wo_entrp">      0.09654593 </i>
    <i name="e_0_energy">      0.09654593 </i>
   </energy>
  </scstep>
  <scstep>
   <time name="total">    0.94    0.94</time>
   <energy>
    <i name="e_fr_energy">     -0.08491398 </i>
    <i name="e_wo_entrp">     -0.08491398 </i>
    <i name="e_0_energy">     -0.08491398 </i>
   </energy>
  </scstep>
  <scstep>
   <time name="total">    0.93    0.93</time>
   <energy>
    <i name="e_fr_energy">     -0.10228107 </i>
    <i name="e_wo_entrp">     -0.10228107 </i>
    <i name="e_0_energy">     -0.10228107 </i>
   </energy>
  </scstep>
  <scstep>
   <time name="total">    0.94    0.94</time>
   <energy>
    <i name="e_fr_energy">     -0.12129740 </i>
    <i name="e_wo_entrp">     -0.12129740 </i>
    <i name="e_0_energy">     -0.12129740 </i>
   </energy>
  </scstep>
  <scstep>
   <time name="total">    0.94    0.94</time>
   <energy>
    <i name="e_fr_energy">     -0.12952395 </i>
    <i name="e_wo_entrp">     -0.12952395 </i>
    <i name="e_0_energy">     -0.12952395 </i>
   </energy>
  </scstep>
  <scstep>
   <time name="total">    0.95    0.95</time>
   <energy>
    <i name="e_fr_energy">     -0.13375669 </i>
    <i name="e_wo_entrp">     -0.13375669 </i>
    <i name="e_0_energy">     -0.13375669 </i>
   </energy>
  </scstep>
  <scstep>
   <time name="total">    0.94    0.94</time>
   <energy>
    <i name="e_fr_energy">     -0.13587374 </i>
    <i name="e_wo_entrp">     -0.13587374 </i>
    <i name="e_0_energy">     -0.13587374 </i>
   </energy>
  </scstep>
  <scstep>
   <time name="total">    0.93    0.93</time>
   <energy>
    <i name="e_fr_energy">     -0.13640921 </i>
    <i name="e_wo_entrp">     -0.13640921 </i>
    <i name="e_0_energy">     -0.13640921 </i>
   </energy>
  </scstep>
  <scstep>
   <time name="total">    0.93    0.93</time>
   <energy>
    <i name="e_fr_energy">     -0.13684315 </i>
    <i name="e_wo_entrp">     -0.13684315 </i>
    <i name="e_0_energy">     -0.13684315 </i>
   </energy>
  </scstep>
  <scstep>
   <time name="total">    0.94    0.94</time>
   <energy>
    <i name="e_fr_energy">     -0.13699017 </i>
    <i name="e_wo_entrp">     -0.13699017 </i>
    <i name="e_0_energy">     -0.13699017 </i>
   </energy>
  </scstep>
  <scstep>
   <time name="total">    0.92    0.93</time>
   <energy>
    <i name="e_fr_energy">     -0.13707576 </i>
    <i name="e_wo_entrp">     -0.13707576 </i>
    <i name="e_0_energy">     -0.13707576 </i>
   </energy>
  </scstep>
  <scstep>
   <time name="total">    1.00    1.00</time>
   <energy>
    <i name="alphaZ">      2.62424330 </i>
    <i name="ewald">   -204.28240005 </i>
    <i name="hartreedc">   -341.41210275 </i>
    <i name="XCdc">     23.05133604 </i>
    <i name="pawpsdc">    513.10317400 </i>
    <i name="pawaedc">   -510.52526618 </i>
    <i name="eentropy">     -0.00000000 </i>
    <i name="bandstr">   -183.55157267 </i>
    <i name="atom">    700.85547246 </i>
    <i name="e_fr_energy">     -0.13711586 </i>
    <i name="e_wo_entrp">     -0.13711586 </i>
    <i name="e_0_energy">     -0.13711586 </i>
   </energy>
  </scstep>
  <structure>
   <crystal>
    <varray name="basis" >
     <v>      10.00000000       0.00000000       0.00000000 </v>
     <v>       0.00000000      10.00000000       0.00000000 </v>
     <v>       0.00000000       0.00000000      10.00000000 </v>
    </varray>
    <i name="volume">   1000.00000000 </i>
    <varray name="rec_basis" >
     <v>       0.10000000       0.00000000       0.00000000 </v>
     <v>       0.00000000       0.10000000       0.00000000 </v>
     <v>       0.00000000       0.00000000       0.10000000 </v>
    </varray>
   </crystal>
   <varray name="positions" >
    <v>       0.50000000       0.50000000       0.50000000 </v>
   </varray>
  </structure>
  <varray name="forces" >
   <v>       0.00000000       0.00000000       0.00000000 </v>
  </varray>
  <varray name="stress" >
   <v>      -0.49536692      -0.00000000       0.00000000 </v>
   <v>      -0.00000000      -0.49536692       0.00000000 </v>
   <v>      -0.00000000      -0.00000000      -0.49536692 </v>
  </varray>
  <energy>
   <i name="e_fr_energy">     -0.13711586 </i>
   <i name="e_wo_entrp">     -0.13711586 </i>
   <i name="e_0_energy">     -0.00000000 </i>
  </energy>
  <time name="totalsc">   21.62   22.00</time>
  <eigenvalues>
   <array>
    <dimension dim="1">band</dimension>
    <dimension dim="2">kpoint</dimension>
    <dimension dim="3">spin</dimension>
    <field>eigene</field>
    <field>occ</field>
    <set>
     <set comment="spin 1">
      <set comment="kpoint 1">
       <r>  -33.4178    1.0000 </r>
       <r>  -18.4759    1.0000 </r>
       <r>  -18.4759    1.0000 </r>
       <r>  -18.4759    1.0000 </r>
       <r>   -2.9306    1.0000 </r>
       <r>   -1.7423    0.0000 </r>
       <r>   -1.7276    0.0000 </r>
       <r>   -1.7083    0.0000 </r>
       <r>   -1.6982    0.0000 </r>
       <r>   -1.6959    0.0000 </r>
       <r>   -0.7186    0.0000 </r>
       <r>   -0.7156    0.0000 </r>
       <r>   -0.7135    0.0000 </r>
       <r>   -0.0481    0.0000 </r>
       <r>    0.7741    0.0000 </r>
       <r>    0.7747    0.0000 </r>
       <r>    1.5862    0.0000 </r>
       <r>    1.6193    0.0000 </r>
       <r>    1.6856    0.0000 </r>
       <r>    1.8804    0.0000 </r>
       <r>    1.9279    0.0000 </r>
       <r>    1.9978    0.0000 </r>
       <r>    2.0173    0.0000 </r>
       <r>    2.0264    0.0000 </r>
       <r>    2.0436    0.0000 </r>
       <r>    2.0621    0.0000 </r>
       <r>    2.1410    0.0000 </r>
       <r>    2.2525    0.0000 </r>
       <r>    3.0113    0.0000 </r>
       <r>    3.5936    0.0000 </r>
       <r>    3.6083    0.0000 </r>
       <r>    3.6282    0.0000 </r>
       <r>    3.6580    0.0000 </r>
       <r>    3.6616    0.0000 </r>
       <r>    3.6908    0.0000 </r>
       <r>    4.8349    0.0000 </r>
      </set>
     </set>
     <set comment="spin 2">
      <set comment="kpoint 1">
       <r>  -33.4167    1.0000 </r>
       <r>  -18.4763    1.0000 </r>
       <r>  -18.4763    1.0000 </r>
       <r>  -18.4763    1.0000 </r>
       <r>   -2.9299    1.0000 </r>
       <r>   -1.7401    0.0000 </r>
       <r>   -1.7366    0.0000 </r>
       <r>   -1.7000    0.0000 </r>
       <r>   -1.6962    0.0000 </r>
       <r>   -1.6899    0.0000 </r>
       <r>   -0.7176    0.0000 </r>
       <r>   -0.7155    0.0000 </r>
       <r>   -0.7097    0.0000 </r>
       <r>   -0.0480    0.0000 </r>
       <r>    0.7744    0.0000 </r>
       <r>    0.7748    0.0000 </r>
       <r>    1.5699    0.0000 </r>
       <r>    1.5792    0.0000 </r>
       <r>    1.5845    0.0000 </r>
       <r>    1.9113    0.0000 </r>
       <r>    1.9298    0.0000 </r>
       <r>    1.9318    0.0000 </r>
       <r>    2.0367    0.0000 </r>
       <r>    2.0776    0.0000 </r>
       <r>    2.0808    0.0000 </r>
       <r>    2.1181    0.0000 </r>
       <r>    2.1572    0.0000 </r>
       <r>    2.2282    0.0000 </r>
       <r>    3.0462    0.0000 </r>
       <r>    3.4944    0.0000 </r>
       <r>    3.6222    0.0000 </r>
       <r>    3.6606    0.0000 </r>
       <r>    3.7176    0.0000 </r>
       <r>    3.9849    0.0000 </r>
       <r>    4.0542    0.0000 </r>
       <r>    4.6898    0.0000 </r>
      </set>
     </set>
    </set>
   </array>
  </eigenvalues>
  <separator name="orbital magnetization" >
   <v name="MAGDIPOLOUT">      0.00000000      0.00000000      0.00000000</v>
  </separator>
  <dos>
   <i name="efermi">     -2.63237718 </i>
   <total>
    <array>
     <dimension dim="1">gridpoints</dimension>
     <dimension dim="2">spin</dimension>
     <field>energy</field>
     <field>total</field>
     <field>integrated</field>
     <set>
      <set comment="spin 1">
       <r>   -35.3304     0.0000     0.0000 </r>
       <r>   -35.1901     0.0000     0.0000 </r>
       <r>   -35.0499     0.0000     0.0000 </r>
       <r>   -34.9096     0.0000     0.0000 </r>
       <r>   -34.7693     0.0000     0.0000 </r>
       <r>   -34.6291     0.0000     0.0000 </r>
       <r>   -34.4888     0.0000     0.0000 </r>
       <r>   -34.3486     0.0000     0.0000 </r>
       <r>   -34.2083     0.0000     0.0000 </r>
       <r>   -34.0681     0.0000     0.0000 </r>
       <r>   -33.9278     0.0000     0.0000 </r>
       <r>   -33.7875     0.0000     0.0000 </r>
       <r>   -33.6473     0.0000     0.0000 </r>
       <r>   -33.5070     0.0413     0.0058 </r>
       <r>   -33.3668     6.5567     0.9254 </r>
       <r>   -33.2265     0.5316     1.0000 </r>
       <r>   -33.0862     0.0000     1.0000 </r>
       <r>   -32.9460     0.0000     1.0000 </r>
       <r>   -32.8057     0.0000     1.0000 </r>
       <r>   -32.6655     0.0000     1.0000 </r>
       <r>   -32.5252     0.0000     1.0000 </r>
       <r>   -32.3849     0.0000     1.0000 </r>
       <r>   -32.2447     0.0000     1.0000 </r>
       <r>   -32.1044     0.0000     1.0000 </r>
       <r>   -31.9642     0.0000     1.0000 </r>
       <r>   -31.8239     0.0000     1.0000 </r>
       <r>   -31.6836     0.0000     1.0000 </r>
       <r>   -31.5434     0.0000     1.0000 </r>
       <r>   -31.4031     0.0000     1.0000 </r>
       <r>   -31.2629     0.0000     1.0000 </r>
       <r>   -31.1226     0.0000     1.0000 </r>
       <r>   -30.9823     0.0000     1.0000 </r>
       <r>   -30.8421     0.0000     1.0000 </r>
       <r>   -30.7018     0.0000     1.0000 </r>
       <r>   -30.5616     0.0000     1.0000 </r>
       <r>   -30.4213     0.0000     1.0000 </r>
       <r>   -30.2810     0.0000     1.0000 </r>
       <r>   -30.1408     0.0000     1.0000 </r>
       <r>   -30.0005     0.0000     1.0000 </r>
       <r>   -29.8603     0.0000     1.0000 </r>
       <r>   -29.7200     0.0000     1.0000 </r>
       <r>   -29.5797     0.0000     1.0000 </r>
       <r>   -29.4395     0.0000     1.0000 </r>
       <r>   -29.2992     0.0000     1.0000 </r>
       <r>   -29.1590     0.0000     1.0000 </r>
       <r>   -29.0187     0.0000     1.0000 </r>
       <r>   -28.8784     0.0000     1.0000 </r>
       <r>   -28.7382     0.0000     1.0000 </r>
       <r>   -28.5979     0.0000     1.0000 </r>
       <r>   -28.4577     0.0000     1.0000 </r>
       <r>   -28.3174     0.0000     1.0000 </r>
       <r>   -28.1771     0.0000     1.0000 </r>
       <r>   -28.0369     0.0000     1.0000 </r>
       <r>   -27.8966     0.0000     1.0000 </r>
       <r>   -27.7564     0.0000     1.0000 </r>
       <r>   -27.6161     0.0000     1.0000 </r>
       <r>   -27.4759     0.0000     1.0000 </r>
       <r>   -27.3356     0.0000     1.0000 </r>
       <r>   -27.1953     0.0000     1.0000 </r>
       <r>   -27.0551     0.0000     1.0000 </r>
       <r>   -26.9148     0.0000     1.0000 </r>
       <r>   -26.7746     0.0000     1.0000 </r>
       <r>   -26.6343     0.0000     1.0000 </r>
       <r>   -26.4940     0.0000     1.0000 </r>
       <r>   -26.3538     0.0000     1.0000 </r>
       <r>   -26.2135     0.0000     1.0000 </r>
       <r>   -26.0733     0.0000     1.0000 </r>
       <r>   -25.9330     0.0000     1.0000 </r>
       <r>   -25.7927     0.0000     1.0000 </r>
       <r>   -25.6525     0.0000     1.0000 </r>
       <r>   -25.5122     0.0000     1.0000 </r>
       <r>   -25.3720     0.0000     1.0000 </r>
       <r>   -25.2317     0.0000     1.0000 </r>
       <r>   -25.0914     0.0000     1.0000 </r>
       <r>   -24.9512     0.0000     1.0000 </r>
       <r>   -24.8109     0.0000     1.0000 </r>
       <r>   -24.6707     0.0000     1.0000 </r>
       <r>   -24.5304     0.0000     1.0000 </r>
       <r>   -24.3901     0.0000     1.0000 </r>
       <r>   -24.2499     0.0000     1.0000 </r>
       <r>   -24.1096     0.0000     1.0000 </r>
       <r>   -23.9694     0.0000     1.0000 </r>
       <r>   -23.8291     0.0000     1.0000 </r>
       <r>   -23.6888     0.0000     1.0000 </r>
       <r>   -23.5486     0.0000     1.0000 </r>
       <r>   -23.4083     0.0000     1.0000 </r>
       <r>   -23.2681     0.0000     1.0000 </r>
       <r>   -23.1278     0.0000     1.0000 </r>
       <r>   -22.9875     0.0000     1.0000 </r>
       <r>   -22.8473     0.0000     1.0000 </r>
       <r>   -22.7070     0.0000     1.0000 </r>
       <r>   -22.5668     0.0000     1.0000 </r>
       <r>   -22.4265     0.0000     1.0000 </r>
       <r>   -22.2862     0.0000     1.0000 </r>
       <r>   -22.1460     0.0000     1.0000 </r>
       <r>   -22.0057     0.0000     1.0000 </r>
       <r>   -21.8655     0.0000     1.0000 </r>
       <r>   -21.7252     0.0000     1.0000 </r>
       <r>   -21.5849     0.0000     1.0000 </r>
       <r>   -21.4447     0.0000     1.0000 </r>
       <r>   -21.3044     0.0000     1.0000 </r>
       <r>   -21.1642     0.0000     1.0000 </r>
       <r>   -21.0239     0.0000     1.0000 </r>
       <r>   -20.8837     0.0000     1.0000 </r>
       <r>   -20.7434     0.0000     1.0000 </r>
       <r>   -20.6031     0.0000     1.0000 </r>
       <r>   -20.4629     0.0000     1.0000 </r>
       <r>   -20.3226     0.0000     1.0000 </r>
       <r>   -20.1824     0.0000     1.0000 </r>
       <r>   -20.0421     0.0000     1.0000 </r>
       <r>   -19.9018     0.0000     1.0000 </r>
       <r>   -19.7616     0.0000     1.0000 </r>
       <r>   -19.6213     0.0000     1.0000 </r>
       <r>   -19.4811     0.0000     1.0000 </r>
       <r>   -19.3408     0.0000     1.0000 </r>
       <r>   -19.2005     0.0000     1.0000 </r>
       <r>   -19.0603     0.0000     1.0000 </r>
       <r>   -18.9200     0.0000     1.0000 </r>
       <r>   -18.7798     0.0000     1.0000 </r>
       <r>   -18.6395     0.0000     1.0000 </r>
       <r>   -18.4992     5.4435     1.7635 </r>
       <r>   -18.3590    15.9353     3.9986 </r>
       <r>   -18.2187     0.0101     4.0000 </r>
       <r>   -18.0785     0.0000     4.0000 </r>
       <r>   -17.9382     0.0000     4.0000 </r>
       <r>   -17.7979     0.0000     4.0000 </r>
       <r>   -17.6577     0.0000     4.0000 </r>
       <r>   -17.5174     0.0000     4.0000 </r>
       <r>   -17.3772     0.0000     4.0000 </r>
       <r>   -17.2369     0.0000     4.0000 </r>
       <r>   -17.0966     0.0000     4.0000 </r>
       <r>   -16.9564     0.0000     4.0000 </r>
       <r>   -16.8161     0.0000     4.0000 </r>
       <r>   -16.6759     0.0000     4.0000 </r>
       <r>   -16.5356     0.0000     4.0000 </r>
       <r>   -16.3953     0.0000     4.0000 </r>
       <r>   -16.2551     0.0000     4.0000 </r>
       <r>   -16.1148     0.0000     4.0000 </r>
       <r>   -15.9746     0.0000     4.0000 </r>
       <r>   -15.8343     0.0000     4.0000 </r>
       <r>   -15.6940     0.0000     4.0000 </r>
       <r>   -15.5538     0.0000     4.0000 </r>
       <r>   -15.4135     0.0000     4.0000 </r>
       <r>   -15.2733     0.0000     4.0000 </r>
       <r>   -15.1330     0.0000     4.0000 </r>
       <r>   -14.9928     0.0000     4.0000 </r>
       <r>   -14.8525     0.0000     4.0000 </r>
       <r>   -14.7122     0.0000     4.0000 </r>
       <r>   -14.5720     0.0000     4.0000 </r>
       <r>   -14.4317     0.0000     4.0000 </r>
       <r>   -14.2915     0.0000     4.0000 </r>
       <r>   -14.1512     0.0000     4.0000 </r>
       <r>   -14.0109     0.0000     4.0000 </r>
       <r>   -13.8707     0.0000     4.0000 </r>
       <r>   -13.7304     0.0000     4.0000 </r>
       <r>   -13.5902     0.0000     4.0000 </r>
       <r>   -13.4499     0.0000     4.0000 </r>
       <r>   -13.3096     0.0000     4.0000 </r>
       <r>   -13.1694     0.0000     4.0000 </r>
       <r>   -13.0291     0.0000     4.0000 </r>
       <r>   -12.8889     0.0000     4.0000 </r>
       <r>   -12.7486     0.0000     4.0000 </r>
       <r>   -12.6083     0.0000     4.0000 </r>
       <r>   -12.4681     0.0000     4.0000 </r>
       <r>   -12.3278     0.0000     4.0000 </r>
       <r>   -12.1876     0.0000     4.0000 </r>
       <r>   -12.0473     0.0000     4.0000 </r>
       <r>   -11.9070     0.0000     4.0000 </r>
       <r>   -11.7668     0.0000     4.0000 </r>
       <r>   -11.6265     0.0000     4.0000 </r>
       <r>   -11.4863     0.0000     4.0000 </r>
       <r>   -11.3460     0.0000     4.0000 </r>
       <r>   -11.2057     0.0000     4.0000 </r>
       <r>   -11.0655     0.0000     4.0000 </r>
       <r>   -10.9252     0.0000     4.0000 </r>
       <r>   -10.7850     0.0000     4.0000 </r>
       <r>   -10.6447     0.0000     4.0000 </r>
       <r>   -10.5044     0.0000     4.0000 </r>
       <r>   -10.3642     0.0000     4.0000 </r>
       <r>   -10.2239     0.0000     4.0000 </r>
       <r>   -10.0837     0.0000     4.0000 </r>
       <r>    -9.9434     0.0000     4.0000 </r>
       <r>    -9.8031     0.0000     4.0000 </r>
       <r>    -9.6629     0.0000     4.0000 </r>
       <r>    -9.5226     0.0000     4.0000 </r>
       <r>    -9.3824     0.0000     4.0000 </r>
       <r>    -9.2421     0.0000     4.0000 </r>
       <r>    -9.1018     0.0000     4.0000 </r>
       <r>    -8.9616     0.0000     4.0000 </r>
       <r>    -8.8213     0.0000     4.0000 </r>
       <r>    -8.6811     0.0000     4.0000 </r>
       <r>    -8.5408     0.0000     4.0000 </r>
       <r>    -8.4006     0.0000     4.0000 </r>
       <r>    -8.2603     0.0000     4.0000 </r>
       <r>    -8.1200     0.0000     4.0000 </r>
       <r>    -7.9798     0.0000     4.0000 </r>
       <r>    -7.8395     0.0000     4.0000 </r>
       <r>    -7.6993     0.0000     4.0000 </r>
       <r>    -7.5590     0.0000     4.0000 </r>
       <r>    -7.4187     0.0000     4.0000 </r>
       <r>    -7.2785     0.0000     4.0000 </r>
       <r>    -7.1382     0.0000     4.0000 </r>
       <r>    -6.9980     0.0000     4.0000 </r>
       <r>    -6.8577     0.0000     4.0000 </r>
       <r>    -6.7174     0.0000     4.0000 </r>
       <r>    -6.5772     0.0000     4.0000 </r>
       <r>    -6.4369     0.0000     4.0000 </r>
       <r>    -6.2967     0.0000     4.0000 </r>
       <r>    -6.1564     0.0000     4.0000 </r>
       <r>    -6.0161     0.0000     4.0000 </r>
       <r>    -5.8759     0.0000     4.0000 </r>
       <r>    -5.7356     0.0000     4.0000 </r>
       <r>    -5.5954     0.0000     4.0000 </r>
       <r>    -5.4551     0.0000     4.0000 </r>
       <r>    -5.3148     0.0000     4.0000 </r>
       <r>    -5.1746     0.0000     4.0000 </r>
       <r>    -5.0343     0.0000     4.0000 </r>
       <r>    -4.8941     0.0000     4.0000 </r>
       <r>    -4.7538     0.0000     4.0000 </r>
       <r>    -4.6135     0.0000     4.0000 </r>
       <r>    -4.4733     0.0000     4.0000 </r>
       <r>    -4.3330     0.0000     4.0000 </r>
       <r>    -4.1928     0.0000     4.0000 </r>
       <r>    -4.0525     0.0000     4.0000 </r>
       <r>    -3.9122     0.0000     4.0000 </r>
       <r>    -3.7720     0.0000     4.0000 </r>
       <r>    -3.6317     0.0000     4.0000 </r>
       <r>    -3.4915     0.0000     4.0000 </r>
       <r>    -3.3512     0.0000     4.0000 </r>
       <r>    -3.2109     0.0000     4.0000 </r>
       <r>    -3.0707     0.0003     4.0000 </r>
       <r>    -2.9304     3.5805     4.5022 </r>
       <r>    -2.7902     3.5486     5.0000 </r>
       <r>    -2.6499     0.0003     5.0000 </r>
       <r>    -2.5097     0.0000     5.0000 </r>
       <r>    -2.3694     0.0000     5.0000 </r>
       <r>    -2.2291     0.0000     5.0000 </r>
       <r>    -2.0889     0.0000     5.0000 </r>
       <r>    -1.9486     0.0000     5.0000 </r>
       <r>    -1.8084     0.3288     5.0461 </r>
       <r>    -1.6681    31.0070     9.3951 </r>
       <r>    -1.5278     4.3124    10.0000 </r>
       <r>    -1.3876     0.0000    10.0000 </r>
       <r>    -1.2473     0.0000    10.0000 </r>
       <r>    -1.1071     0.0000    10.0000 </r>
       <r>    -0.9668     0.0000    10.0000 </r>
       <r>    -0.8265     0.0191    10.0027 </r>
       <r>    -0.6863    17.0568    12.3950 </r>
       <r>    -0.5460     4.3131    13.0000 </r>
       <r>    -0.4058     0.0000    13.0000 </r>
       <r>    -0.2655     0.0000    13.0000 </r>
       <r>    -0.1252     0.1037    13.0145 </r>
       <r>     0.0150     6.7611    13.9628 </r>
       <r>     0.1553     0.2649    14.0000 </r>
       <r>     0.2955     0.0000    14.0000 </r>
       <r>     0.4358     0.0000    14.0000 </r>
       <r>     0.5761     0.0000    14.0000 </r>
       <r>     0.7163     0.7165    14.1005 </r>
       <r>     0.8566    13.3995    15.9799 </r>
       <r>     0.9968     0.1433    16.0000 </r>
       <r>     1.1371     0.0000    16.0000 </r>
       <r>     1.2774     0.0000    16.0000 </r>
       <r>     1.4176     0.0000    16.0000 </r>
       <r>     1.5579     1.8046    16.2531 </r>
       <r>     1.6981    16.9103    18.6249 </r>
       <r>     1.8384     3.5510    19.1230 </r>
       <r>     1.9787    16.8310    21.4837 </r>
       <r>     2.1189    33.5478    26.1891 </r>
       <r>     2.2592     9.8750    27.5742 </r>
       <r>     2.3994     3.0358    28.0000 </r>
       <r>     2.5397     0.0001    28.0000 </r>
       <r>     2.6800     0.0000    28.0000 </r>
       <r>     2.8202     0.0000    28.0000 </r>
       <r>     2.9605     0.5378    28.0754 </r>
       <r>     3.1007     6.5513    28.9943 </r>
       <r>     3.2410     0.0406    29.0000 </r>
       <r>     3.3813     0.0000    29.0000 </r>
       <r>     3.5215     0.2079    29.0292 </r>
       <r>     3.6618    28.2201    32.9873 </r>
       <r>     3.8020    14.3434    34.9991 </r>
       <r>     3.9423     0.0063    35.0000 </r>
       <r>     4.0825     0.0000    35.0000 </r>
       <r>     4.2228     0.0000    35.0000 </r>
       <r>     4.3631     0.0000    35.0000 </r>
       <r>     4.5033     0.0000    35.0000 </r>
       <r>     4.6436     0.0000    35.0000 </r>
       <r>     4.7838     0.5316    35.0746 </r>
       <r>     4.9241     6.5567    35.9942 </r>
       <r>     5.0644     0.0413    36.0000 </r>
       <r>     5.2046     0.0000    36.0000 </r>
       <r>     5.3449     0.0000    36.0000 </r>
       <r>     5.4851     0.0000    36.0000 </r>
       <r>     5.6254     0.0000    36.0000 </r>
       <r>     5.7657     0.0000    36.0000 </r>
       <r>     5.9059     0.0000    36.0000 </r>
       <r>     6.0462     0.0000    36.0000 </r>
       <r>     6.1864     0.0000    36.0000 </r>
       <r>     6.3267     0.0000    36.0000 </r>
       <r>     6.4670     0.0000    36.0000 </r>
       <r>     6.6072     0.0000    36.0000 </r>
       <r>     6.7475     0.0000    36.0000 </r>
      </set>
      <set comment="spin 2">
       <r>   -35.3304     0.0000     0.0000 </r>
       <r>   -35.1901     0.0000     0.0000 </r>
       <r>   -35.0499     0.0000     0.0000 </r>
       <r>   -34.9096     0.0000     0.0000 </r>
       <r>   -34.7693     0.0000     0.0000 </r>
       <r>   -34.6291     0.0000     0.0000 </r>
       <r>   -34.4888     0.0000     0.0000 </r>
       <r>   -34.3486     0.0000     0.0000 </r>
       <r>   -34.2083     0.0000     0.0000 </r>
       <r>   -34.0681     0.0000     0.0000 </r>
       <r>   -33.9278     0.0000     0.0000 </r>
       <r>   -33.7875     0.0000     0.0000 </r>
       <r>   -33.6473     0.0000     0.0000 </r>
       <r>   -33.5070     0.0378     0.0053 </r>
       <r>   -33.3668     6.5288     0.9210 </r>
       <r>   -33.2265     0.5630     1.0000 </r>
       <r>   -33.0862     0.0000     1.0000 </r>
       <r>   -32.9460     0.0000     1.0000 </r>
       <r>   -32.8057     0.0000     1.0000 </r>
       <r>   -32.6655     0.0000     1.0000 </r>
       <r>   -32.5252     0.0000     1.0000 </r>
       <r>   -32.3849     0.0000     1.0000 </r>
       <r>   -32.2447     0.0000     1.0000 </r>
       <r>   -32.1044     0.0000     1.0000 </r>
       <r>   -31.9642     0.0000     1.0000 </r>
       <r>   -31.8239     0.0000     1.0000 </r>
       <r>   -31.6836     0.0000     1.0000 </r>
       <r>   -31.5434     0.0000     1.0000 </r>
       <r>   -31.4031     0.0000     1.0000 </r>
       <r>   -31.2629     0.0000     1.0000 </r>
       <r>   -31.1226     0.0000     1.0000 </r>
       <r>   -30.9823     0.0000     1.0000 </r>
       <r>   -30.8421     0.0000     1.0000 </r>
       <r>   -30.7018     0.0000     1.0000 </r>
       <r>   -30.5616     0.0000     1.0000 </r>
       <r>   -30.4213     0.0000     1.0000 </r>
       <r>   -30.2810     0.0000     1.0000 </r>
       <r>   -30.1408     0.0000     1.0000 </r>
       <r>   -30.0005     0.0000     1.0000 </r>
       <r>   -29.8603     0.0000     1.0000 </r>
       <r>   -29.7200     0.0000     1.0000 </r>
       <r>   -29.5797     0.0000     1.0000 </r>
       <r>   -29.4395     0.0000     1.0000 </r>
       <r>   -29.2992     0.0000     1.0000 </r>
       <r>   -29.1590     0.0000     1.0000 </r>
       <r>   -29.0187     0.0000     1.0000 </r>
       <r>   -28.8784     0.0000     1.0000 </r>
       <r>   -28.7382     0.0000     1.0000 </r>
       <r>   -28.5979     0.0000     1.0000 </r>
       <r>   -28.4577     0.0000     1.0000 </r>
       <r>   -28.3174     0.0000     1.0000 </r>
       <r>   -28.1771     0.0000     1.0000 </r>
       <r>   -28.0369     0.0000     1.0000 </r>
       <r>   -27.8966     0.0000     1.0000 </r>
       <r>   -27.7564     0.0000     1.0000 </r>
       <r>   -27.6161     0.0000     1.0000 </r>
       <r>   -27.4759     0.0000     1.0000 </r>
       <r>   -27.3356     0.0000     1.0000 </r>
       <r>   -27.1953     0.0000     1.0000 </r>
       <r>   -27.0551     0.0000     1.0000 </r>
       <r>   -26.9148     0.0000     1.0000 </r>
       <r>   -26.7746     0.0000     1.0000 </r>
       <r>   -26.6343     0.0000     1.0000 </r>
       <r>   -26.4940     0.0000     1.0000 </r>
       <r>   -26.3538     0.0000     1.0000 </r>
       <r>   -26.2135     0.0000     1.0000 </r>
       <r>   -26.0733     0.0000     1.0000 </r>
       <r>   -25.9330     0.0000     1.0000 </r>
       <r>   -25.7927     0.0000     1.0000 </r>
       <r>   -25.6525     0.0000     1.0000 </r>
       <r>   -25.5122     0.0000     1.0000 </r>
       <r>   -25.3720     0.0000     1.0000 </r>
       <r>   -25.2317     0.0000     1.0000 </r>
       <r>   -25.0914     0.0000     1.0000 </r>
       <r>   -24.9512     0.0000     1.0000 </r>
       <r>   -24.8109     0.0000     1.0000 </r>
       <r>   -24.6707     0.0000     1.0000 </r>
       <r>   -24.5304     0.0000     1.0000 </r>
       <r>   -24.3901     0.0000     1.0000 </r>
       <r>   -24.2499     0.0000     1.0000 </r>
       <r>   -24.1096     0.0000     1.0000 </r>
       <r>   -23.9694     0.0000     1.0000 </r>
       <r>   -23.8291     0.0000     1.0000 </r>
       <r>   -23.6888     0.0000     1.0000 </r>
       <r>   -23.5486     0.0000     1.0000 </r>
       <r>   -23.4083     0.0000     1.0000 </r>
       <r>   -23.2681     0.0000     1.0000 </r>
       <r>   -23.1278     0.0000     1.0000 </r>
       <r>   -22.9875     0.0000     1.0000 </r>
       <r>   -22.8473     0.0000     1.0000 </r>
       <r>   -22.7070     0.0000     1.0000 </r>
       <r>   -22.5668     0.0000     1.0000 </r>
       <r>   -22.4265     0.0000     1.0000 </r>
       <r>   -22.2862     0.0000     1.0000 </r>
       <r>   -22.1460     0.0000     1.0000 </r>
       <r>   -22.0057     0.0000     1.0000 </r>
       <r>   -21.8655     0.0000     1.0000 </r>
       <r>   -21.7252     0.0000     1.0000 </r>
       <r>   -21.5849     0.0000     1.0000 </r>
       <r>   -21.4447     0.0000     1.0000 </r>
       <r>   -21.3044     0.0000     1.0000 </r>
       <r>   -21.1642     0.0000     1.0000 </r>
       <r>   -21.0239     0.0000     1.0000 </r>
       <r>   -20.8837     0.0000     1.0000 </r>
       <r>   -20.7434     0.0000     1.0000 </r>
       <r>   -20.6031     0.0000     1.0000 </r>
       <r>   -20.4629     0.0000     1.0000 </r>
       <r>   -20.3226     0.0000     1.0000 </r>
       <r>   -20.1824     0.0000     1.0000 </r>
       <r>   -20.0421     0.0000     1.0000 </r>
       <r>   -19.9018     0.0000     1.0000 </r>
       <r>   -19.7616     0.0000     1.0000 </r>
       <r>   -19.6213     0.0000     1.0000 </r>
       <r>   -19.4811     0.0000     1.0000 </r>
       <r>   -19.3408     0.0000     1.0000 </r>
       <r>   -19.2005     0.0000     1.0000 </r>
       <r>   -19.0603     0.0000     1.0000 </r>
       <r>   -18.9200     0.0000     1.0000 </r>
       <r>   -18.7798     0.0000     1.0000 </r>
       <r>   -18.6395     0.0000     1.0000 </r>
       <r>   -18.4992     5.5267     1.7752 </r>
       <r>   -18.3590    15.8525     3.9986 </r>
       <r>   -18.2187     0.0097     4.0000 </r>
       <r>   -18.0785     0.0000     4.0000 </r>
       <r>   -17.9382     0.0000     4.0000 </r>
       <r>   -17.7979     0.0000     4.0000 </r>
       <r>   -17.6577     0.0000     4.0000 </r>
       <r>   -17.5174     0.0000     4.0000 </r>
       <r>   -17.3772     0.0000     4.0000 </r>
       <r>   -17.2369     0.0000     4.0000 </r>
       <r>   -17.0966     0.0000     4.0000 </r>
       <r>   -16.9564     0.0000     4.0000 </r>
       <r>   -16.8161     0.0000     4.0000 </r>
       <r>   -16.6759     0.0000     4.0000 </r>
       <r>   -16.5356     0.0000     4.0000 </r>
       <r>   -16.3953     0.0000     4.0000 </r>
       <r>   -16.2551     0.0000     4.0000 </r>
       <r>   -16.1148     0.0000     4.0000 </r>
       <r>   -15.9746     0.0000     4.0000 </r>
       <r>   -15.8343     0.0000     4.0000 </r>
       <r>   -15.6940     0.0000     4.0000 </r>
       <r>   -15.5538     0.0000     4.0000 </r>
       <r>   -15.4135     0.0000     4.0000 </r>
       <r>   -15.2733     0.0000     4.0000 </r>
       <r>   -15.1330     0.0000     4.0000 </r>
       <r>   -14.9928     0.0000     4.0000 </r>
       <r>   -14.8525     0.0000     4.0000 </r>
       <r>   -14.7122     0.0000     4.0000 </r>
       <r>   -14.5720     0.0000     4.0000 </r>
       <r>   -14.4317     0.0000     4.0000 </r>
       <r>   -14.2915     0.0000     4.0000 </r>
       <r>   -14.1512     0.0000     4.0000 </r>
       <r>   -14.0109     0.0000     4.0000 </r>
       <r>   -13.8707     0.0000     4.0000 </r>
       <r>   -13.7304     0.0000     4.0000 </r>
       <r>   -13.5902     0.0000     4.0000 </r>
       <r>   -13.4499     0.0000     4.0000 </r>
       <r>   -13.3096     0.0000     4.0000 </r>
       <r>   -13.1694     0.0000     4.0000 </r>
       <r>   -13.0291     0.0000     4.0000 </r>
       <r>   -12.8889     0.0000     4.0000 </r>
       <r>   -12.7486     0.0000     4.0000 </r>
       <r>   -12.6083     0.0000     4.0000 </r>
       <r>   -12.4681     0.0000     4.0000 </r>
       <r>   -12.3278     0.0000     4.0000 </r>
       <r>   -12.1876     0.0000     4.0000 </r>
       <r>   -12.0473     0.0000     4.0000 </r>
       <r>   -11.9070     0.0000     4.0000 </r>
       <r>   -11.7668     0.0000     4.0000 </r>
       <r>   -11.6265     0.0000     4.0000 </r>
       <r>   -11.4863     0.0000     4.0000 </r>
       <r>   -11.3460     0.0000     4.0000 </r>
       <r>   -11.2057     0.0000     4.0000 </r>
       <r>   -11.0655     0.0000     4.0000 </r>
       <r>   -10.9252     0.0000     4.0000 </r>
       <r>   -10.7850     0.0000     4.0000 </r>
       <r>   -10.6447     0.0000     4.0000 </r>
       <r>   -10.5044     0.0000     4.0000 </r>
       <r>   -10.3642     0.0000     4.0000 </r>
       <r>   -10.2239     0.0000     4.0000 </r>
       <r>   -10.0837     0.0000     4.0000 </r>
       <r>    -9.9434     0.0000     4.0000 </r>
       <r>    -9.8031     0.0000     4.0000 </r>
       <r>    -9.6629     0.0000     4.0000 </r>
       <r>    -9.5226     0.0000     4.0000 </r>
       <r>    -9.3824     0.0000     4.0000 </r>
       <r>    -9.2421     0.0000     4.0000 </r>
       <r>    -9.1018     0.0000     4.0000 </r>
       <r>    -8.9616     0.0000     4.0000 </r>
       <r>    -8.8213     0.0000     4.0000 </r>
       <r>    -8.6811     0.0000     4.0000 </r>
       <r>    -8.5408     0.0000     4.0000 </r>
       <r>    -8.4006     0.0000     4.0000 </r>
       <r>    -8.2603     0.0000     4.0000 </r>
       <r>    -8.1200     0.0000     4.0000 </r>
       <r>    -7.9798     0.0000     4.0000 </r>
       <r>    -7.8395     0.0000     4.0000 </r>
       <r>    -7.6993     0.0000     4.0000 </r>
       <r>    -7.5590     0.0000     4.0000 </r>
       <r>    -7.4187     0.0000     4.0000 </r>
       <r>    -7.2785     0.0000     4.0000 </r>
       <r>    -7.1382     0.0000     4.0000 </r>
       <r>    -6.9980     0.0000     4.0000 </r>
       <r>    -6.8577     0.0000     4.0000 </r>
       <r>    -6.7174     0.0000     4.0000 </r>
       <r>    -6.5772     0.0000     4.0000 </r>
       <r>    -6.4369     0.0000     4.0000 </r>
       <r>    -6.2967     0.0000     4.0000 </r>
       <r>    -6.1564     0.0000     4.0000 </r>
       <r>    -6.0161     0.0000     4.0000 </r>
       <r>    -5.8759     0.0000     4.0000 </r>
       <r>    -5.7356     0.0000     4.0000 </r>
       <r>    -5.5954     0.0000     4.0000 </r>
       <r>    -5.4551     0.0000     4.0000 </r>
       <r>    -5.3148     0.0000     4.0000 </r>
       <r>    -5.1746     0.0000     4.0000 </r>
       <r>    -5.0343     0.0000     4.0000 </r>
       <r>    -4.8941     0.0000     4.0000 </r>
       <r>    -4.7538     0.0000     4.0000 </r>
       <r>    -4.6135     0.0000     4.0000 </r>
       <r>    -4.4733     0.0000     4.0000 </r>
       <r>    -4.3330     0.0000     4.0000 </r>
       <r>    -4.1928     0.0000     4.0000 </r>
       <r>    -4.0525     0.0000     4.0000 </r>
       <r>    -3.9122     0.0000     4.0000 </r>
       <r>    -3.7720     0.0000     4.0000 </r>
       <r>    -3.6317     0.0000     4.0000 </r>
       <r>    -3.4915     0.0000     4.0000 </r>
       <r>    -3.3512     0.0000     4.0000 </r>
       <r>    -3.2109     0.0000     4.0000 </r>
       <r>    -3.0707     0.0002     4.0000 </r>
       <r>    -2.9304     3.5219     4.4940 </r>
       <r>    -2.7902     3.6072     5.0000 </r>
       <r>    -2.6499     0.0003     5.0000 </r>
       <r>    -2.5097     0.0000     5.0000 </r>
       <r>    -2.3694     0.0000     5.0000 </r>
       <r>    -2.2291     0.0000     5.0000 </r>
       <r>    -2.0889     0.0000     5.0000 </r>
       <r>    -1.9486     0.0000     5.0000 </r>
       <r>    -1.8084     0.3581     5.0502 </r>
       <r>    -1.6681    30.2046     9.2867 </r>
       <r>    -1.5278     5.0855    10.0000 </r>
       <r>    -1.3876     0.0000    10.0000 </r>
       <r>    -1.2473     0.0000    10.0000 </r>
       <r>    -1.1071     0.0000    10.0000 </r>
       <r>    -0.9668     0.0000    10.0000 </r>
       <r>    -0.8265     0.0168    10.0024 </r>
       <r>    -0.6863    16.7681    12.3542 </r>
       <r>    -0.5460     4.6040    13.0000 </r>
       <r>    -0.4058     0.0000    13.0000 </r>
       <r>    -0.2655     0.0000    13.0000 </r>
       <r>    -0.1252     0.1028    13.0144 </r>
       <r>     0.0150     6.7601    13.9626 </r>
       <r>     0.1553     0.2667    14.0000 </r>
       <r>     0.2955     0.0000    14.0000 </r>
       <r>     0.4358     0.0000    14.0000 </r>
       <r>     0.5761     0.0000    14.0000 </r>
       <r>     0.7163     0.7076    14.0992 </r>
       <r>     0.8566    13.4061    15.9796 </r>
       <r>     0.9968     0.1456    16.0000 </r>
       <r>     1.1371     0.0000    16.0000 </r>
       <r>     1.2774     0.0000    16.0000 </r>
       <r>     1.4176     0.0001    16.0000 </r>
       <r>     1.5579     6.1711    16.8656 </r>
       <r>     1.6981    15.2093    18.9988 </r>
       <r>     1.8384     0.2122    19.0286 </r>
       <r>     1.9787    20.1166    21.8501 </r>
       <r>     2.1189    25.1531    25.3781 </r>
       <r>     2.2592    17.3230    27.8078 </r>
       <r>     2.3994     1.3704    28.0000 </r>
       <r>     2.5397     0.0000    28.0000 </r>
       <r>     2.6800     0.0000    28.0000 </r>
       <r>     2.8202     0.0000    28.0000 </r>
       <r>     2.9605     0.0547    28.0077 </r>
       <r>     3.1007     6.6371    28.9386 </r>
       <r>     3.2410     0.4378    29.0000 </r>
       <r>     3.3813     0.0049    29.0007 </r>
       <r>     3.5215     5.5592    29.7804 </r>
       <r>     3.6618    11.8237    31.4388 </r>
       <r>     3.8020    11.0700    32.9915 </r>
       <r>     3.9423     0.8789    33.1147 </r>
       <r>     4.0825    11.9118    34.7855 </r>
       <r>     4.2228     1.5293    35.0000 </r>
       <r>     4.3631     0.0000    35.0000 </r>
       <r>     4.5033     0.0000    35.0000 </r>
       <r>     4.6436     0.6800    35.0954 </r>
       <r>     4.7838     6.4217    35.9961 </r>
       <r>     4.9241     0.0280    36.0000 </r>
       <r>     5.0644     0.0000    36.0000 </r>
       <r>     5.2046     0.0000    36.0000 </r>
       <r>     5.3449     0.0000    36.0000 </r>
       <r>     5.4851     0.0000    36.0000 </r>
       <r>     5.6254     0.0000    36.0000 </r>
       <r>     5.7657     0.0000    36.0000 </r>
       <r>     5.9059     0.0000    36.0000 </r>
       <r>     6.0462     0.0000    36.0000 </r>
       <r>     6.1864     0.0000    36.0000 </r>
       <r>     6.3267     0.0000    36.0000 </r>
       <r>     6.4670     0.0000    36.0000 </r>
       <r>     6.6072     0.0000    36.0000 </r>
       <r>     6.7475     0.0000    36.0000 </r>
      </set>
     </set>
    </array>
   </total>
   <partial>
    <array>
     <dimension dim="1">gridpoints</dimension>
     <dimension dim="2">spin</dimension>
     <dimension dim="3">ion</dimension>
     <field>energy</field>
     <field>    s</field>
     <field>   py</field>
     <field>   pz</field>
     <field>   px</field>
     <field>  dxy</field>
     <field>  dyz</field>
     <field>  dz2</field>
     <field>  dxz</field>
     <field>x2-y2</field>
     <set>
      <set comment="ion 1">
       <set comment="spin 1">
        <r>   -35.3304     0.0000     0.0000     0.0000     0.0000     0.0000     0.0000     0.0000     0.0000     0.0000 </r>
        <r>   -35.1901     0.0000     0.0000     0.0000     0.0000     0.0000     0.0000     0.0000     0.0000     0.0000 </r>
        <r>   -35.0499     0.0000     0.0000     0.0000     0.0000     0.0000     0.0000     0.0000     0.0000     0.0000 </r>
        <r>   -34.9096     0.0000     0.0000     0.0000     0.0000     0.0000     0.0000     0.0000     0.0000     0.0000 </r>
        <r>   -34.7693     0.0000     0.0000     0.0000     0.0000     0.0000     0.0000     0.0000     0.0000     0.0000 </r>
        <r>   -34.6291     0.0000     0.0000     0.0000     0.0000     0.0000     0.0000     0.0000     0.0000     0.0000 </r>
        <r>   -34.4888     0.0000     0.0000     0.0000     0.0000     0.0000     0.0000     0.0000     0.0000     0.0000 </r>
        <r>   -34.3486     0.0000     0.0000     0.0000     0.0000     0.0000     0.0000     0.0000     0.0000     0.0000 </r>
        <r>   -34.2083     0.0000     0.0000     0.0000     0.0000     0.0000     0.0000     0.0000     0.0000     0.0000 </r>
        <r>   -34.0681     0.0000     0.0000     0.0000     0.0000     0.0000     0.0000     0.0000     0.0000     0.0000 </r>
        <r>   -33.9278     0.0000     0.0000     0.0000     0.0000     0.0000     0.0000     0.0000     0.0000     0.0000 </r>
        <r>   -33.7875     0.0000     0.0000     0.0000     0.0000     0.0000     0.0000     0.0000     0.0000     0.0000 </r>
        <r>   -33.6473     0.0000     0.0000     0.0000     0.0000     0.0000     0.0000     0.0000     0.0000     0.0000 </r>
        <r>   -33.5070     0.0405     0.0000     0.0000     0.0000     0.0000     0.0000     0.0000     0.0000     0.0000 </r>
        <r>   -33.3668     6.4234     0.0000     0.0000     0.0000     0.0000     0.0000     0.0000     0.0000     0.0000 </r>
        <r>   -33.2265     0.5208     0.0000     0.0000     0.0000     0.0000     0.0000     0.0000     0.0000     0.0000 </r>
        <r>   -33.0862     0.0000     0.0000     0.0000     0.0000     0.0000     0.0000     0.0000     0.0000     0.0000 </r>
        <r>   -32.9460     0.0000     0.0000     0.0000     0.0000     0.0000     0.0000     0.0000     0.0000     0.0000 </r>
        <r>   -32.8057     0.0000     0.0000     0.0000     0.0000     0.0000     0.0000     0.0000     0.0000     0.0000 </r>
        <r>   -32.6655     0.0000     0.0000     0.0000     0.0000     0.0000     0.0000     0.0000     0.0000     0.0000 </r>
        <r>   -32.5252     0.0000     0.0000     0.0000     0.0000     0.0000     0.0000     0.0000     0.0000     0.0000 </r>
        <r>   -32.3849     0.0000     0.0000     0.0000     0.0000     0.0000     0.0000     0.0000     0.0000     0.0000 </r>
        <r>   -32.2447     0.0000     0.0000     0.0000     0.0000     0.0000     0.0000     0.0000     0.0000     0.0000 </r>
        <r>   -32.1044     0.0000     0.0000     0.0000     0.0000     0.0000     0.0000     0.0000     0.0000     0.0000 </r>
        <r>   -31.9642     0.0000     0.0000     0.0000     0.0000     0.0000     0.0000     0.0000     0.0000     0.0000 </r>
        <r>   -31.8239     0.0000     0.0000     0.0000     0.0000     0.0000     0.0000     0.0000     0.0000     0.0000 </r>
        <r>   -31.6836     0.0000     0.0000     0.0000     0.0000     0.0000     0.0000     0.0000     0.0000     0.0000 </r>
        <r>   -31.5434     0.0000     0.0000     0.0000     0.0000     0.0000     0.0000     0.0000     0.0000     0.0000 </r>
        <r>   -31.4031     0.0000     0.0000     0.0000     0.0000     0.0000     0.0000     0.0000     0.0000     0.0000 </r>
        <r>   -31.2629     0.0000     0.0000     0.0000     0.0000     0.0000     0.0000     0.0000     0.0000     0.0000 </r>
        <r>   -31.1226     0.0000     0.0000     0.0000     0.0000     0.0000     0.0000     0.0000     0.0000     0.0000 </r>
        <r>   -30.9823     0.0000     0.0000     0.0000     0.0000     0.0000     0.0000     0.0000     0.0000     0.0000 </r>
        <r>   -30.8421     0.0000     0.0000     0.0000     0.0000     0.0000     0.0000     0.0000     0.0000     0.0000 </r>
        <r>   -30.7018     0.0000     0.0000     0.0000     0.0000     0.0000     0.0000     0.0000     0.0000     0.0000 </r>
        <r>   -30.5616     0.0000     0.0000     0.0000     0.0000     0.0000     0.0000     0.0000     0.0000     0.0000 </r>
        <r>   -30.4213     0.0000     0.0000     0.0000     0.0000     0.0000     0.0000     0.0000     0.0000     0.0000 </r>
        <r>   -30.2810     0.0000     0.0000     0.0000     0.0000     0.0000     0.0000     0.0000     0.0000     0.0000 </r>
        <r>   -30.1408     0.0000     0.0000     0.0000     0.0000     0.0000     0.0000     0.0000     0.0000     0.0000 </r>
        <r>   -30.0005     0.0000     0.0000     0.0000     0.0000     0.0000     0.0000     0.0000     0.0000     0.0000 </r>
        <r>   -29.8603     0.0000     0.0000     0.0000     0.0000     0.0000     0.0000     0.0000     0.0000     0.0000 </r>
        <r>   -29.7200     0.0000     0.0000     0.0000     0.0000     0.0000     0.0000     0.0000     0.0000     0.0000 </r>
        <r>   -29.5797     0.0000     0.0000     0.0000     0.0000     0.0000     0.0000     0.0000     0.0000     0.0000 </r>
        <r>   -29.4395     0.0000     0.0000     0.0000     0.0000     0.0000     0.0000     0.0000     0.0000     0.0000 </r>
        <r>   -29.2992     0.0000     0.0000     0.0000     0.0000     0.0000     0.0000     0.0000     0.0000     0.0000 </r>
        <r>   -29.1590     0.0000     0.0000     0.0000     0.0000     0.0000     0.0000     0.0000     0.0000     0.0000 </r>
        <r>   -29.0187     0.0000     0.0000     0.0000     0.0000     0.0000     0.0000     0.0000     0.0000     0.0000 </r>
        <r>   -28.8784     0.0000     0.0000     0.0000     0.0000     0.0000     0.0000     0.0000     0.0000     0.0000 </r>
        <r>   -28.7382     0.0000     0.0000     0.0000     0.0000     0.0000     0.0000     0.0000     0.0000     0.0000 </r>
        <r>   -28.5979     0.0000     0.0000     0.0000     0.0000     0.0000     0.0000     0.0000     0.0000     0.0000 </r>
        <r>   -28.4577     0.0000     0.0000     0.0000     0.0000     0.0000     0.0000     0.0000     0.0000     0.0000 </r>
        <r>   -28.3174     0.0000     0.0000     0.0000     0.0000     0.0000     0.0000     0.0000     0.0000     0.0000 </r>
        <r>   -28.1771     0.0000     0.0000     0.0000     0.0000     0.0000     0.0000     0.0000     0.0000     0.0000 </r>
        <r>   -28.0369     0.0000     0.0000     0.0000     0.0000     0.0000     0.0000     0.0000     0.0000     0.0000 </r>
        <r>   -27.8966     0.0000     0.0000     0.0000     0.0000     0.0000     0.0000     0.0000     0.0000     0.0000 </r>
        <r>   -27.7564     0.0000     0.0000     0.0000     0.0000     0.0000     0.0000     0.0000     0.0000     0.0000 </r>
        <r>   -27.6161     0.0000     0.0000     0.0000     0.0000     0.0000     0.0000     0.0000     0.0000     0.0000 </r>
        <r>   -27.4759     0.0000     0.0000     0.0000     0.0000     0.0000     0.0000     0.0000     0.0000     0.0000 </r>
        <r>   -27.3356     0.0000     0.0000     0.0000     0.0000     0.0000     0.0000     0.0000     0.0000     0.0000 </r>
        <r>   -27.1953     0.0000     0.0000     0.0000     0.0000     0.0000     0.0000     0.0000     0.0000     0.0000 </r>
        <r>   -27.0551     0.0000     0.0000     0.0000     0.0000     0.0000     0.0000     0.0000     0.0000     0.0000 </r>
        <r>   -26.9148     0.0000     0.0000     0.0000     0.0000     0.0000     0.0000     0.0000     0.0000     0.0000 </r>
        <r>   -26.7746     0.0000     0.0000     0.0000     0.0000     0.0000     0.0000     0.0000     0.0000     0.0000 </r>
        <r>   -26.6343     0.0000     0.0000     0.0000     0.0000     0.0000     0.0000     0.0000     0.0000     0.0000 </r>
        <r>   -26.4940     0.0000     0.0000     0.0000     0.0000     0.0000     0.0000     0.0000     0.0000     0.0000 </r>
        <r>   -26.3538     0.0000     0.0000     0.0000     0.0000     0.0000     0.0000     0.0000     0.0000     0.0000 </r>
        <r>   -26.2135     0.0000     0.0000     0.0000     0.0000     0.0000     0.0000     0.0000     0.0000     0.0000 </r>
        <r>   -26.0733     0.0000     0.0000     0.0000     0.0000     0.0000     0.0000     0.0000     0.0000     0.0000 </r>
        <r>   -25.9330     0.0000     0.0000     0.0000     0.0000     0.0000     0.0000     0.0000     0.0000     0.0000 </r>
        <r>   -25.7927     0.0000     0.0000     0.0000     0.0000     0.0000     0.0000     0.0000     0.0000     0.0000 </r>
        <r>   -25.6525     0.0000     0.0000     0.0000     0.0000     0.0000     0.0000     0.0000     0.0000     0.0000 </r>
        <r>   -25.5122     0.0000     0.0000     0.0000     0.0000     0.0000     0.0000     0.0000     0.0000     0.0000 </r>
        <r>   -25.3720     0.0000     0.0000     0.0000     0.0000     0.0000     0.0000     0.0000     0.0000     0.0000 </r>
        <r>   -25.2317     0.0000     0.0000     0.0000     0.0000     0.0000     0.0000     0.0000     0.0000     0.0000 </r>
        <r>   -25.0914     0.0000     0.0000     0.0000     0.0000     0.0000     0.0000     0.0000     0.0000     0.0000 </r>
        <r>   -24.9512     0.0000     0.0000     0.0000     0.0000     0.0000     0.0000     0.0000     0.0000     0.0000 </r>
        <r>   -24.8109     0.0000     0.0000     0.0000     0.0000     0.0000     0.0000     0.0000     0.0000     0.0000 </r>
        <r>   -24.6707     0.0000     0.0000     0.0000     0.0000     0.0000     0.0000     0.0000     0.0000     0.0000 </r>
        <r>   -24.5304     0.0000     0.0000     0.0000     0.0000     0.0000     0.0000     0.0000     0.0000     0.0000 </r>
        <r>   -24.3901     0.0000     0.0000     0.0000     0.0000     0.0000     0.0000     0.0000     0.0000     0.0000 </r>
        <r>   -24.2499     0.0000     0.0000     0.0000     0.0000     0.0000     0.0000     0.0000     0.0000     0.0000 </r>
        <r>   -24.1096     0.0000     0.0000     0.0000     0.0000     0.0000     0.0000     0.0000     0.0000     0.0000 </r>
        <r>   -23.9694     0.0000     0.0000     0.0000     0.0000     0.0000     0.0000     0.0000     0.0000     0.0000 </r>
        <r>   -23.8291     0.0000     0.0000     0.0000     0.0000     0.0000     0.0000     0.0000     0.0000     0.0000 </r>
        <r>   -23.6888     0.0000     0.0000     0.0000     0.0000     0.0000     0.0000     0.0000     0.0000     0.0000 </r>
        <r>   -23.5486     0.0000     0.0000     0.0000     0.0000     0.0000     0.0000     0.0000     0.0000     0.0000 </r>
        <r>   -23.4083     0.0000     0.0000     0.0000     0.0000     0.0000     0.0000     0.0000     0.0000     0.0000 </r>
        <r>   -23.2681     0.0000     0.0000     0.0000     0.0000     0.0000     0.0000     0.0000     0.0000     0.0000 </r>
        <r>   -23.1278     0.0000     0.0000     0.0000     0.0000     0.0000     0.0000     0.0000     0.0000     0.0000 </r>
        <r>   -22.9875     0.0000     0.0000     0.0000     0.0000     0.0000     0.0000     0.0000     0.0000     0.0000 </r>
        <r>   -22.8473     0.0000     0.0000     0.0000     0.0000     0.0000     0.0000     0.0000     0.0000     0.0000 </r>
        <r>   -22.7070     0.0000     0.0000     0.0000     0.0000     0.0000     0.0000     0.0000     0.0000     0.0000 </r>
        <r>   -22.5668     0.0000     0.0000     0.0000     0.0000     0.0000     0.0000     0.0000     0.0000     0.0000 </r>
        <r>   -22.4265     0.0000     0.0000     0.0000     0.0000     0.0000     0.0000     0.0000     0.0000     0.0000 </r>
        <r>   -22.2862     0.0000     0.0000     0.0000     0.0000     0.0000     0.0000     0.0000     0.0000     0.0000 </r>
        <r>   -22.1460     0.0000     0.0000     0.0000     0.0000     0.0000     0.0000     0.0000     0.0000     0.0000 </r>
        <r>   -22.0057     0.0000     0.0000     0.0000     0.0000     0.0000     0.0000     0.0000     0.0000     0.0000 </r>
        <r>   -21.8655     0.0000     0.0000     0.0000     0.0000     0.0000     0.0000     0.0000     0.0000     0.0000 </r>
        <r>   -21.7252     0.0000     0.0000     0.0000     0.0000     0.0000     0.0000     0.0000     0.0000     0.0000 </r>
        <r>   -21.5849     0.0000     0.0000     0.0000     0.0000     0.0000     0.0000     0.0000     0.0000     0.0000 </r>
        <r>   -21.4447     0.0000     0.0000     0.0000     0.0000     0.0000     0.0000     0.0000     0.0000     0.0000 </r>
        <r>   -21.3044     0.0000     0.0000     0.0000     0.0000     0.0000     0.0000     0.0000     0.0000     0.0000 </r>
        <r>   -21.1642     0.0000     0.0000     0.0000     0.0000     0.0000     0.0000     0.0000     0.0000     0.0000 </r>
        <r>   -21.0239     0.0000     0.0000     0.0000     0.0000     0.0000     0.0000     0.0000     0.0000     0.0000 </r>
        <r>   -20.8837     0.0000     0.0000     0.0000     0.0000     0.0000     0.0000     0.0000     0.0000     0.0000 </r>
        <r>   -20.7434     0.0000     0.0000     0.0000     0.0000     0.0000     0.0000     0.0000     0.0000     0.0000 </r>
        <r>   -20.6031     0.0000     0.0000     0.0000     0.0000     0.0000     0.0000     0.0000     0.0000     0.0000 </r>
        <r>   -20.4629     0.0000     0.0000     0.0000     0.0000     0.0000     0.0000     0.0000     0.0000     0.0000 </r>
        <r>   -20.3226     0.0000     0.0000     0.0000     0.0000     0.0000     0.0000     0.0000     0.0000     0.0000 </r>
        <r>   -20.1824     0.0000     0.0000     0.0000     0.0000     0.0000     0.0000     0.0000     0.0000     0.0000 </r>
        <r>   -20.0421     0.0000     0.0000     0.0000     0.0000     0.0000     0.0000     0.0000     0.0000     0.0000 </r>
        <r>   -19.9018     0.0000     0.0000     0.0000     0.0000     0.0000     0.0000     0.0000     0.0000     0.0000 </r>
        <r>   -19.7616     0.0000     0.0000     0.0000     0.0000     0.0000     0.0000     0.0000     0.0000     0.0000 </r>
        <r>   -19.6213     0.0000     0.0000     0.0000     0.0000     0.0000     0.0000     0.0000     0.0000     0.0000 </r>
        <r>   -19.4811     0.0000     0.0000     0.0000     0.0000     0.0000     0.0000     0.0000     0.0000     0.0000 </r>
        <r>   -19.3408     0.0000     0.0000     0.0000     0.0000     0.0000     0.0000     0.0000     0.0000     0.0000 </r>
        <r>   -19.2005     0.0000     0.0000     0.0000     0.0000     0.0000     0.0000     0.0000     0.0000     0.0000 </r>
        <r>   -19.0603     0.0000     0.0000     0.0000     0.0000     0.0000     0.0000     0.0000     0.0000     0.0000 </r>
        <r>   -18.9200     0.0000     0.0000     0.0000     0.0000     0.0000     0.0000     0.0000     0.0000     0.0000 </r>
        <r>   -18.7798     0.0000     0.0000     0.0000     0.0000     0.0000     0.0000     0.0000     0.0000     0.0000 </r>
        <r>   -18.6395     0.0000     0.0000     0.0000     0.0000     0.0000     0.0000     0.0000     0.0000     0.0000 </r>
        <r>   -18.4992     0.0000     1.6825     1.6825     1.6825     0.0000     0.0000     0.0000     0.0000     0.0000 </r>
        <r>   -18.3590     0.0000     4.9254     4.9254     4.9254     0.0000     0.0000     0.0000     0.0000     0.0000 </r>
        <r>   -18.2187     0.0000     0.0031     0.0031     0.0031     0.0000     0.0000     0.0000     0.0000     0.0000 </r>
        <r>   -18.0785     0.0000     0.0000     0.0000     0.0000     0.0000     0.0000     0.0000     0.0000     0.0000 </r>
        <r>   -17.9382     0.0000     0.0000     0.0000     0.0000     0.0000     0.0000     0.0000     0.0000     0.0000 </r>
        <r>   -17.7979     0.0000     0.0000     0.0000     0.0000     0.0000     0.0000     0.0000     0.0000     0.0000 </r>
        <r>   -17.6577     0.0000     0.0000     0.0000     0.0000     0.0000     0.0000     0.0000     0.0000     0.0000 </r>
        <r>   -17.5174     0.0000     0.0000     0.0000     0.0000     0.0000     0.0000     0.0000     0.0000     0.0000 </r>
        <r>   -17.3772     0.0000     0.0000     0.0000     0.0000     0.0000     0.0000     0.0000     0.0000     0.0000 </r>
        <r>   -17.2369     0.0000     0.0000     0.0000     0.0000     0.0000     0.0000     0.0000     0.0000     0.0000 </r>
        <r>   -17.0966     0.0000     0.0000     0.0000     0.0000     0.0000     0.0000     0.0000     0.0000     0.0000 </r>
        <r>   -16.9564     0.0000     0.0000     0.0000     0.0000     0.0000     0.0000     0.0000     0.0000     0.0000 </r>
        <r>   -16.8161     0.0000     0.0000     0.0000     0.0000     0.0000     0.0000     0.0000     0.0000     0.0000 </r>
        <r>   -16.6759     0.0000     0.0000     0.0000     0.0000     0.0000     0.0000     0.0000     0.0000     0.0000 </r>
        <r>   -16.5356     0.0000     0.0000     0.0000     0.0000     0.0000     0.0000     0.0000     0.0000     0.0000 </r>
        <r>   -16.3953     0.0000     0.0000     0.0000     0.0000     0.0000     0.0000     0.0000     0.0000     0.0000 </r>
        <r>   -16.2551     0.0000     0.0000     0.0000     0.0000     0.0000     0.0000     0.0000     0.0000     0.0000 </r>
        <r>   -16.1148     0.0000     0.0000     0.0000     0.0000     0.0000     0.0000     0.0000     0.0000     0.0000 </r>
        <r>   -15.9746     0.0000     0.0000     0.0000     0.0000     0.0000     0.0000     0.0000     0.0000     0.0000 </r>
        <r>   -15.8343     0.0000     0.0000     0.0000     0.0000     0.0000     0.0000     0.0000     0.0000     0.0000 </r>
        <r>   -15.6940     0.0000     0.0000     0.0000     0.0000     0.0000     0.0000     0.0000     0.0000     0.0000 </r>
        <r>   -15.5538     0.0000     0.0000     0.0000     0.0000     0.0000     0.0000     0.0000     0.0000     0.0000 </r>
        <r>   -15.4135     0.0000     0.0000     0.0000     0.0000     0.0000     0.0000     0.0000     0.0000     0.0000 </r>
        <r>   -15.2733     0.0000     0.0000     0.0000     0.0000     0.0000     0.0000     0.0000     0.0000     0.0000 </r>
        <r>   -15.1330     0.0000     0.0000     0.0000     0.0000     0.0000     0.0000     0.0000     0.0000     0.0000 </r>
        <r>   -14.9928     0.0000     0.0000     0.0000     0.0000     0.0000     0.0000     0.0000     0.0000     0.0000 </r>
        <r>   -14.8525     0.0000     0.0000     0.0000     0.0000     0.0000     0.0000     0.0000     0.0000     0.0000 </r>
        <r>   -14.7122     0.0000     0.0000     0.0000     0.0000     0.0000     0.0000     0.0000     0.0000     0.0000 </r>
        <r>   -14.5720     0.0000     0.0000     0.0000     0.0000     0.0000     0.0000     0.0000     0.0000     0.0000 </r>
        <r>   -14.4317     0.0000     0.0000     0.0000     0.0000     0.0000     0.0000     0.0000     0.0000     0.0000 </r>
        <r>   -14.2915     0.0000     0.0000     0.0000     0.0000     0.0000     0.0000     0.0000     0.0000     0.0000 </r>
        <r>   -14.1512     0.0000     0.0000     0.0000     0.0000     0.0000     0.0000     0.0000     0.0000     0.0000 </r>
        <r>   -14.0109     0.0000     0.0000     0.0000     0.0000     0.0000     0.0000     0.0000     0.0000     0.0000 </r>
        <r>   -13.8707     0.0000     0.0000     0.0000     0.0000     0.0000     0.0000     0.0000     0.0000     0.0000 </r>
        <r>   -13.7304     0.0000     0.0000     0.0000     0.0000     0.0000     0.0000     0.0000     0.0000     0.0000 </r>
        <r>   -13.5902     0.0000     0.0000     0.0000     0.0000     0.0000     0.0000     0.0000     0.0000     0.0000 </r>
        <r>   -13.4499     0.0000     0.0000     0.0000     0.0000     0.0000     0.0000     0.0000     0.0000     0.0000 </r>
        <r>   -13.3096     0.0000     0.0000     0.0000     0.0000     0.0000     0.0000     0.0000     0.0000     0.0000 </r>
        <r>   -13.1694     0.0000     0.0000     0.0000     0.0000     0.0000     0.0000     0.0000     0.0000     0.0000 </r>
        <r>   -13.0291     0.0000     0.0000     0.0000     0.0000     0.0000     0.0000     0.0000     0.0000     0.0000 </r>
        <r>   -12.8889     0.0000     0.0000     0.0000     0.0000     0.0000     0.0000     0.0000     0.0000     0.0000 </r>
        <r>   -12.7486     0.0000     0.0000     0.0000     0.0000     0.0000     0.0000     0.0000     0.0000     0.0000 </r>
        <r>   -12.6083     0.0000     0.0000     0.0000     0.0000     0.0000     0.0000     0.0000     0.0000     0.0000 </r>
        <r>   -12.4681     0.0000     0.0000     0.0000     0.0000     0.0000     0.0000     0.0000     0.0000     0.0000 </r>
        <r>   -12.3278     0.0000     0.0000     0.0000     0.0000     0.0000     0.0000     0.0000     0.0000     0.0000 </r>
        <r>   -12.1876     0.0000     0.0000     0.0000     0.0000     0.0000     0.0000     0.0000     0.0000     0.0000 </r>
        <r>   -12.0473     0.0000     0.0000     0.0000     0.0000     0.0000     0.0000     0.0000     0.0000     0.0000 </r>
        <r>   -11.9070     0.0000     0.0000     0.0000     0.0000     0.0000     0.0000     0.0000     0.0000     0.0000 </r>
        <r>   -11.7668     0.0000     0.0000     0.0000     0.0000     0.0000     0.0000     0.0000     0.0000     0.0000 </r>
        <r>   -11.6265     0.0000     0.0000     0.0000     0.0000     0.0000     0.0000     0.0000     0.0000     0.0000 </r>
        <r>   -11.4863     0.0000     0.0000     0.0000     0.0000     0.0000     0.0000     0.0000     0.0000     0.0000 </r>
        <r>   -11.3460     0.0000     0.0000     0.0000     0.0000     0.0000     0.0000     0.0000     0.0000     0.0000 </r>
        <r>   -11.2057     0.0000     0.0000     0.0000     0.0000     0.0000     0.0000     0.0000     0.0000     0.0000 </r>
        <r>   -11.0655     0.0000     0.0000     0.0000     0.0000     0.0000     0.0000     0.0000     0.0000     0.0000 </r>
        <r>   -10.9252     0.0000     0.0000     0.0000     0.0000     0.0000     0.0000     0.0000     0.0000     0.0000 </r>
        <r>   -10.7850     0.0000     0.0000     0.0000     0.0000     0.0000     0.0000     0.0000     0.0000     0.0000 </r>
        <r>   -10.6447     0.0000     0.0000     0.0000     0.0000     0.0000     0.0000     0.0000     0.0000     0.0000 </r>
        <r>   -10.5044     0.0000     0.0000     0.0000     0.0000     0.0000     0.0000     0.0000     0.0000     0.0000 </r>
        <r>   -10.3642     0.0000     0.0000     0.0000     0.0000     0.0000     0.0000     0.0000     0.0000     0.0000 </r>
        <r>   -10.2239     0.0000     0.0000     0.0000     0.0000     0.0000     0.0000     0.0000     0.0000     0.0000 </r>
        <r>   -10.0837     0.0000     0.0000     0.0000     0.0000     0.0000     0.0000     0.0000     0.0000     0.0000 </r>
        <r>    -9.9434     0.0000     0.0000     0.0000     0.0000     0.0000     0.0000     0.0000     0.0000     0.0000 </r>
        <r>    -9.8031     0.0000     0.0000     0.0000     0.0000     0.0000     0.0000     0.0000     0.0000     0.0000 </r>
        <r>    -9.6629     0.0000     0.0000     0.0000     0.0000     0.0000     0.0000     0.0000     0.0000     0.0000 </r>
        <r>    -9.5226     0.0000     0.0000     0.0000     0.0000     0.0000     0.0000     0.0000     0.0000     0.0000 </r>
        <r>    -9.3824     0.0000     0.0000     0.0000     0.0000     0.0000     0.0000     0.0000     0.0000     0.0000 </r>
[...]
        <r>     0.4358     0.0000     0.0000     0.0000     0.0000     0.0000     0.0000     0.0000     0.0000     0.0000 </r>
        <r>     0.5761     0.0000     0.0000     0.0000     0.0000     0.0000     0.0000     0.0000     0.0000     0.0000 </r>
        <r>     0.7163     0.0000     0.0000     0.0000     0.0000     0.0000     0.0000     0.0349     0.0000     0.0346 </r>
        <r>     0.8566     0.0000     0.0001     0.0000     0.0001     0.0001     0.0000     0.6583     0.0000     0.6584 </r>
        <r>     0.9968     0.0000     0.0000     0.0000     0.0000     0.0000     0.0000     0.0071     0.0000     0.0072 </r>
        <r>     1.1371     0.0000     0.0000     0.0000     0.0000     0.0000     0.0000     0.0000     0.0000     0.0000 </r>
        <r>     1.2774     0.0000     0.0000     0.0000     0.0000     0.0000     0.0000     0.0000     0.0000     0.0000 </r>
        <r>     1.4176     0.0000     0.0000     0.0000     0.0000     0.0000     0.0000     0.0000     0.0000     0.0000 </r>
        <r>     1.5579     0.0008     0.0266     0.0350     0.0210     0.0065     0.0038     0.0001     0.0047     0.0006 </r>
        <r>     1.6981     0.0018     0.0712     0.0626     0.0680     0.0181     0.0112     0.0003     0.0091     0.0015 </r>
        <r>     1.8384     0.0011     0.0000     0.0000     0.0001     0.0003     0.0005     0.0000     0.0011     0.0000 </r>
        <r>     1.9787     0.2032     0.0005     0.0010     0.0045     0.0275     0.1230     0.0014     0.0571     0.0044 </r>
        <r>     2.1189     0.0196     0.0043     0.0020     0.0008     0.6369     0.5001     0.0747     0.3900     0.0507 </r>
        <r>     2.2592     0.0004     0.0011     0.0007     0.0006     0.0957     0.1744     0.1303     0.3135     0.1332 </r>
        <r>     2.3994     0.0000     0.0001     0.0000     0.0000     0.0009     0.0008     0.0026     0.0078     0.0294 </r>
        <r>     2.5397     0.0000     0.0000     0.0000     0.0000     0.0000     0.0000     0.0000     0.0000     0.0000 </r>
        <r>     2.6800     0.0000     0.0000     0.0000     0.0000     0.0000     0.0000     0.0000     0.0000     0.0000 </r>
        <r>     2.8202     0.0000     0.0000     0.0000     0.0000     0.0000     0.0000     0.0000     0.0000     0.0000 </r>
        <r>     2.9605     0.0000     0.0000     0.0000     0.0000     0.0003     0.0000     0.0000     0.0002     0.0000 </r>
        <r>     3.1007     0.0005     0.0004     0.0003     0.0003     0.0379     0.0044     0.0006     0.0254     0.0001 </r>
        <r>     3.2410     0.0000     0.0000     0.0000     0.0000     0.0025     0.0003     0.0000     0.0017     0.0000 </r>
        <r>     3.3813     0.0000     0.0000     0.0000     0.0000     0.0000     0.0000     0.0000     0.0001     0.0000 </r>
        <r>     3.5215     0.0011     0.0046     0.0007     0.0000     0.0018     0.0143     0.0001     0.0591     0.0000 </r>
        <r>     3.6618     0.0141     0.0020     0.0003     0.0005     0.1472     0.1717     0.0001     0.1400     0.0003 </r>
        <r>     3.8020     0.0444     0.0018     0.0000     0.0003     0.0671     0.1568     0.0001     0.0781     0.0005 </r>
        <r>     3.9423     0.0011     0.0000     0.0003     0.0014     0.0015     0.0011     0.0042     0.0026     0.0024 </r>
        <r>     4.0825     0.0635     0.0006     0.0071     0.0130     0.0271     0.0063     0.0601     0.0315     0.0214 </r>
        <r>     4.2228     0.0155     0.0001     0.0012     0.0006     0.0047     0.0004     0.0076     0.0042     0.0009 </r>
        <r>     4.3631     0.0000     0.0000     0.0000     0.0000     0.0000     0.0000     0.0000     0.0000     0.0000 </r>
        <r>     4.5033     0.0000     0.0000     0.0000     0.0000     0.0000     0.0000     0.0000     0.0000     0.0000 </r>
        <r>     4.6436     0.0095     0.0000     0.0014     0.0001     0.0005     0.0004     0.0042     0.0010     0.0101 </r>
        <r>     4.7838     0.0898     0.0000     0.0132     0.0013     0.0049     0.0036     0.0395     0.0090     0.0958 </r>
        <r>     4.9241     0.0004     0.0000     0.0001     0.0000     0.0000     0.0000     0.0002     0.0000     0.0004 </r>
        <r>     5.0644     0.0000     0.0000     0.0000     0.0000     0.0000     0.0000     0.0000     0.0000     0.0000 </r>
        <r>     5.2046     0.0000     0.0000     0.0000     0.0000     0.0000     0.0000     0.0000     0.0000     0.0000 </r>
        <r>     5.3449     0.0000     0.0000     0.0000     0.0000     0.0000     0.0000     0.0000     0.0000     0.0000 </r>
        <r>     5.4851     0.0000     0.0000     0.0000     0.0000     0.0000     0.0000     0.0000     0.0000     0.0000 </r>
        <r>     5.6254     0.0000     0.0000     0.0000     0.0000     0.0000     0.0000     0.0000     0.0000     0.0000 </r>
        <r>     5.7657     0.0000     0.0000     0.0000     0.0000     0.0000     0.0000     0.0000     0.0000     0.0000 </r>
        <r>     5.9059     0.0000     0.0000     0.0000     0.0000     0.0000     0.0000     0.0000     0.0000     0.0000 </r>
        <r>     6.0462     0.0000     0.0000     0.0000     0.0000     0.0000     0.0000     0.0000     0.0000     0.0000 </r>
        <r>     6.1864     0.0000     0.0000     0.0000     0.0000     0.0000     0.0000     0.0000     0.0000     0.0000 </r>
        <r>     6.3267     0.0000     0.0000     0.0000     0.0000     0.0000     0.0000     0.0000     0.0000     0.0000 </r>
        <r>     6.4670     0.0000     0.0000     0.0000     0.0000     0.0000     0.0000     0.0000     0.0000     0.0000 </r>
        <r>     6.6072     0.0000     0.0000     0.0000     0.0000     0.0000     0.0000     0.0000     0.0000     0.0000 </r>
        <r>     6.7475     0.0000     0.0000     0.0000     0.0000     0.0000     0.0000     0.0000     0.0000     0.0000 </r>
       </set>
      </set>
     </set>
    </array>
   </partial>
  </dos>
  <projected>
   <eigenvalues>
    <array>
     <dimension dim="1">band</dimension>
     <dimension dim="2">kpoint</dimension>
     <dimension dim="3">spin</dimension>
     <field>eigene</field>
     <field>occ</field>
     <set>
      <set comment="spin 1">
       <set comment="kpoint 1">
        <r>  -33.4178    1.0000 </r>
        <r>  -18.4759    1.0000 </r>
        <r>  -18.4759    1.0000 </r>
        <r>  -18.4759    1.0000 </r>
        <r>   -2.9306    1.0000 </r>
        <r>   -1.7423    0.0000 </r>
        <r>   -1.7276    0.0000 </r>
        <r>   -1.7083    0.0000 </r>
        <r>   -1.6982    0.0000 </r>
        <r>   -1.6959    0.0000 </r>
        <r>   -0.7186    0.0000 </r>
        <r>   -0.7156    0.0000 </r>
        <r>   -0.7135    0.0000 </r>
        <r>   -0.0481    0.0000 </r>
        <r>    0.7741    0.0000 </r>
        <r>    0.7747    0.0000 </r>
        <r>    1.5862    0.0000 </r>
        <r>    1.6193    0.0000 </r>
        <r>    1.6856    0.0000 </r>
        <r>    1.8804    0.0000 </r>
        <r>    1.9279    0.0000 </r>
        <r>    1.9978    0.0000 </r>
        <r>    2.0173    0.0000 </r>
        <r>    2.0264    0.0000 </r>
        <r>    2.0436    0.0000 </r>
        <r>    2.0621    0.0000 </r>
        <r>    2.1410    0.0000 </r>
        <r>    2.2525    0.0000 </r>
        <r>    3.0113    0.0000 </r>
        <r>    3.5936    0.0000 </r>
        <r>    3.6083    0.0000 </r>
        <r>    3.6282    0.0000 </r>
        <r>    3.6580    0.0000 </r>
        <r>    3.6616    0.0000 </r>
        <r>    3.6908    0.0000 </r>
        <r>    4.8349    0.0000 </r>
       </set>
      </set>
      <set comment="spin 2">
       <set comment="kpoint 1">
        <r>  -33.4167    1.0000 </r>
        <r>  -18.4763    1.0000 </r>
        <r>  -18.4763    1.0000 </r>
        <r>  -18.4763    1.0000 </r>
        <r>   -2.9299    1.0000 </r>
        <r>   -1.7401    0.0000 </r>
        <r>   -1.7366    0.0000 </r>
        <r>   -1.7000    0.0000 </r>
        <r>   -1.6962    0.0000 </r>
        <r>   -1.6899    0.0000 </r>
        <r>   -0.7176    0.0000 </r>
        <r>   -0.7155    0.0000 </r>
        <r>   -0.7097    0.0000 </r>
        <r>   -0.0480    0.0000 </r>
        <r>    0.7744    0.0000 </r>
        <r>    0.7748    0.0000 </r>
        <r>    1.5699    0.0000 </r>
        <r>    1.5792    0.0000 </r>
        <r>    1.5845    0.0000 </r>
        <r>    1.9113    0.0000 </r>
        <r>    1.9298    0.0000 </r>
        <r>    1.9318    0.0000 </r>
        <r>    2.0367    0.0000 </r>
        <r>    2.0776    0.0000 </r>
        <r>    2.0808    0.0000 </r>
        <r>    2.1181    0.0000 </r>
        <r>    2.1572    0.0000 </r>
        <r>    2.2282    0.0000 </r>
        <r>    3.0462    0.0000 </r>
        <r>    3.4944    0.0000 </r>
        <r>    3.6222    0.0000 </r>
        <r>    3.6606    0.0000 </r>
        <r>    3.7176    0.0000 </r>
        <r>    3.9849    0.0000 </r>
        <r>    4.0542    0.0000 </r>
        <r>    4.6898    0.0000 </r>
       </set>
      </set>
     </set>
    </array>
   </eigenvalues>
   <array>
    <dimension dim="1">ion</dimension>
    <dimension dim="2">band</dimension>
    <dimension dim="3">kpoint</dimension>
    <dimension dim="4">spin</dimension>
    <field>    s</field>
    <field>   py</field>
    <field>   pz</field>
    <field>   px</field>
    <field>  dxy</field>
    <field>  dyz</field>
    <field>  dz2</field>
    <field>  dxz</field>
    <field>x2-y2</field>
    <set>
     <set comment="spin1">
      <set comment="kpoint 1">
       <set comment="band 1">
        <r>  0.9797  0.0000  0.0000  0.0000  0.0000  0.0000  0.0000  0.0000  0.0000 </r>
       </set>
       <set comment="band 2">
        <r>  0.0000  0.4844  0.1617  0.2811  0.0000  0.0000  0.0000  0.0000  0.0000 </r>
       </set>
       <set comment="band 3">
        <r>  0.0000  0.4428  0.1739  0.3105  0.0000  0.0000  0.0000  0.0000  0.0000 </r>
       </set>
       <set comment="band 4">
        <r>  0.0000  0.0000  0.5916  0.3356  0.0000  0.0000  0.0000  0.0000  0.0000 </r>
       </set>
       <set comment="band 5">
        <r>  0.1014  0.0000  0.0000  0.0000  0.0000  0.0000  0.0000  0.0000  0.0000 </r>
       </set>
       <set comment="band 6">
        <r>  0.0000  0.0000  0.0000  0.0000  0.0050  0.0064  0.1164  0.0056  0.2909 </r>
       </set>
       <set comment="band 7">
        <r>  0.0000  0.0000  0.0000  0.0000  0.0284  0.0968  0.1848  0.0087  0.1053 </r>
       </set>
       <set comment="band 8">
        <r>  0.0000  0.0000  0.0000  0.0000  0.0046  0.3146  0.1013  0.0015  0.0148 </r>
       </set>
       <set comment="band 9">
        <r>  0.0000  0.0000  0.0000  0.0000  0.2981  0.0277  0.0107  0.1047  0.0041 </r>
       </set>
       <set comment="band 10">
        <r>  0.0000  0.0000  0.0000  0.0000  0.1094  0.0003  0.0029  0.3223  0.0059 </r>
       </set>
       <set comment="band 11">
        <r>  0.0000  0.0012  0.0012  0.0324  0.0000  0.0000  0.0000  0.0001  0.0000 </r>
       </set>
       <set comment="band 12">
        <r>  0.0000  0.0324  0.0011  0.0008  0.0000  0.0000  0.0002  0.0000  0.0001 </r>
       </set>
       <set comment="band 13">
        <r>  0.0000  0.0009  0.0315  0.0018  0.0000  0.0001  0.0000  0.0000  0.0000 </r>
       </set>
       <set comment="band 14">
        <r>  0.0359  0.0000  0.0000  0.0000  0.0000  0.0000  0.0000  0.0000  0.0000 </r>
       </set>
       <set comment="band 15">
        <r>  0.0000  0.0000  0.0000  0.0000  0.0000  0.0000  0.0866  0.0000  0.0125 </r>
       </set>
       <set comment="band 16">
        <r>  0.0000  0.0000  0.0000  0.0000  0.0000  0.0000  0.0117  0.0000  0.0840 </r>
       </set>
       <set comment="band 17">
        <r>  0.0001  0.0040  0.0020  0.0062  0.0001  0.0000  0.0000  0.0013  0.0000 </r>
       </set>
       <set comment="band 18">
        <r>  0.0002  0.0045  0.0016  0.0049  0.0000  0.0040  0.0000  0.0005  0.0000 </r>
       </set>
       <set comment="band 19">
        <r>  0.0007  0.0034  0.0066  0.0000  0.0005  0.0001  0.0000  0.0081  0.0003 </r>
       </set>
       <set comment="band 20">
        <r>  0.0000  0.0005  0.0006  0.0003  0.0028  0.0032  0.0001  0.0008  0.0000 </r>
       </set>
       <set comment="band 21">
        <r>  0.0309  0.0000  0.0003  0.0000  0.0000  0.0009  0.0000  0.0005  0.0000 </r>
       </set>
       <set comment="band 22">
        <r>  0.0000  0.0004  0.0019  0.0005  0.0008  0.0004  0.0090  0.0056  0.0020 </r>
       </set>
       <set comment="band 23">
        <r>  0.0001  0.0000  0.0002  0.0001  0.0598  0.0029  0.0001  0.0001  0.0000 </r>
       </set>
       <set comment="band 24">
        <r>  0.0002  0.0005  0.0001  0.0000  0.0325  0.0284  0.0000  0.0029  0.0014 </r>
       </set>
       <set comment="band 25">
        <r>  0.0000  0.0001  0.0001  0.0000  0.0066  0.0496  0.0004  0.0169  0.0000 </r>
       </set>
       <set comment="band 26">
        <r>  0.0000  0.0000  0.0000  0.0008  0.0001  0.0102  0.0109  0.0063  0.0001 </r>
       </set>
       <set comment="band 27">
        <r>  0.0000  0.0000  0.0005  0.0000  0.0055  0.0008  0.0043  0.0532  0.0046 </r>
       </set>
       <set comment="band 28">
        <r>  0.0001  0.0001  0.0001  0.0000  0.0000  0.0044  0.0055  0.0089  0.0206 </r>
       </set>
       <set comment="band 29">
        <r>  0.0001  0.0000  0.0001  0.0003  0.0010  0.0005  0.0001  0.0014  0.0000 </r>
       </set>
       <set comment="band 30">
        <r>  0.0010  0.0003  0.0001  0.0001  0.0030  0.0002  0.0002  0.0373  0.0000 </r>
       </set>
       <set comment="band 31">
        <r>  0.0003  0.0004  0.0001  0.0018  0.0000  0.0001  0.0020  0.0003  0.0003 </r>
       </set>
       <set comment="band 32">
        <r>  0.0001  0.0000  0.0000  0.0000  0.0389  0.0025  0.0000  0.0055  0.0000 </r>
       </set>
       <set comment="band 33">
        <r>  0.0096  0.0000  0.0003  0.0002  0.0011  0.0000  0.0018  0.0025  0.0016 </r>
       </set>
       <set comment="band 34">
        <r>  0.0027  0.0000  0.0001  0.0000  0.0002  0.0310  0.0000  0.0011  0.0000 </r>
       </set>
       <set comment="band 35">
        <r>  0.0041  0.0000  0.0000  0.0001  0.0045  0.0192  0.0000  0.0019  0.0000 </r>
       </set>
       <set comment="band 36">
        <r>  0.0224  0.0002  0.0000  0.0000  0.0001  0.0000  0.0135  0.0001  0.0006 </r>
       </set>
      </set>
     </set>
     <set comment="spin2">
      <set comment="kpoint 1">
       <set comment="band 1">
        <r>  0.9799  0.0000  0.0000  0.0000  0.0000  0.0000  0.0000  0.0000  0.0000 </r>
       </set>
       <set comment="band 2">
        <r>  0.0000  0.0457  0.4210  0.4607  0.0000  0.0000  0.0000  0.0000  0.0000 </r>
       </set>
       <set comment="band 3">
        <r>  0.0000  0.7130  0.1912  0.0231  0.0000  0.0000  0.0000  0.0000  0.0000 </r>
       </set>
       <set comment="band 4">
        <r>  0.0000  0.1686  0.3152  0.4435  0.0000  0.0000  0.0000  0.0000  0.0000 </r>
       </set>
       <set comment="band 5">
        <r>  0.1008  0.0000  0.0000  0.0000  0.0000  0.0000  0.0000  0.0000  0.0000 </r>
       </set>
       <set comment="band 6">
        <r>  0.0000  0.0000  0.0000  0.0000  0.0001  0.0235  0.1966  0.0095  0.1930 </r>
       </set>
       <set comment="band 7">
        <r>  0.0000  0.0000  0.0000  0.0000  0.0211  0.0414  0.2078  0.0002  0.1506 </r>
       </set>
       <set comment="band 8">
        <r>  0.0000  0.0000  0.0000  0.0000  0.3450  0.0450  0.0131  0.0085  0.0303 </r>
       </set>
       <set comment="band 9">
        <r>  0.0000  0.0000  0.0000  0.0001  0.0277  0.2127  0.0004  0.1497  0.0417 </r>
       </set>
       <set comment="band 10">
        <r>  0.0000  0.0001  0.0000  0.0000  0.0494  0.1171  0.0009  0.2661  0.0012 </r>
       </set>
       <set comment="band 11">
        <r>  0.0000  0.0028  0.0124  0.0193  0.0001  0.0000  0.0000  0.0004  0.0000 </r>
       </set>
       <set comment="band 12">
        <r>  0.0000  0.0020  0.0172  0.0150  0.0000  0.0000  0.0000  0.0001  0.0001 </r>
       </set>
       <set comment="band 13">
        <r>  0.0000  0.0283  0.0045  0.0001  0.0006  0.0000  0.0000  0.0005  0.0001 </r>
       </set>
       <set comment="band 14">
        <r>  0.0352  0.0000  0.0000  0.0000  0.0000  0.0000  0.0000  0.0000  0.0000 </r>
       </set>
       <set comment="band 15">
        <r>  0.0000  0.0000  0.0000  0.0000  0.0000  0.0000  0.0626  0.0000  0.0351 </r>
       </set>
       <set comment="band 16">
        <r>  0.0000  0.0000  0.0000  0.0000  0.0000  0.0000  0.0356  0.0000  0.0632 </r>
       </set>
       <set comment="band 17">
        <r>  0.0002  0.0000  0.0129  0.0008  0.0001  0.0000  0.0000  0.0016  0.0001 </r>
       </set>
       <set comment="band 18">
        <r>  0.0001  0.0134  0.0000  0.0002  0.0026  0.0012  0.0000  0.0000  0.0002 </r>
       </set>
       <set comment="band 19">
        <r>  0.0001  0.0003  0.0008  0.0115  0.0008  0.0009  0.0000  0.0003  0.0000 </r>
       </set>
       <set comment="band 20">
        <r>  0.0001  0.0000  0.0001  0.0003  0.0020  0.0000  0.0001  0.0079  0.0000 </r>
       </set>
       <set comment="band 21">
        <r>  0.0311  0.0000  0.0000  0.0001  0.0003  0.0000  0.0000  0.0000  0.0000 </r>
       </set>
       <set comment="band 22">
        <r>  0.0000  0.0000  0.0000  0.0004  0.0003  0.0166  0.0001  0.0002  0.0006 </r>
       </set>
       <set comment="band 23">
        <r>  0.0000  0.0006  0.0000  0.0000  0.0241  0.0442  0.0003  0.0029  0.0003 </r>
       </set>
       <set comment="band 24">
        <r>  0.0001  0.0000  0.0002  0.0000  0.0048  0.0021  0.0011  0.0433  0.0076 </r>
       </set>
       <set comment="band 25">
        <r>  0.0000  0.0000  0.0001  0.0000  0.0705  0.0228  0.0002  0.0047  0.0000 </r>
       </set>
       <set comment="band 26">
        <r>  0.0001  0.0000  0.0001  0.0000  0.0035  0.0056  0.0149  0.0100  0.0000 </r>
       </set>
       <set comment="band 27">
        <r>  0.0000  0.0001  0.0000  0.0001  0.0006  0.0204  0.0109  0.0335  0.0003 </r>
       </set>
       <set comment="band 28">
        <r>  0.0000  0.0000  0.0000  0.0000  0.0006  0.0004  0.0018  0.0054  0.0216 </r>
       </set>
       <set comment="band 29">
        <r>  0.0001  0.0001  0.0001  0.0000  0.0057  0.0007  0.0001  0.0038  0.0000 </r>
       </set>
       <set comment="band 30">
        <r>  0.0002  0.0008  0.0001  0.0000  0.0003  0.0026  0.0000  0.0106  0.0000 </r>
       </set>
       <set comment="band 31">
        <r>  0.0003  0.0001  0.0000  0.0001  0.0181  0.0111  0.0000  0.0192  0.0000 </r>
       </set>
       <set comment="band 32">
        <r>  0.0027  0.0001  0.0000  0.0000  0.0093  0.0261  0.0000  0.0003  0.0000 </r>
       </set>
       <set comment="band 33">
        <r>  0.0052  0.0002  0.0000  0.0000  0.0027  0.0084  0.0000  0.0089  0.0001 </r>
       </set>
       <set comment="band 34">
        <r>  0.0009  0.0000  0.0004  0.0017  0.0016  0.0008  0.0051  0.0025  0.0029 </r>
       </set>
       <set comment="band 35">
        <r>  0.0102  0.0001  0.0008  0.0004  0.0031  0.0003  0.0049  0.0028  0.0006 </r>
       </set>
       <set comment="band 36">
        <r>  0.0140  0.0000  0.0021  0.0002  0.0008  0.0006  0.0062  0.0014  0.0149 </r>
       </set>
      </set>
     </set>
    </set>
   </array>
  </projected>
 </calculation>
 <structure name="finalpos" >
  <crystal>
   <varray name="basis" >
    <v>      10.00000000       0.00000000       0.00000000 </v>
    <v>       0.00000000      10.00000000       0.00000000 </v>
    <v>       0.00000000       0.00000000      10.00000000 </v>
   </varray>
   <i name="volume">   1000.00000000 </i>
   <varray name="rec_basis" >
    <v>       0.10000000       0.00000000       0.00000000 </v>
    <v>       0.00000000       0.10000000       0.00000000 </v>
    <v>       0.00000000       0.00000000       0.10000000 </v>
   </varray>
  </crystal>
  <varray name="positions" >
   <v>       0.50000000       0.50000000       0.50000000 </v>
  </varray>
 </structure>
</modeling>
