       N       E                     dE             d eps       ncg     rms          ort
DAV:   1     0.164805151069E+03    0.16481E+03   -0.34743E+03    36   0.238E+02
DAV:   2     0.359971917943E+02   -0.12881E+03   -0.12805E+03    36   0.430E+01
DAV:   3     0.498609775787E+01   -0.31011E+02   -0.30429E+02    36   0.419E+01
DAV:   4    -0.217179682616E+00   -0.52033E+01   -0.52028E+01    36   0.244E+01
DAV:   5    -0.102674279107E+01   -0.80956E+00   -0.80224E+00    36   0.695E+00
SDA:   6    -0.724313484753E+00    0.30243E+00   -0.21284E+01    36   0.532E+01 0.000E+00
DMP:   7    -0.143795129709E+01   -0.71364E+00   -0.10457E+01    36   0.325E+01-0.167E+01
DMP:   8    -0.240107154003E+01   -0.96312E+00   -0.12020E+01    36   0.301E+01-0.455E-02
DMP:   9    -0.278560248838E+01   -0.38453E+00   -0.54377E+00    36   0.178E+01-0.110E+01
DMP:  10    -0.304469799127E+01   -0.25910E+00   -0.15404E+00    36   0.410E+00-0.652E-01
DMP:  11    -0.309458621750E+01   -0.49888E-01   -0.59983E-01    36   0.203E+00-0.138E+00
DMP:  12    -0.312926437967E+01   -0.34678E-01   -0.38514E-01    36   0.879E-01 0.220E-01
DMP:  13    -0.315418756823E+01   -0.24923E-01   -0.21561E-01    36   0.434E-01 0.274E-01
DMP:  14    -0.317110517764E+01   -0.16918E-01   -0.12881E-01    36   0.208E-01 0.299E-01
DMP:  15    -0.318155372921E+01   -0.10449E-01   -0.74565E-02    36   0.112E-01 0.195E-01
DMP:  16    -0.318781013702E+01   -0.62564E-02   -0.40837E-02    36   0.547E-02 0.124E-01
DMP:  17    -0.319115657971E+01   -0.33464E-02   -0.19984E-02    36   0.253E-02 0.645E-02
DMP:  18    -0.319280888188E+01   -0.16523E-02   -0.96076E-03    36   0.117E-02 0.324E-02
DMP:  19    -0.319359568343E+01   -0.78680E-03   -0.42938E-03    36   0.494E-03 0.152E-02
DMP:  20    -0.319394749437E+01   -0.35181E-03   -0.19061E-03    36   0.217E-03 0.679E-03
DMP:  21    -0.319410302153E+01   -0.15553E-03   -0.81052E-04    36   0.883E-04 0.299E-03
DMP:  22    -0.319416835617E+01   -0.65335E-04   -0.33041E-04    36   0.353E-04 0.124E-03
DMP:  23    -0.319419497625E+01   -0.26620E-04   -0.13314E-04    36   0.140E-04 0.504E-04
   1 F= -.31941950E+01 E0= -.31800913E+01  d E =-.319419E+01  mag=     5.0000
