<?xml version="1.0" encoding="ISO-8859-1"?>
<modeling>
 <generator>
  <i name="program" type="string">vasp </i>
  <i name="version" type="string">5.4.4.18Apr17-6-g9f103f2a35  </i>
  <i name="subversion" type="string">(build Nov 08 2019 15:19:53) gamma-only         parallel </i>
  <i name="platform" type="string">LinuxIFC </i>
  <i name="date" type="string">2020 11 30 </i>
  <i name="time" type="string">09:30:48 </i>
 </generator>
 <incar>
  <i type="string" name="PREC">accurate</i>
  <i type="string" name="ALGO"> D</i>
  <i type="int" name="ISPIN">     2</i>
  <i type="int" name="NELM">   300</i>
  <i type="int" name="IBRION">     2</i>
  <i name="EDIFF">      0.00005000</i>
  <i type="int" name="NSW">    99</i>
  <i type="int" name="ISIF">     2</i>
  <i name="ENCUT">    520.00000000</i>
  <v name="MAGMOM">      0.60000000</v>
  <i type="string" name="LREAL"> Auto</i>
  <i type="int" name="ISMEAR">     0</i>
  <i name="SIGMA">      0.05000000</i>
  <i type="logical" name="LWAVE"> F  </i>
  <i type="int" name="LORBIT">    11</i>
  <i type="logical" name="LASPH"> T  </i>
  <v type="int" name="KPOINT_BSE">    -1     0     0     0</v>
  <i type="int" name="NELM">   300</i>
  <i type="logical" name="LASPH"> T  </i>
 </incar>
 <structure name="primitive_cell" >
  <crystal>
   <varray name="basis" >
    <v>      10.00000000       0.00000000       0.00000000 </v>
    <v>       0.00000000      10.00000000       0.00000000 </v>
    <v>       0.00000000       0.00000000      10.00000000 </v>
   </varray>
   <i name="volume">   1000.00000000 </i>
   <varray name="rec_basis" >
    <v>       0.10000000       0.00000000       0.00000000 </v>
    <v>       0.00000000       0.10000000       0.00000000 </v>
    <v>       0.00000000       0.00000000       0.10000000 </v>
   </varray>
  </crystal>
  <varray name="positions" >
   <v>      -0.50000000      -0.50000000      -0.50000000 </v>
  </varray>
 </structure>
 <varray name="primitive_index" >
  <v type="int" >        1 </v>
 </varray>
 <kpoints>
  <generation param="Gamma">
   <v type="int" name="divisions">       1        1        1 </v>
   <v name="usershift">      0.00000000       0.00000000       0.00000000 </v>
   <v name="genvec1">      1.00000000       0.00000000       0.00000000 </v>
   <v name="genvec2">      0.00000000       1.00000000       0.00000000 </v>
   <v name="genvec3">      0.00000000       0.00000000       1.00000000 </v>
   <v name="shift">      0.00000000       0.00000000       0.00000000 </v>
  </generation>
  <varray name="kpointlist" >
   <v>       0.00000000       0.00000000       0.00000000 </v>
  </varray>
  <varray name="weights" >
   <v>       1.00000000 </v>
  </varray>
 </kpoints>
 <parameters>
  <separator name="general" >
   <i type="string" name="SYSTEM">unknown system</i>
   <i type="logical" name="LCOMPAT"> F  </i>
  </separator>
  <separator name="electronic" >
   <i type="string" name="PREC">accura</i>
   <i name="ENMAX">    520.00000000</i>
   <i name="ENAUG">    355.06700000</i>
   <i name="EDIFF">      0.00005000</i>
   <i type="int" name="IALGO">    53</i>
   <i type="int" name="IWAVPR">    11</i>
   <i type="int" name="NBANDS">    36</i>
   <i name="NELECT">     11.00000000</i>
   <i type="int" name="TURBO">     0</i>
   <i type="int" name="IRESTART">     0</i>
   <i type="int" name="NREBOOT">     0</i>
   <i type="int" name="NMIN">     0</i>
   <i name="EREF">      0.00000000</i>
   <separator name="electronic smearing" >
    <i type="int" name="ISMEAR">     0</i>
    <i name="SIGMA">      0.05000000</i>
    <i name="KSPACING">      0.50000000</i>
    <i type="logical" name="KGAMMA"> T  </i>
   </separator>
   <separator name="electronic projectors" >
    <i type="logical" name="LREAL"> T  </i>
    <v name="ROPT">     -0.00025000</v>
    <i type="int" name="LMAXPAW">  -100</i>
    <i type="int" name="LMAXMIX">     2</i>
    <i type="logical" name="NLSPLINE"> F  </i>
   </separator>
   <separator name="electronic startup" >
    <i type="int" name="ISTART">     0</i>
    <i type="int" name="ICHARG">     2</i>
    <i type="int" name="INIWAV">     1</i>
   </separator>
   <separator name="electronic spin" >
    <i type="int" name="ISPIN">     2</i>
    <i type="logical" name="LNONCOLLINEAR"> F  </i>
    <v name="MAGMOM">      0.60000000</v>
    <i name="NUPDOWN">     -1.00000000</i>
    <i type="logical" name="LSORBIT"> F  </i>
    <v name="SAXIS">      0.00000000      0.00000000      1.00000000</v>
    <i type="logical" name="LSPIRAL"> F  </i>
    <v name="QSPIRAL">      0.00000000      0.00000000      0.00000000</v>
    <i type="logical" name="LZEROZ"> F  </i>
   </separator>
   <separator name="electronic exchange-correlation" >
    <i type="logical" name="LASPH"> T  </i>
    <i type="logical" name="LMETAGGA"> F  </i>
   </separator>
   <separator name="electronic convergence" >
    <i type="int" name="NELM">   300</i>
    <i type="int" name="NELMDL">    -5</i>
    <i type="int" name="NELMIN">     2</i>
    <i name="ENINI">    520.00000000</i>
    <separator name="electronic convergence detail" >
     <i type="logical" name="LDIAG"> T  </i>
     <i type="logical" name="LSUBROT"> F  </i>
     <i name="WEIMIN">      0.00100000</i>
     <i name="EBREAK">      0.00000035</i>
     <i name="DEPER">      0.30000000</i>
     <i type="int" name="NRMM">     4</i>
     <i name="TIME">      0.40000000</i>
    </separator>
   </separator>
   <separator name="electronic mixer" >
    <i name="AMIX">      0.40000000</i>
    <i name="BMIX">      1.00000000</i>
    <i name="AMIN">      0.10000000</i>
    <i name="AMIX_MAG">      1.60000000</i>
    <i name="BMIX_MAG">      1.00000000</i>
    <separator name="electronic mixer details" >
     <i type="int" name="IMIX">     4</i>
     <i type="logical" name="MIXFIRST"> F  </i>
     <i type="int" name="MAXMIX">   -45</i>
     <i name="WC">    100.00000000</i>
     <i type="int" name="INIMIX">     1</i>
     <i type="int" name="MIXPRE">     1</i>
     <i type="int" name="MREMOVE">     5</i>
    </separator>
   </separator>
   <separator name="electronic dipolcorrection" >
    <i type="logical" name="LDIPOL"> F  </i>
    <i type="logical" name="LMONO"> F  </i>
    <i type="int" name="IDIPOL">     0</i>
    <i name="EPSILON">      1.00000000</i>
    <v name="DIPOL">   -100.00000000   -100.00000000   -100.00000000</v>
    <i name="EFIELD">      0.00000000</i>
   </separator>
  </separator>
  <separator name="grids" >
   <i type="int" name="NGX">    80</i>
   <i type="int" name="NGY">    80</i>
   <i type="int" name="NGZ">    80</i>
   <i type="int" name="NGXF">   160</i>
   <i type="int" name="NGYF">   160</i>
   <i type="int" name="NGZF">   160</i>
   <i type="logical" name="ADDGRID"> F  </i>
  </separator>
  <separator name="ionic" >
   <i type="int" name="NSW">    99</i>
   <i type="int" name="IBRION">     2</i>
   <i type="int" name="MDALGO">     0</i>
   <i type="int" name="ISIF">     2</i>
   <i name="PSTRESS">      0.00000000</i>
   <i name="EDIFFG">      0.00050000</i>
   <i type="int" name="NFREE">     1</i>
   <i name="POTIM">      0.50000000</i>
   <i name="SMASS">     -3.00000000</i>
   <i name="SCALEE">      1.00000000</i>
  </separator>
  <separator name="ionic md" >
   <i name="TEBEG">      0.00010000</i>
   <i name="TEEND">      0.00010000</i>
   <i type="int" name="NBLOCK">     1</i>
   <i type="int" name="KBLOCK">    99</i>
   <i type="int" name="NPACO">   256</i>
   <i name="APACO">     16.00000000</i>
  </separator>
  <separator name="symmetry" >
   <i type="int" name="ISYM">     2</i>
   <i name="SYMPREC">      0.00001000</i>
  </separator>
  <separator name="dos" >
   <i type="int" name="LORBIT">    11</i>
   <v name="RWIGS">     -1.00000000</v>
   <i type="int" name="NEDOS">   301</i>
   <i name="EMIN">     10.00000000</i>
   <i name="EMAX">    -10.00000000</i>
   <i name="EFERMI">      0.00000000</i>
  </separator>
  <separator name="writing" >
   <i type="int" name="NWRITE">     2</i>
   <i type="logical" name="LWAVE"> F  </i>
   <i type="logical" name="LDOWNSAMPLE"> F  </i>
   <i type="logical" name="LCHARG"> T  </i>
   <i type="logical" name="LPARD"> F  </i>
   <i type="logical" name="LVTOT"> F  </i>
   <i type="logical" name="LVHAR"> F  </i>
   <i type="logical" name="LELF"> F  </i>
   <i type="logical" name="LOPTICS"> F  </i>
   <v name="STM">      0.00000000      0.00000000      0.00000000      0.00000000      0.00000000      0.00000000      0.00000000</v>
  </separator>
  <separator name="performance" >
   <i type="int" name="NPAR">    36</i>
   <i type="int" name="NSIM">     4</i>
   <i type="int" name="NBLK">    -1</i>
   <i type="logical" name="LPLANE"> T  </i>
   <i type="logical" name="LSCALAPACK"> T  </i>
   <i type="logical" name="LSCAAWARE"> F  </i>
   <i type="logical" name="LSCALU"> F  </i>
   <i type="logical" name="LASYNC"> F  </i>
   <i type="logical" name="LORBITALREAL"> F  </i>
  </separator>
  <separator name="miscellaneous" >
   <i type="int" name="IDIOT">     3</i>
   <i type="int" name="ISPECIAL">     0</i>
   <i type="logical" name="LMUSIC"> F  </i>
   <v name="POMASS">     92.00000000</v>
   <v name="DARWINR">      0.00000000</v>
   <v name="DARWINV">      1.00000000</v>
   <i type="logical" name="LCORR"> T  </i>
  </separator>
  <i type="logical" name="GGA_COMPAT"> T  </i>
  <i type="logical" name="LBERRY"> F  </i>
  <i type="int" name="ICORELEVEL">     0</i>
  <i type="logical" name="LDAU"> F  </i>
  <i type="int" name="I_CONSTRAINED_M">     0</i>
  <separator name="electronic exchange-correlation" >
   <i type="string" name="GGA">--</i>
   <i type="int" name="VOSKOWN">     0</i>
   <i type="logical" name="LHFCALC"> F  </i>
   <i type="string" name="PRECFOCK"></i>
   <i type="logical" name="LSYMGRAD"> F  </i>
   <i type="logical" name="LHFONE"> F  </i>
   <i type="logical" name="LRHFCALC"> F  </i>
   <i type="logical" name="LTHOMAS"> F  </i>
   <i type="logical" name="LMODELHF"> F  </i>
   <i name="ENCUT4O">     -1.00000000</i>
   <i type="int" name="EXXOEP">     0</i>
   <i type="int" name="FOURORBIT">     0</i>
   <i name="AEXX">      0.00000000</i>
   <i name="HFALPHA">      0.00000000</i>
   <i name="MCALPHA">      0.00000000</i>
   <i name="ALDAX">      1.00000000</i>
   <i name="AGGAX">      1.00000000</i>
   <i name="ALDAC">      1.00000000</i>
   <i name="AGGAC">      1.00000000</i>
   <i type="int" name="NKREDX">     1</i>
   <i type="int" name="NKREDY">     1</i>
   <i type="int" name="NKREDZ">     1</i>
   <i type="logical" name="SHIFTRED"> F  </i>
   <i type="logical" name="ODDONLY"> F  </i>
   <i type="logical" name="EVENONLY"> F  </i>
   <i type="int" name="LMAXFOCK">     0</i>
   <i type="int" name="NMAXFOCKAE">     0</i>
   <i type="logical" name="LFOCKAEDFT"> F  </i>
   <i name="HFSCREEN">      0.00000000</i>
   <i name="HFSCREENC">      0.00000000</i>
   <i type="int" name="NBANDSGWLOW">     0</i>
  </separator>
  <separator name="vdW DFT" >
   <i type="logical" name="LUSE_VDW"> F  </i>
   <i name="Zab_VDW">     -0.84910000</i>
   <i name="PARAM1">      0.12340000</i>
   <i name="PARAM2">      1.00000000</i>
   <i name="PARAM3">      0.00000000</i>
  </separator>
  <separator name="model GW" >
   <i type="int" name="MODEL_GW">     0</i>
   <i name="MODEL_EPS0">    600.00000000</i>
   <i name="MODEL_ALPHA">      1.00000000</i>
  </separator>
  <separator name="linear response parameters" >
   <i type="logical" name="LEPSILON"> F  </i>
   <i type="logical" name="LRPA"> F  </i>
   <i type="logical" name="LNABLA"> F  </i>
   <i type="logical" name="LVEL"> F  </i>
   <i type="int" name="KINTER">     0</i>
   <i name="CSHIFT">      0.10000000</i>
   <i name="OMEGAMAX">     -1.00000000</i>
   <i name="DEG_THRESHOLD">      0.00200000</i>
   <i name="RTIME">     -0.10000000</i>
   <i name="WPLASMAI">      0.00000000</i>
   <v name="DFIELD">      0.00000000      0.00000000      0.00000000</v>
   <v name="WPLASMA">      0.00000000      0.00000000      0.00000000      0.00000000      0.00000000      0.00000000      0.00000000      0.00000000      0.00000000</v>
  </separator>
  <separator name="orbital magnetization" >
   <i type="logical" name="NUCIND"> F  </i>
   <v name="MAGPOS">      0.00000000      0.00000000      0.00000000</v>
   <i type="logical" name="LNICSALL"> T  </i>
   <i type="logical" name="ORBITALMAG"> F  </i>
   <i type="logical" name="LMAGBLOCH"> F  </i>
   <i type="logical" name="LCHIMAG"> F  </i>
   <i type="logical" name="LGAUGE"> T  </i>
   <i type="int" name="MAGATOM">     0</i>
   <v name="MAGDIPOL">      0.00000000      0.00000000      0.00000000</v>
   <v name="AVECCONST">      0.00000000      0.00000000      0.00000000</v>
  </separator>
  <separator name="response functions" >
   <i type="logical" name="LADDER"> F  </i>
   <i type="logical" name="LRPAFORCE"> F  </i>
   <i type="logical" name="LFXC"> F  </i>
   <i type="logical" name="LHARTREE"> T  </i>
   <i type="int" name="IBSE">     0</i>
   <v type="int" name="KPOINT">    -1     0     0     0</v>
   <i type="logical" name="LTCTE"> F  </i>
   <i type="logical" name="LTETE"> F  </i>
   <i type="logical" name="LTRIPLET"> F  </i>
   <i type="logical" name="LFXCEPS"> F  </i>
   <i type="logical" name="LFXHEG"> F  </i>
   <i type="int" name="NATURALO">     2</i>
   <i type="logical" name="L2ORDER"> F  </i>
   <i type="logical" name="LMP2LT"> F  </i>
   <i type="logical" name="LUSEW"> F  </i>
   <i name="ENCUTGW">     -2.00000000</i>
   <i name="ENCUTGWSOFT">     -2.00000000</i>
   <i name="ENCUTLF">     -1.00000000</i>
   <i type="int" name="LMAXMP2">    -1</i>
   <i name="SCISSOR">      0.00000000</i>
   <i type="int" name="NOMEGA">     0</i>
   <i type="int" name="NOMEGAR">     0</i>
   <i type="int" name="NBANDSGW">    -1</i>
   <i type="int" name="NBANDSO">    -1</i>
   <i type="int" name="NBANDSV">    -1</i>
   <i type="int" name="NELM">   300</i>
   <i type="int" name="NELMHF">     1</i>
   <i type="int" name="DIM">     3</i>
   <i type="int" name="ANTIRES">     0</i>
   <i name="OMEGAMAX">    -30.00000000</i>
   <i name="OMEGAMIN">    -30.00000000</i>
   <i name="OMEGATL">   -200.00000000</i>
   <i type="int" name="OMEGAGRID">   140</i>
   <i name="CSHIFT">     -0.10000000</i>
   <i type="logical" name="SELFENERGY"> F  </i>
   <i type="logical" name="LSPECTRAL"> F  </i>
   <i type="logical" name="LSPECTRALGW"> F  </i>
   <i type="logical" name="LSINGLES"> F  </i>
   <i type="logical" name="LFERMIGW"> F  </i>
   <i type="logical" name="ODDONLYGW"> F  </i>
   <i type="logical" name="EVENONLYGW"> F  </i>
   <i type="int" name="NKREDLFX">     1</i>
   <i type="int" name="NKREDLFY">     1</i>
   <i type="int" name="NKREDLFZ">     1</i>
   <i type="int" name="MAXMEM">  2800</i>
   <i type="int" name="TELESCOPE">     0</i>
   <i type="int" name="TAUPAR">     1</i>
   <i type="int" name="OMEGAPAR">    -1</i>
   <i name="LAMBDA">      1.00000000</i>
  </separator>
  <separator name="External order field" >
   <i name="OFIELD_KAPPA">      0.00000000</i>
   <v name="OFIELD_K">      0.00000000      0.00000000      0.00000000</v>
   <i name="OFIELD_Q6_NEAR">      0.00000000</i>
   <i name="OFIELD_Q6_FAR">      0.00000000</i>
   <i name="OFIELD_A">      0.00000000</i>
  </separator>
 </parameters>
 <atominfo>
  <atoms>       1 </atoms>
  <types>       1 </types>
  <array name="atoms" >
   <dimension dim="1">ion</dimension>
   <field type="string">element</field>
   <field type="int">atomtype</field>
   <set>
    <rc><c>Nb</c><c>   1</c></rc>
   </set>
  </array>
  <array name="atomtypes" >
   <dimension dim="1">type</dimension>
   <field type="int">atomspertype</field>
   <field type="string">element</field>
   <field>mass</field>
   <field>valence</field>
   <field type="string">pseudopotential</field>
   <set>
    <rc><c>   1</c><c>Nb</c><c>     92.00000000</c><c>     11.00000000</c><c>  PAW_PBE Nb_pv 08Apr2002               </c></rc>
   </set>
  </array>
 </atominfo>
 <structure name="initialpos" >
  <crystal>
   <varray name="basis" >
    <v>      10.00000000       0.00000000       0.00000000 </v>
    <v>       0.00000000      10.00000000       0.00000000 </v>
    <v>       0.00000000       0.00000000      10.00000000 </v>
   </varray>
   <i name="volume">   1000.00000000 </i>
   <varray name="rec_basis" >
    <v>       0.10000000       0.00000000       0.00000000 </v>
    <v>       0.00000000       0.10000000       0.00000000 </v>
    <v>       0.00000000       0.00000000       0.10000000 </v>
   </varray>
  </crystal>
  <varray name="positions" >
   <v>       0.50000000       0.50000000       0.50000000 </v>
  </varray>
 </structure>
 <calculation>
  <scstep>
   <time name="total">    0.90    0.91</time>
   <energy>
    <i name="alphaZ">      2.26354304 </i>
    <i name="ewald">   -247.18170407 </i>
    <i name="hartreedc">   -616.89752185 </i>
    <i name="XCdc">     23.10916867 </i>
    <i name="pawpsdc">    835.66189339 </i>
    <i name="pawaedc">   -819.70764155 </i>
    <i name="eentropy">     -0.00000000 </i>
    <i name="bandstr">    -55.83320793 </i>
    <i name="atom">   1043.39062137 </i>
    <i name="e_fr_energy">    164.80515107 </i>
    <i name="e_wo_entrp">    164.80515107 </i>
    <i name="e_0_energy">    164.80515107 </i>
   </energy>
  </scstep>
  <scstep>
   <time name="total">    0.35    0.35</time>
   <energy>
    <i name="e_fr_energy">     35.99719179 </i>
    <i name="e_wo_entrp">     35.99719200 </i>
    <i name="e_0_energy">     35.99719190 </i>
   </energy>
  </scstep>
  <scstep>
   <time name="total">    0.35    0.35</time>
   <energy>
    <i name="e_fr_energy">      4.98609776 </i>
    <i name="e_wo_entrp">      4.98609776 </i>
    <i name="e_0_energy">      4.98609776 </i>
   </energy>
  </scstep>
  <scstep>
   <time name="total">    0.41    0.41</time>
   <energy>
    <i name="e_fr_energy">     -0.21717968 </i>
    <i name="e_wo_entrp">     -0.21386078 </i>
    <i name="e_0_energy">     -0.21552023 </i>
   </energy>
  </scstep>
  <scstep>
   <time name="total">    0.62    0.62</time>
   <energy>
    <i name="e_fr_energy">     -1.02674279 </i>
    <i name="e_wo_entrp">     -0.99816915 </i>
    <i name="e_0_energy">     -1.01245597 </i>
   </energy>
  </scstep>
  <scstep>
   <time name="total">    0.96    0.96</time>
   <energy>
    <i name="e_fr_energy">     -0.72431348 </i>
    <i name="e_wo_entrp">     -0.69815650 </i>
    <i name="e_0_energy">     -0.71123499 </i>
   </energy>
  </scstep>
  <scstep>
   <time name="total">    0.92    0.92</time>
   <energy>
    <i name="e_fr_energy">     -1.43795130 </i>
    <i name="e_wo_entrp">     -1.40269626 </i>
    <i name="e_0_energy">     -1.42032378 </i>
   </energy>
  </scstep>
  <scstep>
   <time name="total">    0.91    0.91</time>
   <energy>
    <i name="e_fr_energy">     -2.40107154 </i>
    <i name="e_wo_entrp">     -2.37994569 </i>
    <i name="e_0_energy">     -2.39050861 </i>
   </energy>
  </scstep>
  <scstep>
   <time name="total">    0.91    0.91</time>
   <energy>
    <i name="e_fr_energy">     -2.78560249 </i>
    <i name="e_wo_entrp">     -2.78244330 </i>
    <i name="e_0_energy">     -2.78402289 </i>
   </energy>
  </scstep>
  <scstep>
   <time name="total">    0.91    0.91</time>
   <energy>
    <i name="e_fr_energy">     -3.04469799 </i>
    <i name="e_wo_entrp">     -3.04256271 </i>
    <i name="e_0_energy">     -3.04363035 </i>
   </energy>
  </scstep>
  <scstep>
   <time name="total">    0.91    0.91</time>
   <energy>
    <i name="e_fr_energy">     -3.09458622 </i>
    <i name="e_wo_entrp">     -3.09036343 </i>
    <i name="e_0_energy">     -3.09247482 </i>
   </energy>
  </scstep>
  <scstep>
   <time name="total">    0.93    0.93</time>
   <energy>
    <i name="e_fr_energy">     -3.12926438 </i>
    <i name="e_wo_entrp">     -3.12023153 </i>
    <i name="e_0_energy">     -3.12474795 </i>
   </energy>
  </scstep>
  <scstep>
   <time name="total">    0.91    0.91</time>
   <energy>
    <i name="e_fr_energy">     -3.15418757 </i>
    <i name="e_wo_entrp">     -3.13893579 </i>
    <i name="e_0_energy">     -3.14656168 </i>
   </energy>
  </scstep>
  <scstep>
   <time name="total">    0.89    0.89</time>
   <energy>
    <i name="e_fr_energy">     -3.17110518 </i>
    <i name="e_wo_entrp">     -3.15041650 </i>
    <i name="e_0_energy">     -3.16076084 </i>
   </energy>
  </scstep>
  <scstep>
   <time name="total">    0.92    0.92</time>
   <energy>
    <i name="e_fr_energy">     -3.18155373 </i>
    <i name="e_wo_entrp">     -3.15722530 </i>
    <i name="e_0_energy">     -3.16938951 </i>
   </energy>
  </scstep>
  <scstep>
   <time name="total">    0.92    0.92</time>
   <energy>
    <i name="e_fr_energy">     -3.18781014 </i>
    <i name="e_wo_entrp">     -3.16143467 </i>
    <i name="e_0_energy">     -3.17462241 </i>
   </energy>
  </scstep>
  <scstep>
   <time name="total">    0.90    0.90</time>
   <energy>
    <i name="e_fr_energy">     -3.19115658 </i>
    <i name="e_wo_entrp">     -3.16375662 </i>
    <i name="e_0_energy">     -3.17745660 </i>
   </energy>
  </scstep>
  <scstep>
   <time name="total">    0.91    0.91</time>
   <energy>
    <i name="e_fr_energy">     -3.19280888 </i>
    <i name="e_wo_entrp">     -3.16493708 </i>
    <i name="e_0_energy">     -3.17887298 </i>
   </energy>
  </scstep>
  <scstep>
   <time name="total">    0.92    0.92</time>
   <energy>
    <i name="e_fr_energy">     -3.19359568 </i>
    <i name="e_wo_entrp">     -3.16552015 </i>
    <i name="e_0_energy">     -3.17955792 </i>
   </energy>
  </scstep>
  <scstep>
   <time name="total">    0.91    0.91</time>
   <energy>
    <i name="e_fr_energy">     -3.19394749 </i>
    <i name="e_wo_entrp">     -3.16578869 </i>
    <i name="e_0_energy">     -3.17986809 </i>
   </energy>
  </scstep>
  <scstep>
   <time name="total">    0.91    0.91</time>
   <energy>
    <i name="e_fr_energy">     -3.19410302 </i>
    <i name="e_wo_entrp">     -3.16591184 </i>
    <i name="e_0_energy">     -3.18000743 </i>
   </energy>
  </scstep>
  <scstep>
   <time name="total">    0.94    0.94</time>
   <energy>
    <i name="e_fr_energy">     -3.19416836 </i>
    <i name="e_wo_entrp">     -3.16596519 </i>
    <i name="e_0_energy">     -3.18006677 </i>
   </energy>
  </scstep>
  <scstep>
   <time name="total">    0.99    0.99</time>
   <energy>
    <i name="alphaZ">      2.26354304 </i>
    <i name="ewald">   -247.18170407 </i>
    <i name="hartreedc">   -622.12028481 </i>
    <i name="XCdc">     24.70256203 </i>
    <i name="pawpsdc">    867.37261232 </i>
    <i name="pawaedc">   -851.51500317 </i>
    <i name="eentropy">     -0.02820740 </i>
    <i name="bandstr">   -220.07833853 </i>
    <i name="atom">   1043.39062137 </i>
    <i name="e_fr_energy">     -3.19419498 </i>
    <i name="e_wo_entrp">     -3.16598757 </i>
    <i name="e_0_energy">     -3.18009127 </i>
   </energy>
  </scstep>
  <structure>
   <crystal>
    <varray name="basis" >
     <v>      10.00000000       0.00000000       0.00000000 </v>
     <v>       0.00000000      10.00000000       0.00000000 </v>
     <v>       0.00000000       0.00000000      10.00000000 </v>
    </varray>
    <i name="volume">   1000.00000000 </i>
    <varray name="rec_basis" >
     <v>       0.10000000       0.00000000       0.00000000 </v>
     <v>       0.00000000       0.10000000       0.00000000 </v>
     <v>       0.00000000       0.00000000       0.10000000 </v>
    </varray>
   </crystal>
   <varray name="positions" >
    <v>       0.50000000       0.50000000       0.50000000 </v>
   </varray>
  </structure>
  <varray name="forces" >
   <v>       0.00000000       0.00000000       0.00000000 </v>
  </varray>
  <varray name="stress" >
   <v>      -0.05264877       0.00000000      -0.00000000 </v>
   <v>       0.00000000      -0.05264877      -0.00000000 </v>
   <v>      -0.00000000      -0.00000000      -0.05264877 </v>
  </varray>
  <energy>
   <i name="e_fr_energy">     -3.19419498 </i>
   <i name="e_wo_entrp">     -3.18009127 </i>
   <i name="e_0_energy">     -0.02820740 </i>
  </energy>
  <time name="totalsc">   26.72   32.16</time>
  <eigenvalues>
   <array>
    <dimension dim="1">band</dimension>
    <dimension dim="2">kpoint</dimension>
    <dimension dim="3">spin</dimension>
    <field>eigene</field>
    <field>occ</field>
    <set>
     <set comment="spin 1">
      <set comment="kpoint 1">
       <r>  -34.7278    1.0000 </r>
       <r>  -34.7278    1.0000 </r>
       <r>  -34.7278    1.0000 </r>
       <r>   -4.2732    1.0000 </r>
       <r>   -3.5889    1.0000 </r>
       <r>   -3.5889    1.0000 </r>
       <r>   -3.5888    1.0000 </r>
       <r>   -3.3398    0.5048 </r>
       <r>   -3.3398    0.4952 </r>
       <r>   -1.0807    0.0000 </r>
       <r>   -1.0804    0.0000 </r>
       <r>   -1.0801    0.0000 </r>
       <r>   -0.3257    0.0000 </r>
       <r>    0.6820    0.0000 </r>
       <r>    0.6820    0.0000 </r>
       <r>    1.4491    0.0000 </r>
       <r>    1.4509    0.0000 </r>
       <r>    1.4596    0.0000 </r>
       <r>    1.6997    0.0000 </r>
       <r>    1.8457    0.0000 </r>
       <r>    1.8481    0.0000 </r>
       <r>    1.8488    0.0000 </r>
       <r>    2.1639    0.0000 </r>
       <r>    2.1662    0.0000 </r>
       <r>    2.2163    0.0000 </r>
       <r>    2.2916    0.0000 </r>
       <r>    2.3443    0.0000 </r>
       <r>    3.3590    0.0000 </r>
       <r>    3.5194    0.0000 </r>
       <r>    3.5700    0.0000 </r>
       <r>    3.5910    0.0000 </r>
       <r>    3.5976    0.0000 </r>
       <r>    3.6105    0.0000 </r>
       <r>    3.6522    0.0000 </r>
       <r>    4.2138    0.0000 </r>
       <r>    4.2397    0.0000 </r>
      </set>
     </set>
     <set comment="spin 2">
      <set comment="kpoint 1">
       <r>  -32.5051    1.0000 </r>
       <r>  -32.5051    1.0000 </r>
       <r>  -32.5051    1.0000 </r>
       <r>   -1.6543    0.0000 </r>
       <r>   -0.9400    0.0000 </r>
       <r>   -0.9399    0.0000 </r>
       <r>   -0.6680    0.0000 </r>
       <r>   -0.6678    0.0000 </r>
       <r>   -0.6678    0.0000 </r>
       <r>    0.5763    0.0000 </r>
       <r>    1.1825    0.0000 </r>
       <r>    1.1828    0.0000 </r>
       <r>    1.1828    0.0000 </r>
       <r>    1.7682    0.0000 </r>
       <r>    1.7683    0.0000 </r>
       <r>    2.4643    0.0000 </r>
       <r>    2.4649    0.0000 </r>
       <r>    2.4661    0.0000 </r>
       <r>    2.5204    0.0000 </r>
       <r>    3.2250    0.0000 </r>
       <r>    3.2265    0.0000 </r>
       <r>    3.2410    0.0000 </r>
       <r>    3.2617    0.0000 </r>
       <r>    3.2634    0.0000 </r>
       <r>    3.2648    0.0000 </r>
       <r>    3.2673    0.0000 </r>
       <r>    3.2699    0.0000 </r>
       <r>    4.3409    0.0000 </r>
       <r>    4.3657    0.0000 </r>
       <r>    4.4611    0.0000 </r>
       <r>    4.5559    0.0000 </r>
       <r>    4.5636    0.0000 </r>
       <r>    4.6736    0.0000 </r>
       <r>    4.6858    0.0000 </r>
       <r>    4.7419    0.0000 </r>
       <r>    6.1145    0.0000 </r>
      </set>
     </set>
    </set>
   </array>
  </eigenvalues>
  <separator name="orbital magnetization" >
   <v name="MAGDIPOLOUT">      0.00000000      0.00000000      0.00000000</v>
  </separator>
  <dos>
   <i name="efermi">     -3.33977979 </i>
   <total>
    <array>
     <dimension dim="1">gridpoints</dimension>
     <dimension dim="2">spin</dimension>
     <field>energy</field>
     <field>total</field>
     <field>integrated</field>
     <set>
      <set comment="spin 1">
       <r>   -36.7699     0.0000     0.0000 </r>
       <r>   -36.6201     0.0000     0.0000 </r>
       <r>   -36.4704     0.0000     0.0000 </r>
       <r>   -36.3206     0.0000     0.0000 </r>
       <r>   -36.1709     0.0000     0.0000 </r>
       <r>   -36.0211     0.0000     0.0000 </r>
       <r>   -35.8714     0.0000     0.0000 </r>
       <r>   -35.7216     0.0000     0.0000 </r>
       <r>   -35.5719     0.0000     0.0000 </r>
       <r>   -35.4221     0.0000     0.0000 </r>
       <r>   -35.2723     0.0000     0.0000 </r>
       <r>   -35.1226     0.0000     0.0000 </r>
       <r>   -34.9728     0.0000     0.0000 </r>
       <r>   -34.8231     0.0704     0.0105 </r>
       <r>   -34.6733    18.7250     2.8147 </r>
       <r>   -34.5236     1.2373     3.0000 </r>
       <r>   -34.3738     0.0000     3.0000 </r>
       <r>   -34.2241     0.0000     3.0000 </r>
       <r>   -34.0743     0.0000     3.0000 </r>
       <r>   -33.9246     0.0000     3.0000 </r>
       <r>   -33.7748     0.0000     3.0000 </r>
       <r>   -33.6250     0.0000     3.0000 </r>
       <r>   -33.4753     0.0000     3.0000 </r>
       <r>   -33.3255     0.0000     3.0000 </r>
       <r>   -33.1758     0.0000     3.0000 </r>
       <r>   -33.0260     0.0000     3.0000 </r>
       <r>   -32.8763     0.0000     3.0000 </r>
       <r>   -32.7265     0.0000     3.0000 </r>
       <r>   -32.5768     0.0000     3.0000 </r>
       <r>   -32.4270     0.0000     3.0000 </r>
       <r>   -32.2772     0.0000     3.0000 </r>
       <r>   -32.1275     0.0000     3.0000 </r>
       <r>   -31.9777     0.0000     3.0000 </r>
       <r>   -31.8280     0.0000     3.0000 </r>
       <r>   -31.6782     0.0000     3.0000 </r>
       <r>   -31.5285     0.0000     3.0000 </r>
       <r>   -31.3787     0.0000     3.0000 </r>
       <r>   -31.2290     0.0000     3.0000 </r>
       <r>   -31.0792     0.0000     3.0000 </r>
       <r>   -30.9294     0.0000     3.0000 </r>
       <r>   -30.7797     0.0000     3.0000 </r>
       <r>   -30.6299     0.0000     3.0000 </r>
       <r>   -30.4802     0.0000     3.0000 </r>
       <r>   -30.3304     0.0000     3.0000 </r>
       <r>   -30.1807     0.0000     3.0000 </r>
       <r>   -30.0309     0.0000     3.0000 </r>
       <r>   -29.8812     0.0000     3.0000 </r>
       <r>   -29.7314     0.0000     3.0000 </r>
       <r>   -29.5817     0.0000     3.0000 </r>
       <r>   -29.4319     0.0000     3.0000 </r>
       <r>   -29.2821     0.0000     3.0000 </r>
       <r>   -29.1324     0.0000     3.0000 </r>
       <r>   -28.9826     0.0000     3.0000 </r>
       <r>   -28.8329     0.0000     3.0000 </r>
       <r>   -28.6831     0.0000     3.0000 </r>
       <r>   -28.5334     0.0000     3.0000 </r>
       <r>   -28.3836     0.0000     3.0000 </r>
       <r>   -28.2339     0.0000     3.0000 </r>
       <r>   -28.0841     0.0000     3.0000 </r>
       <r>   -27.9343     0.0000     3.0000 </r>
       <r>   -27.7846     0.0000     3.0000 </r>
       <r>   -27.6348     0.0000     3.0000 </r>
       <r>   -27.4851     0.0000     3.0000 </r>
       <r>   -27.3353     0.0000     3.0000 </r>
       <r>   -27.1856     0.0000     3.0000 </r>
       <r>   -27.0358     0.0000     3.0000 </r>
       <r>   -26.8861     0.0000     3.0000 </r>
       <r>   -26.7363     0.0000     3.0000 </r>
       <r>   -26.5866     0.0000     3.0000 </r>
       <r>   -26.4368     0.0000     3.0000 </r>
       <r>   -26.2870     0.0000     3.0000 </r>
       <r>   -26.1373     0.0000     3.0000 </r>
       <r>   -25.9875     0.0000     3.0000 </r>
       <r>   -25.8378     0.0000     3.0000 </r>
       <r>   -25.6880     0.0000     3.0000 </r>
       <r>   -25.5383     0.0000     3.0000 </r>
       <r>   -25.3885     0.0000     3.0000 </r>
       <r>   -25.2388     0.0000     3.0000 </r>
       <r>   -25.0890     0.0000     3.0000 </r>
       <r>   -24.9392     0.0000     3.0000 </r>
       <r>   -24.7895     0.0000     3.0000 </r>
       <r>   -24.6397     0.0000     3.0000 </r>
       <r>   -24.4900     0.0000     3.0000 </r>
       <r>   -24.3402     0.0000     3.0000 </r>
       <r>   -24.1905     0.0000     3.0000 </r>
       <r>   -24.0407     0.0000     3.0000 </r>
       <r>   -23.8910     0.0000     3.0000 </r>
       <r>   -23.7412     0.0000     3.0000 </r>
       <r>   -23.5914     0.0000     3.0000 </r>
       <r>   -23.4417     0.0000     3.0000 </r>
       <r>   -23.2919     0.0000     3.0000 </r>
       <r>   -23.1422     0.0000     3.0000 </r>
       <r>   -22.9924     0.0000     3.0000 </r>
       <r>   -22.8427     0.0000     3.0000 </r>
       <r>   -22.6929     0.0000     3.0000 </r>
       <r>   -22.5432     0.0000     3.0000 </r>
       <r>   -22.3934     0.0000     3.0000 </r>
       <r>   -22.2437     0.0000     3.0000 </r>
       <r>   -22.0939     0.0000     3.0000 </r>
       <r>   -21.9441     0.0000     3.0000 </r>
       <r>   -21.7944     0.0000     3.0000 </r>
       <r>   -21.6446     0.0000     3.0000 </r>
       <r>   -21.4949     0.0000     3.0000 </r>
       <r>   -21.3451     0.0000     3.0000 </r>
       <r>   -21.1954     0.0000     3.0000 </r>
       <r>   -21.0456     0.0000     3.0000 </r>
       <r>   -20.8959     0.0000     3.0000 </r>
       <r>   -20.7461     0.0000     3.0000 </r>
       <r>   -20.5963     0.0000     3.0000 </r>
       <r>   -20.4466     0.0000     3.0000 </r>
       <r>   -20.2968     0.0000     3.0000 </r>
       <r>   -20.1471     0.0000     3.0000 </r>
       <r>   -19.9973     0.0000     3.0000 </r>
       <r>   -19.8476     0.0000     3.0000 </r>
       <r>   -19.6978     0.0000     3.0000 </r>
       <r>   -19.5481     0.0000     3.0000 </r>
       <r>   -19.3983     0.0000     3.0000 </r>
       <r>   -19.2486     0.0000     3.0000 </r>
       <r>   -19.0988     0.0000     3.0000 </r>
       <r>   -18.9490     0.0000     3.0000 </r>
       <r>   -18.7993     0.0000     3.0000 </r>
       <r>   -18.6495     0.0000     3.0000 </r>
       <r>   -18.4998     0.0000     3.0000 </r>
       <r>   -18.3500     0.0000     3.0000 </r>
       <r>   -18.2003     0.0000     3.0000 </r>
       <r>   -18.0505     0.0000     3.0000 </r>
       <r>   -17.9008     0.0000     3.0000 </r>
       <r>   -17.7510     0.0000     3.0000 </r>
       <r>   -17.6012     0.0000     3.0000 </r>
       <r>   -17.4515     0.0000     3.0000 </r>
       <r>   -17.3017     0.0000     3.0000 </r>
       <r>   -17.1520     0.0000     3.0000 </r>
       <r>   -17.0022     0.0000     3.0000 </r>
       <r>   -16.8525     0.0000     3.0000 </r>
       <r>   -16.7027     0.0000     3.0000 </r>
       <r>   -16.5530     0.0000     3.0000 </r>
       <r>   -16.4032     0.0000     3.0000 </r>
       <r>   -16.2535     0.0000     3.0000 </r>
       <r>   -16.1037     0.0000     3.0000 </r>
       <r>   -15.9539     0.0000     3.0000 </r>
       <r>   -15.8042     0.0000     3.0000 </r>
       <r>   -15.6544     0.0000     3.0000 </r>
       <r>   -15.5047     0.0000     3.0000 </r>
       <r>   -15.3549     0.0000     3.0000 </r>
       <r>   -15.2052     0.0000     3.0000 </r>
       <r>   -15.0554     0.0000     3.0000 </r>
       <r>   -14.9057     0.0000     3.0000 </r>
       <r>   -14.7559     0.0000     3.0000 </r>
       <r>   -14.6061     0.0000     3.0000 </r>
       <r>   -14.4564     0.0000     3.0000 </r>
       <r>   -14.3066     0.0000     3.0000 </r>
       <r>   -14.1569     0.0000     3.0000 </r>
       <r>   -14.0071     0.0000     3.0000 </r>
       <r>   -13.8574     0.0000     3.0000 </r>
       <r>   -13.7076     0.0000     3.0000 </r>
       <r>   -13.5579     0.0000     3.0000 </r>
       <r>   -13.4081     0.0000     3.0000 </r>
       <r>   -13.2583     0.0000     3.0000 </r>
       <r>   -13.1086     0.0000     3.0000 </r>
       <r>   -12.9588     0.0000     3.0000 </r>
       <r>   -12.8091     0.0000     3.0000 </r>
       <r>   -12.6593     0.0000     3.0000 </r>
       <r>   -12.5096     0.0000     3.0000 </r>
       <r>   -12.3598     0.0000     3.0000 </r>
       <r>   -12.2101     0.0000     3.0000 </r>
       <r>   -12.0603     0.0000     3.0000 </r>
       <r>   -11.9106     0.0000     3.0000 </r>
       <r>   -11.7608     0.0000     3.0000 </r>
       <r>   -11.6110     0.0000     3.0000 </r>
       <r>   -11.4613     0.0000     3.0000 </r>
       <r>   -11.3115     0.0000     3.0000 </r>
       <r>   -11.1618     0.0000     3.0000 </r>
       <r>   -11.0120     0.0000     3.0000 </r>
       <r>   -10.8623     0.0000     3.0000 </r>
       <r>   -10.7125     0.0000     3.0000 </r>
       <r>   -10.5628     0.0000     3.0000 </r>
       <r>   -10.4130     0.0000     3.0000 </r>
       <r>   -10.2632     0.0000     3.0000 </r>
       <r>   -10.1135     0.0000     3.0000 </r>
       <r>    -9.9637     0.0000     3.0000 </r>
       <r>    -9.8140     0.0000     3.0000 </r>
       <r>    -9.6642     0.0000     3.0000 </r>
       <r>    -9.5145     0.0000     3.0000 </r>
       <r>    -9.3647     0.0000     3.0000 </r>
       <r>    -9.2150     0.0000     3.0000 </r>
       <r>    -9.0652     0.0000     3.0000 </r>
       <r>    -8.9155     0.0000     3.0000 </r>
       <r>    -8.7657     0.0000     3.0000 </r>
       <r>    -8.6159     0.0000     3.0000 </r>
       <r>    -8.4662     0.0000     3.0000 </r>
       <r>    -8.3164     0.0000     3.0000 </r>
       <r>    -8.1667     0.0000     3.0000 </r>
       <r>    -8.0169     0.0000     3.0000 </r>
       <r>    -7.8672     0.0000     3.0000 </r>
       <r>    -7.7174     0.0000     3.0000 </r>
       <r>    -7.5677     0.0000     3.0000 </r>
       <r>    -7.4179     0.0000     3.0000 </r>
       <r>    -7.2681     0.0000     3.0000 </r>
       <r>    -7.1184     0.0000     3.0000 </r>
       <r>    -6.9686     0.0000     3.0000 </r>
       <r>    -6.8189     0.0000     3.0000 </r>
       <r>    -6.6691     0.0000     3.0000 </r>
       <r>    -6.5194     0.0000     3.0000 </r>
       <r>    -6.3696     0.0000     3.0000 </r>
       <r>    -6.2199     0.0000     3.0000 </r>
       <r>    -6.0701     0.0000     3.0000 </r>
       <r>    -5.9203     0.0000     3.0000 </r>
       <r>    -5.7706     0.0000     3.0000 </r>
       <r>    -5.6208     0.0000     3.0000 </r>
       <r>    -5.4711     0.0000     3.0000 </r>
       <r>    -5.3213     0.0000     3.0000 </r>
       <r>    -5.1716     0.0000     3.0000 </r>
       <r>    -5.0218     0.0000     3.0000 </r>
       <r>    -4.8721     0.0000     3.0000 </r>
       <r>    -4.7223     0.0000     3.0000 </r>
       <r>    -4.5726     0.0000     3.0000 </r>
       <r>    -4.4228     0.0001     3.0000 </r>
       <r>    -4.2730     3.3534     3.5022 </r>
       <r>    -4.1233     3.3240     4.0000 </r>
       <r>    -3.9735     0.0001     4.0000 </r>
       <r>    -3.8238     0.0000     4.0000 </r>
       <r>    -3.6740     0.1604     4.0240 </r>
       <r>    -3.5243    19.1943     6.8985 </r>
       <r>    -3.3745     2.8543     7.3259 </r>
       <r>    -3.2248    11.1713     8.9989 </r>
       <r>    -3.0750     0.0076     9.0000 </r>
       <r>    -2.9252     0.0000     9.0000 </r>
       <r>    -2.7755     0.0000     9.0000 </r>
       <r>    -2.6257     0.0000     9.0000 </r>
       <r>    -2.4760     0.0000     9.0000 </r>
       <r>    -2.3262     0.0000     9.0000 </r>
       <r>    -2.1765     0.0000     9.0000 </r>
       <r>    -2.0267     0.0000     9.0000 </r>
       <r>    -1.8770     0.0000     9.0000 </r>
       <r>    -1.7272     0.0000     9.0000 </r>
       <r>    -1.5775     0.0000     9.0000 </r>
       <r>    -1.4277     0.0000     9.0000 </r>
       <r>    -1.2779     0.0000     9.0000 </r>
       <r>    -1.1282     1.7689     9.2649 </r>
       <r>    -0.9784    18.2245    11.9941 </r>
       <r>    -0.8287     0.0393    12.0000 </r>
       <r>    -0.6789     0.0000    12.0000 </r>
       <r>    -0.5292     0.0000    12.0000 </r>
       <r>    -0.3794     0.4297    12.0644 </r>
       <r>    -0.2297     6.2258    12.9967 </r>
       <r>    -0.0799     0.0220    13.0000 </r>
       <r>     0.0699     0.0000    13.0000 </r>
       <r>     0.2196     0.0000    13.0000 </r>
       <r>     0.3694     0.0000    13.0000 </r>
       <r>     0.5191     0.0000    13.0000 </r>
       <r>     0.6689     4.7481    13.7111 </r>
       <r>     0.8186     8.6063    14.9999 </r>
       <r>     0.9684     0.0007    15.0000 </r>
       <r>     1.1181     0.0000    15.0000 </r>
       <r>     1.2679     0.0000    15.0000 </r>
       <r>     1.4177     3.1910    15.4779 </r>
       <r>     1.5674    16.8286    17.9980 </r>
       <r>     1.7172     4.6167    18.6894 </r>
       <r>     1.8669    16.2587    21.1242 </r>
       <r>     2.0167     5.8480    22.0000 </r>
       <r>     2.1664     7.4073    23.1093 </r>
       <r>     2.3162    19.0824    25.9670 </r>
       <r>     2.4659     6.8960    26.9997 </r>
       <r>     2.6157     0.0019    27.0000 </r>
       <r>     2.7654     0.0000    27.0000 </r>
       <r>     2.9152     0.0000    27.0000 </r>
       <r>     3.0650     0.0000    27.0000 </r>
       <r>     3.2147     0.0001    27.0000 </r>
       <r>     3.3645     3.7490    27.5615 </r>
       <r>     3.5142     6.4436    28.5264 </r>
       <r>     3.6640    33.2876    33.5114 </r>
       <r>     3.8137     3.2627    34.0000 </r>
       <r>     3.9635     0.0000    34.0000 </r>
       <r>     4.1132     0.0160    34.0024 </r>
       <r>     4.2630    11.0874    35.6628 </r>
       <r>     4.4128     2.2518    36.0000 </r>
       <r>     4.5625     0.0000    36.0000 </r>
       <r>     4.7123     0.0000    36.0000 </r>
       <r>     4.8620     0.0000    36.0000 </r>
       <r>     5.0118     0.0000    36.0000 </r>
       <r>     5.1615     0.0000    36.0000 </r>
       <r>     5.3113     0.0000    36.0000 </r>
       <r>     5.4610     0.0000    36.0000 </r>
       <r>     5.6108     0.0000    36.0000 </r>
       <r>     5.7605     0.0000    36.0000 </r>
       <r>     5.9103     0.0000    36.0000 </r>
       <r>     6.0601     0.0000    36.0000 </r>
       <r>     6.2098     0.0000    36.0000 </r>
       <r>     6.3596     0.0000    36.0000 </r>
       <r>     6.5093     0.0000    36.0000 </r>
       <r>     6.6591     0.0000    36.0000 </r>
       <r>     6.8088     0.0000    36.0000 </r>
       <r>     6.9586     0.0000    36.0000 </r>
       <r>     7.1083     0.0000    36.0000 </r>
       <r>     7.2581     0.0000    36.0000 </r>
       <r>     7.4079     0.0000    36.0000 </r>
       <r>     7.5576     0.0000    36.0000 </r>
       <r>     7.7074     0.0000    36.0000 </r>
       <r>     7.8571     0.0000    36.0000 </r>
       <r>     8.0069     0.0000    36.0000 </r>
       <r>     8.1566     0.0000    36.0000 </r>
      </set>
      <set comment="spin 2">
       <r>   -36.7699     0.0000     0.0000 </r>
       <r>   -36.6201     0.0000     0.0000 </r>
       <r>   -36.4704     0.0000     0.0000 </r>
       <r>   -36.3206     0.0000     0.0000 </r>
       <r>   -36.1709     0.0000     0.0000 </r>
       <r>   -36.0211     0.0000     0.0000 </r>
       <r>   -35.8714     0.0000     0.0000 </r>
       <r>   -35.7216     0.0000     0.0000 </r>
       <r>   -35.5719     0.0000     0.0000 </r>
       <r>   -35.4221     0.0000     0.0000 </r>
       <r>   -35.2723     0.0000     0.0000 </r>
       <r>   -35.1226     0.0000     0.0000 </r>
       <r>   -34.9728     0.0000     0.0000 </r>
       <r>   -34.8231     0.0000     0.0000 </r>
       <r>   -34.6733     0.0000     0.0000 </r>
       <r>   -34.5236     0.0000     0.0000 </r>
       <r>   -34.3738     0.0000     0.0000 </r>
       <r>   -34.2241     0.0000     0.0000 </r>
       <r>   -34.0743     0.0000     0.0000 </r>
       <r>   -33.9246     0.0000     0.0000 </r>
       <r>   -33.7748     0.0000     0.0000 </r>
       <r>   -33.6250     0.0000     0.0000 </r>
       <r>   -33.4753     0.0000     0.0000 </r>
       <r>   -33.3255     0.0000     0.0000 </r>
       <r>   -33.1758     0.0000     0.0000 </r>
       <r>   -33.0260     0.0000     0.0000 </r>
       <r>   -32.8763     0.0000     0.0000 </r>
       <r>   -32.7265     0.0000     0.0000 </r>
       <r>   -32.5768     0.4287     0.0642 </r>
       <r>   -32.4270    19.3326     2.9593 </r>
       <r>   -32.2772     0.2715     3.0000 </r>
       <r>   -32.1275     0.0000     3.0000 </r>
       <r>   -31.9777     0.0000     3.0000 </r>
       <r>   -31.8280     0.0000     3.0000 </r>
       <r>   -31.6782     0.0000     3.0000 </r>
       <r>   -31.5285     0.0000     3.0000 </r>
       <r>   -31.3787     0.0000     3.0000 </r>
       <r>   -31.2290     0.0000     3.0000 </r>
       <r>   -31.0792     0.0000     3.0000 </r>
       <r>   -30.9294     0.0000     3.0000 </r>
       <r>   -30.7797     0.0000     3.0000 </r>
       <r>   -30.6299     0.0000     3.0000 </r>
       <r>   -30.4802     0.0000     3.0000 </r>
       <r>   -30.3304     0.0000     3.0000 </r>
       <r>   -30.1807     0.0000     3.0000 </r>
       <r>   -30.0309     0.0000     3.0000 </r>
       <r>   -29.8812     0.0000     3.0000 </r>
       <r>   -29.7314     0.0000     3.0000 </r>
       <r>   -29.5817     0.0000     3.0000 </r>
       <r>   -29.4319     0.0000     3.0000 </r>
       <r>   -29.2821     0.0000     3.0000 </r>
       <r>   -29.1324     0.0000     3.0000 </r>
       <r>   -28.9826     0.0000     3.0000 </r>
       <r>   -28.8329     0.0000     3.0000 </r>
       <r>   -28.6831     0.0000     3.0000 </r>
       <r>   -28.5334     0.0000     3.0000 </r>
       <r>   -28.3836     0.0000     3.0000 </r>
       <r>   -28.2339     0.0000     3.0000 </r>
       <r>   -28.0841     0.0000     3.0000 </r>
       <r>   -27.9343     0.0000     3.0000 </r>
       <r>   -27.7846     0.0000     3.0000 </r>
       <r>   -27.6348     0.0000     3.0000 </r>
       <r>   -27.4851     0.0000     3.0000 </r>
       <r>   -27.3353     0.0000     3.0000 </r>
       <r>   -27.1856     0.0000     3.0000 </r>
       <r>   -27.0358     0.0000     3.0000 </r>
       <r>   -26.8861     0.0000     3.0000 </r>
       <r>   -26.7363     0.0000     3.0000 </r>
       <r>   -26.5866     0.0000     3.0000 </r>
       <r>   -26.4368     0.0000     3.0000 </r>
       <r>   -26.2870     0.0000     3.0000 </r>
       <r>   -26.1373     0.0000     3.0000 </r>
       <r>   -25.9875     0.0000     3.0000 </r>
       <r>   -25.8378     0.0000     3.0000 </r>
       <r>   -25.6880     0.0000     3.0000 </r>
       <r>   -25.5383     0.0000     3.0000 </r>
       <r>   -25.3885     0.0000     3.0000 </r>
       <r>   -25.2388     0.0000     3.0000 </r>
       <r>   -25.0890     0.0000     3.0000 </r>
       <r>   -24.9392     0.0000     3.0000 </r>
       <r>   -24.7895     0.0000     3.0000 </r>
       <r>   -24.6397     0.0000     3.0000 </r>
       <r>   -24.4900     0.0000     3.0000 </r>
       <r>   -24.3402     0.0000     3.0000 </r>
       <r>   -24.1905     0.0000     3.0000 </r>
       <r>   -24.0407     0.0000     3.0000 </r>
       <r>   -23.8910     0.0000     3.0000 </r>
       <r>   -23.7412     0.0000     3.0000 </r>
       <r>   -23.5914     0.0000     3.0000 </r>
       <r>   -23.4417     0.0000     3.0000 </r>
       <r>   -23.2919     0.0000     3.0000 </r>
       <r>   -23.1422     0.0000     3.0000 </r>
       <r>   -22.9924     0.0000     3.0000 </r>
       <r>   -22.8427     0.0000     3.0000 </r>
       <r>   -22.6929     0.0000     3.0000 </r>
       <r>   -22.5432     0.0000     3.0000 </r>
       <r>   -22.3934     0.0000     3.0000 </r>
       <r>   -22.2437     0.0000     3.0000 </r>
       <r>   -22.0939     0.0000     3.0000 </r>
       <r>   -21.9441     0.0000     3.0000 </r>
       <r>   -21.7944     0.0000     3.0000 </r>
       <r>   -21.6446     0.0000     3.0000 </r>
       <r>   -21.4949     0.0000     3.0000 </r>
       <r>   -21.3451     0.0000     3.0000 </r>
       <r>   -21.1954     0.0000     3.0000 </r>
       <r>   -21.0456     0.0000     3.0000 </r>
       <r>   -20.8959     0.0000     3.0000 </r>
       <r>   -20.7461     0.0000     3.0000 </r>
       <r>   -20.5963     0.0000     3.0000 </r>
       <r>   -20.4466     0.0000     3.0000 </r>
       <r>   -20.2968     0.0000     3.0000 </r>
       <r>   -20.1471     0.0000     3.0000 </r>
       <r>   -19.9973     0.0000     3.0000 </r>
       <r>   -19.8476     0.0000     3.0000 </r>
       <r>   -19.6978     0.0000     3.0000 </r>
       <r>   -19.5481     0.0000     3.0000 </r>
       <r>   -19.3983     0.0000     3.0000 </r>
       <r>   -19.2486     0.0000     3.0000 </r>
       <r>   -19.0988     0.0000     3.0000 </r>
       <r>   -18.9490     0.0000     3.0000 </r>
       <r>   -18.7993     0.0000     3.0000 </r>
       <r>   -18.6495     0.0000     3.0000 </r>
       <r>   -18.4998     0.0000     3.0000 </r>
       <r>   -18.3500     0.0000     3.0000 </r>
       <r>   -18.2003     0.0000     3.0000 </r>
       <r>   -18.0505     0.0000     3.0000 </r>
       <r>   -17.9008     0.0000     3.0000 </r>
       <r>   -17.7510     0.0000     3.0000 </r>
       <r>   -17.6012     0.0000     3.0000 </r>
       <r>   -17.4515     0.0000     3.0000 </r>
       <r>   -17.3017     0.0000     3.0000 </r>
       <r>   -17.1520     0.0000     3.0000 </r>
       <r>   -17.0022     0.0000     3.0000 </r>
       <r>   -16.8525     0.0000     3.0000 </r>
       <r>   -16.7027     0.0000     3.0000 </r>
       <r>   -16.5530     0.0000     3.0000 </r>
       <r>   -16.4032     0.0000     3.0000 </r>
       <r>   -16.2535     0.0000     3.0000 </r>
       <r>   -16.1037     0.0000     3.0000 </r>
       <r>   -15.9539     0.0000     3.0000 </r>
       <r>   -15.8042     0.0000     3.0000 </r>
       <r>   -15.6544     0.0000     3.0000 </r>
       <r>   -15.5047     0.0000     3.0000 </r>
       <r>   -15.3549     0.0000     3.0000 </r>
       <r>   -15.2052     0.0000     3.0000 </r>
       <r>   -15.0554     0.0000     3.0000 </r>
       <r>   -14.9057     0.0000     3.0000 </r>
       <r>   -14.7559     0.0000     3.0000 </r>
       <r>   -14.6061     0.0000     3.0000 </r>
       <r>   -14.4564     0.0000     3.0000 </r>
       <r>   -14.3066     0.0000     3.0000 </r>
       <r>   -14.1569     0.0000     3.0000 </r>
       <r>   -14.0071     0.0000     3.0000 </r>
       <r>   -13.8574     0.0000     3.0000 </r>
       <r>   -13.7076     0.0000     3.0000 </r>
       <r>   -13.5579     0.0000     3.0000 </r>
       <r>   -13.4081     0.0000     3.0000 </r>
       <r>   -13.2583     0.0000     3.0000 </r>
       <r>   -13.1086     0.0000     3.0000 </r>
       <r>   -12.9588     0.0000     3.0000 </r>
       <r>   -12.8091     0.0000     3.0000 </r>
       <r>   -12.6593     0.0000     3.0000 </r>
       <r>   -12.5096     0.0000     3.0000 </r>
       <r>   -12.3598     0.0000     3.0000 </r>
       <r>   -12.2101     0.0000     3.0000 </r>
       <r>   -12.0603     0.0000     3.0000 </r>
       <r>   -11.9106     0.0000     3.0000 </r>
       <r>   -11.7608     0.0000     3.0000 </r>
       <r>   -11.6110     0.0000     3.0000 </r>
       <r>   -11.4613     0.0000     3.0000 </r>
       <r>   -11.3115     0.0000     3.0000 </r>
       <r>   -11.1618     0.0000     3.0000 </r>
       <r>   -11.0120     0.0000     3.0000 </r>
       <r>   -10.8623     0.0000     3.0000 </r>
       <r>   -10.7125     0.0000     3.0000 </r>
       <r>   -10.5628     0.0000     3.0000 </r>
       <r>   -10.4130     0.0000     3.0000 </r>
       <r>   -10.2632     0.0000     3.0000 </r>
       <r>   -10.1135     0.0000     3.0000 </r>
       <r>    -9.9637     0.0000     3.0000 </r>
       <r>    -9.8140     0.0000     3.0000 </r>
       <r>    -9.6642     0.0000     3.0000 </r>
       <r>    -9.5145     0.0000     3.0000 </r>
       <r>    -9.3647     0.0000     3.0000 </r>
       <r>    -9.2150     0.0000     3.0000 </r>
       <r>    -9.0652     0.0000     3.0000 </r>
       <r>    -8.9155     0.0000     3.0000 </r>
       <r>    -8.7657     0.0000     3.0000 </r>
       <r>    -8.6159     0.0000     3.0000 </r>
       <r>    -8.4662     0.0000     3.0000 </r>
       <r>    -8.3164     0.0000     3.0000 </r>
       <r>    -8.1667     0.0000     3.0000 </r>
       <r>    -8.0169     0.0000     3.0000 </r>
       <r>    -7.8672     0.0000     3.0000 </r>
       <r>    -7.7174     0.0000     3.0000 </r>
       <r>    -7.5677     0.0000     3.0000 </r>
       <r>    -7.4179     0.0000     3.0000 </r>
       <r>    -7.2681     0.0000     3.0000 </r>
       <r>    -7.1184     0.0000     3.0000 </r>
       <r>    -6.9686     0.0000     3.0000 </r>
       <r>    -6.8189     0.0000     3.0000 </r>
       <r>    -6.6691     0.0000     3.0000 </r>
       <r>    -6.5194     0.0000     3.0000 </r>
       <r>    -6.3696     0.0000     3.0000 </r>
       <r>    -6.2199     0.0000     3.0000 </r>
       <r>    -6.0701     0.0000     3.0000 </r>
       <r>    -5.9203     0.0000     3.0000 </r>
       <r>    -5.7706     0.0000     3.0000 </r>
       <r>    -5.6208     0.0000     3.0000 </r>
       <r>    -5.4711     0.0000     3.0000 </r>
       <r>    -5.3213     0.0000     3.0000 </r>
       <r>    -5.1716     0.0000     3.0000 </r>
       <r>    -5.0218     0.0000     3.0000 </r>
       <r>    -4.8721     0.0000     3.0000 </r>
       <r>    -4.7223     0.0000     3.0000 </r>
       <r>    -4.5726     0.0000     3.0000 </r>
       <r>    -4.4228     0.0000     3.0000 </r>
       <r>    -4.2730     0.0000     3.0000 </r>
       <r>    -4.1233     0.0000     3.0000 </r>
       <r>    -3.9735     0.0000     3.0000 </r>
       <r>    -3.8238     0.0000     3.0000 </r>
       <r>    -3.6740     0.0000     3.0000 </r>
       <r>    -3.5243     0.0000     3.0000 </r>
       <r>    -3.3745     0.0000     3.0000 </r>
       <r>    -3.2248     0.0000     3.0000 </r>
       <r>    -3.0750     0.0000     3.0000 </r>
       <r>    -2.9252     0.0000     3.0000 </r>
       <r>    -2.7755     0.0000     3.0000 </r>
       <r>    -2.6257     0.0000     3.0000 </r>
       <r>    -2.4760     0.0000     3.0000 </r>
       <r>    -2.3262     0.0000     3.0000 </r>
       <r>    -2.1765     0.0000     3.0000 </r>
       <r>    -2.0267     0.0000     3.0000 </r>
       <r>    -1.8770     0.0000     3.0000 </r>
       <r>    -1.7272     0.1313     3.0197 </r>
       <r>    -1.5775     6.4473     3.9852 </r>
       <r>    -1.4277     0.0989     4.0000 </r>
       <r>    -1.2779     0.0000     4.0000 </r>
       <r>    -1.1282     0.0000     4.0000 </r>
       <r>    -0.9784     1.8468     4.2766 </r>
       <r>    -0.8287    11.4974     5.9984 </r>
       <r>    -0.6789     7.5650     7.1313 </r>
       <r>    -0.5292    12.4777     8.9999 </r>
       <r>    -0.3794     0.0009     9.0000 </r>
       <r>    -0.2297     0.0000     9.0000 </r>
       <r>    -0.0799     0.0000     9.0000 </r>
       <r>     0.0699     0.0000     9.0000 </r>
       <r>     0.2196     0.0000     9.0000 </r>
       <r>     0.3694     0.0000     9.0000 </r>
       <r>     0.5191     0.3538     9.0530 </r>
       <r>     0.6689     6.2943     9.9956 </r>
       <r>     0.8186     0.0294    10.0000 </r>
       <r>     0.9684     0.0000    10.0000 </r>
       <r>     1.1181     0.6787    10.1016 </r>
       <r>     1.2679    19.1938    12.9760 </r>
       <r>     1.4177     0.1602    13.0000 </r>
       <r>     1.5674     0.0000    13.0000 </r>
       <r>     1.7172     0.9925    13.1486 </r>
       <r>     1.8669    12.3276    14.9948 </r>
       <r>     2.0167     0.0350    15.0000 </r>
       <r>     2.1664     0.0000    15.0000 </r>
       <r>     2.3162     0.0003    15.0000 </r>
       <r>     2.4659    10.6155    16.5898 </r>
       <r>     2.6157    16.0708    18.9965 </r>
       <r>     2.7654     0.0237    19.0000 </r>
       <r>     2.9152     0.0000    19.0000 </r>
       <r>     3.0650     0.0000    19.0000 </r>
       <r>     3.2147     9.1204    20.3658 </r>
       <r>     3.3645    44.2107    26.9866 </r>
       <r>     3.5142     0.0894    27.0000 </r>
       <r>     3.6640     0.0000    27.0000 </r>
       <r>     3.8137     0.0000    27.0000 </r>
       <r>     3.9635     0.0000    27.0000 </r>
       <r>     4.1132     0.0000    27.0000 </r>
       <r>     4.2630     0.1045    27.0157 </r>
       <r>     4.4128    13.0712    28.9731 </r>
       <r>     4.5625    13.9395    31.0606 </r>
       <r>     4.7123    18.5348    33.8363 </r>
       <r>     4.8620     7.7683    34.9997 </r>
       <r>     5.0118     0.0023    35.0000 </r>
       <r>     5.1615     0.0000    35.0000 </r>
       <r>     5.3113     0.0000    35.0000 </r>
       <r>     5.4610     0.0000    35.0000 </r>
       <r>     5.6108     0.0000    35.0000 </r>
       <r>     5.7605     0.0000    35.0000 </r>
       <r>     5.9103     0.0000    35.0000 </r>
       <r>     6.0601     0.4123    35.0617 </r>
       <r>     6.2098     6.2418    35.9965 </r>
       <r>     6.3596     0.0235    36.0000 </r>
       <r>     6.5093     0.0000    36.0000 </r>
       <r>     6.6591     0.0000    36.0000 </r>
       <r>     6.8088     0.0000    36.0000 </r>
       <r>     6.9586     0.0000    36.0000 </r>
       <r>     7.1083     0.0000    36.0000 </r>
       <r>     7.2581     0.0000    36.0000 </r>
       <r>     7.4079     0.0000    36.0000 </r>
       <r>     7.5576     0.0000    36.0000 </r>
       <r>     7.7074     0.0000    36.0000 </r>
       <r>     7.8571     0.0000    36.0000 </r>
       <r>     8.0069     0.0000    36.0000 </r>
       <r>     8.1566     0.0000    36.0000 </r>
      </set>
     </set>
    </array>
   </total>
   <partial>
    <array>
     <dimension dim="1">gridpoints</dimension>
     <dimension dim="2">spin</dimension>
     <dimension dim="3">ion</dimension>
     <field>energy</field>
     <field>    s</field>
     <field>   py</field>
     <field>   pz</field>
     <field>   px</field>
     <field>  dxy</field>
     <field>  dyz</field>
     <field>  dz2</field>
     <field>  dxz</field>
     <field>x2-y2</field>
     <set>
      <set comment="ion 1">
       <set comment="spin 1">
        <r>   -36.7699     0.0000     0.0000     0.0000     0.0000     0.0000     0.0000     0.0000     0.0000     0.0000 </r>
        <r>   -36.6201     0.0000     0.0000     0.0000     0.0000     0.0000     0.0000     0.0000     0.0000     0.0000 </r>
        <r>   -36.4704     0.0000     0.0000     0.0000     0.0000     0.0000     0.0000     0.0000     0.0000     0.0000 </r>
        <r>   -36.3206     0.0000     0.0000     0.0000     0.0000     0.0000     0.0000     0.0000     0.0000     0.0000 </r>
        <r>   -36.1709     0.0000     0.0000     0.0000     0.0000     0.0000     0.0000     0.0000     0.0000     0.0000 </r>
        <r>   -36.0211     0.0000     0.0000     0.0000     0.0000     0.0000     0.0000     0.0000     0.0000     0.0000 </r>
        <r>   -35.8714     0.0000     0.0000     0.0000     0.0000     0.0000     0.0000     0.0000     0.0000     0.0000 </r>
        <r>   -35.7216     0.0000     0.0000     0.0000     0.0000     0.0000     0.0000     0.0000     0.0000     0.0000 </r>
        <r>   -35.5719     0.0000     0.0000     0.0000     0.0000     0.0000     0.0000     0.0000     0.0000     0.0000 </r>
        <r>   -35.4221     0.0000     0.0000     0.0000     0.0000     0.0000     0.0000     0.0000     0.0000     0.0000 </r>
        <r>   -35.2723     0.0000     0.0000     0.0000     0.0000     0.0000     0.0000     0.0000     0.0000     0.0000 </r>
        <r>   -35.1226     0.0000     0.0000     0.0000     0.0000     0.0000     0.0000     0.0000     0.0000     0.0000 </r>
        <r>   -34.9728     0.0000     0.0000     0.0000     0.0000     0.0000     0.0000     0.0000     0.0000     0.0000 </r>
        <r>   -34.8231     0.0000     0.0233     0.0233     0.0232     0.0000     0.0000     0.0000     0.0000     0.0000 </r>
        <r>   -34.6733     0.0000     6.1847     6.1848     6.1845     0.0000     0.0000     0.0000     0.0000     0.0000 </r>
        <r>   -34.5236     0.0000     0.4086     0.4086     0.4089     0.0000     0.0000     0.0000     0.0000     0.0000 </r>
        <r>   -34.3738     0.0000     0.0000     0.0000     0.0000     0.0000     0.0000     0.0000     0.0000     0.0000 </r>
        <r>   -34.2241     0.0000     0.0000     0.0000     0.0000     0.0000     0.0000     0.0000     0.0000     0.0000 </r>
        <r>   -34.0743     0.0000     0.0000     0.0000     0.0000     0.0000     0.0000     0.0000     0.0000     0.0000 </r>
        <r>   -33.9246     0.0000     0.0000     0.0000     0.0000     0.0000     0.0000     0.0000     0.0000     0.0000 </r>
        <r>   -33.7748     0.0000     0.0000     0.0000     0.0000     0.0000     0.0000     0.0000     0.0000     0.0000 </r>
        <r>   -33.6250     0.0000     0.0000     0.0000     0.0000     0.0000     0.0000     0.0000     0.0000     0.0000 </r>
        <r>   -33.4753     0.0000     0.0000     0.0000     0.0000     0.0000     0.0000     0.0000     0.0000     0.0000 </r>
        <r>   -33.3255     0.0000     0.0000     0.0000     0.0000     0.0000     0.0000     0.0000     0.0000     0.0000 </r>
        <r>   -33.1758     0.0000     0.0000     0.0000     0.0000     0.0000     0.0000     0.0000     0.0000     0.0000 </r>
        <r>   -33.0260     0.0000     0.0000     0.0000     0.0000     0.0000     0.0000     0.0000     0.0000     0.0000 </r>
        <r>   -32.8763     0.0000     0.0000     0.0000     0.0000     0.0000     0.0000     0.0000     0.0000     0.0000 </r>
        <r>   -32.7265     0.0000     0.0000     0.0000     0.0000     0.0000     0.0000     0.0000     0.0000     0.0000 </r>
        <r>   -32.5768     0.0000     0.0000     0.0000     0.0000     0.0000     0.0000     0.0000     0.0000     0.0000 </r>
        <r>   -32.4270     0.0000     0.0000     0.0000     0.0000     0.0000     0.0000     0.0000     0.0000     0.0000 </r>
        <r>   -32.2772     0.0000     0.0000     0.0000     0.0000     0.0000     0.0000     0.0000     0.0000     0.0000 </r>
        <r>   -32.1275     0.0000     0.0000     0.0000     0.0000     0.0000     0.0000     0.0000     0.0000     0.0000 </r>
        <r>   -31.9777     0.0000     0.0000     0.0000     0.0000     0.0000     0.0000     0.0000     0.0000     0.0000 </r>
        <r>   -31.8280     0.0000     0.0000     0.0000     0.0000     0.0000     0.0000     0.0000     0.0000     0.0000 </r>
        <r>   -31.6782     0.0000     0.0000     0.0000     0.0000     0.0000     0.0000     0.0000     0.0000     0.0000 </r>
        <r>   -31.5285     0.0000     0.0000     0.0000     0.0000     0.0000     0.0000     0.0000     0.0000     0.0000 </r>
        <r>   -31.3787     0.0000     0.0000     0.0000     0.0000     0.0000     0.0000     0.0000     0.0000     0.0000 </r>
        <r>   -31.2290     0.0000     0.0000     0.0000     0.0000     0.0000     0.0000     0.0000     0.0000     0.0000 </r>
        <r>   -31.0792     0.0000     0.0000     0.0000     0.0000     0.0000     0.0000     0.0000     0.0000     0.0000 </r>
        <r>   -30.9294     0.0000     0.0000     0.0000     0.0000     0.0000     0.0000     0.0000     0.0000     0.0000 </r>
        <r>   -30.7797     0.0000     0.0000     0.0000     0.0000     0.0000     0.0000     0.0000     0.0000     0.0000 </r>
        <r>   -30.6299     0.0000     0.0000     0.0000     0.0000     0.0000     0.0000     0.0000     0.0000     0.0000 </r>
        <r>   -30.4802     0.0000     0.0000     0.0000     0.0000     0.0000     0.0000     0.0000     0.0000     0.0000 </r>
        <r>   -30.3304     0.0000     0.0000     0.0000     0.0000     0.0000     0.0000     0.0000     0.0000     0.0000 </r>
        <r>   -30.1807     0.0000     0.0000     0.0000     0.0000     0.0000     0.0000     0.0000     0.0000     0.0000 </r>
        <r>   -30.0309     0.0000     0.0000     0.0000     0.0000     0.0000     0.0000     0.0000     0.0000     0.0000 </r>
        <r>   -29.8812     0.0000     0.0000     0.0000     0.0000     0.0000     0.0000     0.0000     0.0000     0.0000 </r>
        <r>   -29.7314     0.0000     0.0000     0.0000     0.0000     0.0000     0.0000     0.0000     0.0000     0.0000 </r>
        <r>   -29.5817     0.0000     0.0000     0.0000     0.0000     0.0000     0.0000     0.0000     0.0000     0.0000 </r>
        <r>   -29.4319     0.0000     0.0000     0.0000     0.0000     0.0000     0.0000     0.0000     0.0000     0.0000 </r>
        <r>   -29.2821     0.0000     0.0000     0.0000     0.0000     0.0000     0.0000     0.0000     0.0000     0.0000 </r>
        <r>   -29.1324     0.0000     0.0000     0.0000     0.0000     0.0000     0.0000     0.0000     0.0000     0.0000 </r>
        <r>   -28.9826     0.0000     0.0000     0.0000     0.0000     0.0000     0.0000     0.0000     0.0000     0.0000 </r>
        <r>   -28.8329     0.0000     0.0000     0.0000     0.0000     0.0000     0.0000     0.0000     0.0000     0.0000 </r>
        <r>   -28.6831     0.0000     0.0000     0.0000     0.0000     0.0000     0.0000     0.0000     0.0000     0.0000 </r>
        <r>   -28.5334     0.0000     0.0000     0.0000     0.0000     0.0000     0.0000     0.0000     0.0000     0.0000 </r>
        <r>   -28.3836     0.0000     0.0000     0.0000     0.0000     0.0000     0.0000     0.0000     0.0000     0.0000 </r>
        <r>   -28.2339     0.0000     0.0000     0.0000     0.0000     0.0000     0.0000     0.0000     0.0000     0.0000 </r>
        <r>   -28.0841     0.0000     0.0000     0.0000     0.0000     0.0000     0.0000     0.0000     0.0000     0.0000 </r>
        <r>   -27.9343     0.0000     0.0000     0.0000     0.0000     0.0000     0.0000     0.0000     0.0000     0.0000 </r>
        <r>   -27.7846     0.0000     0.0000     0.0000     0.0000     0.0000     0.0000     0.0000     0.0000     0.0000 </r>
        <r>   -27.6348     0.0000     0.0000     0.0000     0.0000     0.0000     0.0000     0.0000     0.0000     0.0000 </r>
        <r>   -27.4851     0.0000     0.0000     0.0000     0.0000     0.0000     0.0000     0.0000     0.0000     0.0000 </r>
        <r>   -27.3353     0.0000     0.0000     0.0000     0.0000     0.0000     0.0000     0.0000     0.0000     0.0000 </r>
        <r>   -27.1856     0.0000     0.0000     0.0000     0.0000     0.0000     0.0000     0.0000     0.0000     0.0000 </r>
        <r>   -27.0358     0.0000     0.0000     0.0000     0.0000     0.0000     0.0000     0.0000     0.0000     0.0000 </r>
        <r>   -26.8861     0.0000     0.0000     0.0000     0.0000     0.0000     0.0000     0.0000     0.0000     0.0000 </r>
        <r>   -26.7363     0.0000     0.0000     0.0000     0.0000     0.0000     0.0000     0.0000     0.0000     0.0000 </r>
        <r>   -26.5866     0.0000     0.0000     0.0000     0.0000     0.0000     0.0000     0.0000     0.0000     0.0000 </r>
        <r>   -26.4368     0.0000     0.0000     0.0000     0.0000     0.0000     0.0000     0.0000     0.0000     0.0000 </r>
        <r>   -26.2870     0.0000     0.0000     0.0000     0.0000     0.0000     0.0000     0.0000     0.0000     0.0000 </r>
        <r>   -26.1373     0.0000     0.0000     0.0000     0.0000     0.0000     0.0000     0.0000     0.0000     0.0000 </r>
        <r>   -25.9875     0.0000     0.0000     0.0000     0.0000     0.0000     0.0000     0.0000     0.0000     0.0000 </r>
        <r>   -25.8378     0.0000     0.0000     0.0000     0.0000     0.0000     0.0000     0.0000     0.0000     0.0000 </r>
        <r>   -25.6880     0.0000     0.0000     0.0000     0.0000     0.0000     0.0000     0.0000     0.0000     0.0000 </r>
        <r>   -25.5383     0.0000     0.0000     0.0000     0.0000     0.0000     0.0000     0.0000     0.0000     0.0000 </r>
        <r>   -25.3885     0.0000     0.0000     0.0000     0.0000     0.0000     0.0000     0.0000     0.0000     0.0000 </r>
        <r>   -25.2388     0.0000     0.0000     0.0000     0.0000     0.0000     0.0000     0.0000     0.0000     0.0000 </r>
        <r>   -25.0890     0.0000     0.0000     0.0000     0.0000     0.0000     0.0000     0.0000     0.0000     0.0000 </r>
        <r>   -24.9392     0.0000     0.0000     0.0000     0.0000     0.0000     0.0000     0.0000     0.0000     0.0000 </r>
        <r>   -24.7895     0.0000     0.0000     0.0000     0.0000     0.0000     0.0000     0.0000     0.0000     0.0000 </r>
        <r>   -24.6397     0.0000     0.0000     0.0000     0.0000     0.0000     0.0000     0.0000     0.0000     0.0000 </r>
        <r>   -24.4900     0.0000     0.0000     0.0000     0.0000     0.0000     0.0000     0.0000     0.0000     0.0000 </r>
        <r>   -24.3402     0.0000     0.0000     0.0000     0.0000     0.0000     0.0000     0.0000     0.0000     0.0000 </r>
        <r>   -24.1905     0.0000     0.0000     0.0000     0.0000     0.0000     0.0000     0.0000     0.0000     0.0000 </r>
        <r>   -24.0407     0.0000     0.0000     0.0000     0.0000     0.0000     0.0000     0.0000     0.0000     0.0000 </r>
        <r>   -23.8910     0.0000     0.0000     0.0000     0.0000     0.0000     0.0000     0.0000     0.0000     0.0000 </r>
        <r>   -23.7412     0.0000     0.0000     0.0000     0.0000     0.0000     0.0000     0.0000     0.0000     0.0000 </r>
        <r>   -23.5914     0.0000     0.0000     0.0000     0.0000     0.0000     0.0000     0.0000     0.0000     0.0000 </r>
        <r>   -23.4417     0.0000     0.0000     0.0000     0.0000     0.0000     0.0000     0.0000     0.0000     0.0000 </r>
        <r>   -23.2919     0.0000     0.0000     0.0000     0.0000     0.0000     0.0000     0.0000     0.0000     0.0000 </r>
        <r>   -23.1422     0.0000     0.0000     0.0000     0.0000     0.0000     0.0000     0.0000     0.0000     0.0000 </r>
        <r>   -22.9924     0.0000     0.0000     0.0000     0.0000     0.0000     0.0000     0.0000     0.0000     0.0000 </r>
        <r>   -22.8427     0.0000     0.0000     0.0000     0.0000     0.0000     0.0000     0.0000     0.0000     0.0000 </r>
        <r>   -22.6929     0.0000     0.0000     0.0000     0.0000     0.0000     0.0000     0.0000     0.0000     0.0000 </r>
        <r>   -22.5432     0.0000     0.0000     0.0000     0.0000     0.0000     0.0000     0.0000     0.0000     0.0000 </r>
        <r>   -22.3934     0.0000     0.0000     0.0000     0.0000     0.0000     0.0000     0.0000     0.0000     0.0000 </r>
        <r>   -22.2437     0.0000     0.0000     0.0000     0.0000     0.0000     0.0000     0.0000     0.0000     0.0000 </r>
        <r>   -22.0939     0.0000     0.0000     0.0000     0.0000     0.0000     0.0000     0.0000     0.0000     0.0000 </r>
        <r>   -21.9441     0.0000     0.0000     0.0000     0.0000     0.0000     0.0000     0.0000     0.0000     0.0000 </r>
        <r>   -21.7944     0.0000     0.0000     0.0000     0.0000     0.0000     0.0000     0.0000     0.0000     0.0000 </r>
        <r>   -21.6446     0.0000     0.0000     0.0000     0.0000     0.0000     0.0000     0.0000     0.0000     0.0000 </r>
        <r>   -21.4949     0.0000     0.0000     0.0000     0.0000     0.0000     0.0000     0.0000     0.0000     0.0000 </r>
        <r>   -21.3451     0.0000     0.0000     0.0000     0.0000     0.0000     0.0000     0.0000     0.0000     0.0000 </r>
        <r>   -21.1954     0.0000     0.0000     0.0000     0.0000     0.0000     0.0000     0.0000     0.0000     0.0000 </r>
        <r>   -21.0456     0.0000     0.0000     0.0000     0.0000     0.0000     0.0000     0.0000     0.0000     0.0000 </r>
        <r>   -20.8959     0.0000     0.0000     0.0000     0.0000     0.0000     0.0000     0.0000     0.0000     0.0000 </r>
        <r>   -20.7461     0.0000     0.0000     0.0000     0.0000     0.0000     0.0000     0.0000     0.0000     0.0000 </r>
        <r>   -20.5963     0.0000     0.0000     0.0000     0.0000     0.0000     0.0000     0.0000     0.0000     0.0000 </r>
        <r>   -20.4466     0.0000     0.0000     0.0000     0.0000     0.0000     0.0000     0.0000     0.0000     0.0000 </r>
        <r>   -20.2968     0.0000     0.0000     0.0000     0.0000     0.0000     0.0000     0.0000     0.0000     0.0000 </r>
        <r>   -20.1471     0.0000     0.0000     0.0000     0.0000     0.0000     0.0000     0.0000     0.0000     0.0000 </r>
        <r>   -19.9973     0.0000     0.0000     0.0000     0.0000     0.0000     0.0000     0.0000     0.0000     0.0000 </r>
        <r>   -19.8476     0.0000     0.0000     0.0000     0.0000     0.0000     0.0000     0.0000     0.0000     0.0000 </r>
        <r>   -19.6978     0.0000     0.0000     0.0000     0.0000     0.0000     0.0000     0.0000     0.0000     0.0000 </r>
        <r>   -19.5481     0.0000     0.0000     0.0000     0.0000     0.0000     0.0000     0.0000     0.0000     0.0000 </r>
        <r>   -19.3983     0.0000     0.0000     0.0000     0.0000     0.0000     0.0000     0.0000     0.0000     0.0000 </r>
        <r>   -19.2486     0.0000     0.0000     0.0000     0.0000     0.0000     0.0000     0.0000     0.0000     0.0000 </r>
        <r>   -19.0988     0.0000     0.0000     0.0000     0.0000     0.0000     0.0000     0.0000     0.0000     0.0000 </r>
        <r>   -18.9490     0.0000     0.0000     0.0000     0.0000     0.0000     0.0000     0.0000     0.0000     0.0000 </r>
        <r>   -18.7993     0.0000     0.0000     0.0000     0.0000     0.0000     0.0000     0.0000     0.0000     0.0000 </r>
        <r>   -18.6495     0.0000     0.0000     0.0000     0.0000     0.0000     0.0000     0.0000     0.0000     0.0000 </r>
        <r>   -18.4998     0.0000     0.0000     0.0000     0.0000     0.0000     0.0000     0.0000     0.0000     0.0000 </r>
        <r>   -18.3500     0.0000     0.0000     0.0000     0.0000     0.0000     0.0000     0.0000     0.0000     0.0000 </r>
        <r>   -18.2003     0.0000     0.0000     0.0000     0.0000     0.0000     0.0000     0.0000     0.0000     0.0000 </r>
        <r>   -18.0505     0.0000     0.0000     0.0000     0.0000     0.0000     0.0000     0.0000     0.0000     0.0000 </r>
        <r>   -17.9008     0.0000     0.0000     0.0000     0.0000     0.0000     0.0000     0.0000     0.0000     0.0000 </r>
        <r>   -17.7510     0.0000     0.0000     0.0000     0.0000     0.0000     0.0000     0.0000     0.0000     0.0000 </r>
        <r>   -17.6012     0.0000     0.0000     0.0000     0.0000     0.0000     0.0000     0.0000     0.0000     0.0000 </r>
        <r>   -17.4515     0.0000     0.0000     0.0000     0.0000     0.0000     0.0000     0.0000     0.0000     0.0000 </r>
        <r>   -17.3017     0.0000     0.0000     0.0000     0.0000     0.0000     0.0000     0.0000     0.0000     0.0000 </r>
        <r>   -17.1520     0.0000     0.0000     0.0000     0.0000     0.0000     0.0000     0.0000     0.0000     0.0000 </r>
        <r>   -17.0022     0.0000     0.0000     0.0000     0.0000     0.0000     0.0000     0.0000     0.0000     0.0000 </r>
        <r>   -16.8525     0.0000     0.0000     0.0000     0.0000     0.0000     0.0000     0.0000     0.0000     0.0000 </r>
        <r>   -16.7027     0.0000     0.0000     0.0000     0.0000     0.0000     0.0000     0.0000     0.0000     0.0000 </r>
        <r>   -16.5530     0.0000     0.0000     0.0000     0.0000     0.0000     0.0000     0.0000     0.0000     0.0000 </r>
        <r>   -16.4032     0.0000     0.0000     0.0000     0.0000     0.0000     0.0000     0.0000     0.0000     0.0000 </r>
        <r>   -16.2535     0.0000     0.0000     0.0000     0.0000     0.0000     0.0000     0.0000     0.0000     0.0000 </r>
        <r>   -16.1037     0.0000     0.0000     0.0000     0.0000     0.0000     0.0000     0.0000     0.0000     0.0000 </r>
        <r>   -15.9539     0.0000     0.0000     0.0000     0.0000     0.0000     0.0000     0.0000     0.0000     0.0000 </r>
        <r>   -15.8042     0.0000     0.0000     0.0000     0.0000     0.0000     0.0000     0.0000     0.0000     0.0000 </r>
        <r>   -15.6544     0.0000     0.0000     0.0000     0.0000     0.0000     0.0000     0.0000     0.0000     0.0000 </r>
        <r>   -15.5047     0.0000     0.0000     0.0000     0.0000     0.0000     0.0000     0.0000     0.0000     0.0000 </r>
        <r>   -15.3549     0.0000     0.0000     0.0000     0.0000     0.0000     0.0000     0.0000     0.0000     0.0000 </r>
        <r>   -15.2052     0.0000     0.0000     0.0000     0.0000     0.0000     0.0000     0.0000     0.0000     0.0000 </r>
        <r>   -15.0554     0.0000     0.0000     0.0000     0.0000     0.0000     0.0000     0.0000     0.0000     0.0000 </r>
        <r>   -14.9057     0.0000     0.0000     0.0000     0.0000     0.0000     0.0000     0.0000     0.0000     0.0000 </r>
        <r>   -14.7559     0.0000     0.0000     0.0000     0.0000     0.0000     0.0000     0.0000     0.0000     0.0000 </r>
        <r>   -14.6061     0.0000     0.0000     0.0000     0.0000     0.0000     0.0000     0.0000     0.0000     0.0000 </r>
        <r>   -14.4564     0.0000     0.0000     0.0000     0.0000     0.0000     0.0000     0.0000     0.0000     0.0000 </r>
        <r>   -14.3066     0.0000     0.0000     0.0000     0.0000     0.0000     0.0000     0.0000     0.0000     0.0000 </r>
        <r>   -14.1569     0.0000     0.0000     0.0000     0.0000     0.0000     0.0000     0.0000     0.0000     0.0000 </r>
        <r>   -14.0071     0.0000     0.0000     0.0000     0.0000     0.0000     0.0000     0.0000     0.0000     0.0000 </r>
        <r>   -13.8574     0.0000     0.0000     0.0000     0.0000     0.0000     0.0000     0.0000     0.0000     0.0000 </r>
        <r>   -13.7076     0.0000     0.0000     0.0000     0.0000     0.0000     0.0000     0.0000     0.0000     0.0000 </r>
        <r>   -13.5579     0.0000     0.0000     0.0000     0.0000     0.0000     0.0000     0.0000     0.0000     0.0000 </r>
        <r>   -13.4081     0.0000     0.0000     0.0000     0.0000     0.0000     0.0000     0.0000     0.0000     0.0000 </r>
        <r>   -13.2583     0.0000     0.0000     0.0000     0.0000     0.0000     0.0000     0.0000     0.0000     0.0000 </r>
        <r>   -13.1086     0.0000     0.0000     0.0000     0.0000     0.0000     0.0000     0.0000     0.0000     0.0000 </r>
        <r>   -12.9588     0.0000     0.0000     0.0000     0.0000     0.0000     0.0000     0.0000     0.0000     0.0000 </r>
        <r>   -12.8091     0.0000     0.0000     0.0000     0.0000     0.0000     0.0000     0.0000     0.0000     0.0000 </r>
        <r>   -12.6593     0.0000     0.0000     0.0000     0.0000     0.0000     0.0000     0.0000     0.0000     0.0000 </r>
        <r>   -12.5096     0.0000     0.0000     0.0000     0.0000     0.0000     0.0000     0.0000     0.0000     0.0000 </r>
        <r>   -12.3598     0.0000     0.0000     0.0000     0.0000     0.0000     0.0000     0.0000     0.0000     0.0000 </r>
        <r>   -12.2101     0.0000     0.0000     0.0000     0.0000     0.0000     0.0000     0.0000     0.0000     0.0000 </r>
        <r>   -12.0603     0.0000     0.0000     0.0000     0.0000     0.0000     0.0000     0.0000     0.0000     0.0000 </r>
        <r>   -11.9106     0.0000     0.0000     0.0000     0.0000     0.0000     0.0000     0.0000     0.0000     0.0000 </r>
        <r>   -11.7608     0.0000     0.0000     0.0000     0.0000     0.0000     0.0000     0.0000     0.0000     0.0000 </r>
        <r>   -11.6110     0.0000     0.0000     0.0000     0.0000     0.0000     0.0000     0.0000     0.0000     0.0000 </r>
        <r>   -11.4613     0.0000     0.0000     0.0000     0.0000     0.0000     0.0000     0.0000     0.0000     0.0000 </r>
        <r>   -11.3115     0.0000     0.0000     0.0000     0.0000     0.0000     0.0000     0.0000     0.0000     0.0000 </r>
        <r>   -11.1618     0.0000     0.0000     0.0000     0.0000     0.0000     0.0000     0.0000     0.0000     0.0000 </r>
        <r>   -11.0120     0.0000     0.0000     0.0000     0.0000     0.0000     0.0000     0.0000     0.0000     0.0000 </r>
        <r>   -10.8623     0.0000     0.0000     0.0000     0.0000     0.0000     0.0000     0.0000     0.0000     0.0000 </r>
        <r>   -10.7125     0.0000     0.0000     0.0000     0.0000     0.0000     0.0000     0.0000     0.0000     0.0000 </r>
        <r>   -10.5628     0.0000     0.0000     0.0000     0.0000     0.0000     0.0000     0.0000     0.0000     0.0000 </r>
[...]
        <r>     1.4177     0.0000     0.0030     0.0031     0.0032     0.0000     0.0000     0.0000     0.0000     0.0000 </r>
        <r>     1.5674     0.0000     0.0000     0.0000     0.0000     0.0000     0.0000     0.0000     0.0000     0.0000 </r>
        <r>     1.7172     0.0000     0.0000     0.0000     0.0000     0.0000     0.0000     0.0087     0.0000     0.0087 </r>
        <r>     1.8669     0.0000     0.0000     0.0000     0.0000     0.0000     0.0000     0.1076     0.0000     0.1081 </r>
        <r>     2.0167     0.0000     0.0000     0.0000     0.0000     0.0000     0.0000     0.0003     0.0000     0.0003 </r>
        <r>     2.1664     0.0000     0.0000     0.0000     0.0000     0.0000     0.0000     0.0000     0.0000     0.0000 </r>
        <r>     2.3162     0.0000     0.0000     0.0000     0.0000     0.0000     0.0000     0.0000     0.0000     0.0000 </r>
        <r>     2.4659     0.0147     0.1366     0.1339     0.1320     0.0000     0.0000     0.0000     0.0001     0.0000 </r>
        <r>     2.6157     0.1789     0.1355     0.1304     0.1290     0.0000     0.0000     0.0000     0.0001     0.0000 </r>
        <r>     2.7654     0.0007     0.0000     0.0000     0.0000     0.0000     0.0000     0.0000     0.0000     0.0000 </r>
        <r>     2.9152     0.0000     0.0000     0.0000     0.0000     0.0000     0.0000     0.0000     0.0000     0.0000 </r>
        <r>     3.0650     0.0000     0.0000     0.0000     0.0000     0.0000     0.0000     0.0000     0.0000     0.0000 </r>
        <r>     3.2147     0.0000     0.0001     0.0001     0.0001     0.0169     0.0173     0.0070     0.0177     0.0084 </r>
        <r>     3.3645     0.0000     0.0002     0.0002     0.0005     0.1631     0.1655     0.0772     0.1638     0.0766 </r>
        <r>     3.5142     0.0000     0.0000     0.0000     0.0000     0.0005     0.0004     0.0002     0.0005     0.0002 </r>
        <r>     3.6640     0.0000     0.0000     0.0000     0.0000     0.0000     0.0000     0.0000     0.0000     0.0000 </r>
        <r>     3.8137     0.0000     0.0000     0.0000     0.0000     0.0000     0.0000     0.0000     0.0000     0.0000 </r>
        <r>     3.9635     0.0000     0.0000     0.0000     0.0000     0.0000     0.0000     0.0000     0.0000     0.0000 </r>
        <r>     4.1132     0.0000     0.0000     0.0000     0.0000     0.0000     0.0000     0.0000     0.0000     0.0000 </r>
        <r>     4.2630     0.0000     0.0010     0.0007     0.0008     0.0000     0.0000     0.0000     0.0001     0.0000 </r>
        <r>     4.4128     0.0176     0.1012     0.1281     0.0573     0.0134     0.0040     0.0000     0.0052     0.0001 </r>
        <r>     4.5625     0.1215     0.0343     0.0177     0.0298     0.0085     0.0085     0.0002     0.0062     0.0010 </r>
        <r>     4.7123     0.0009     0.0192     0.0192     0.0598     0.0512     0.1008     0.0002     0.1188     0.0010 </r>
        <r>     4.8620     0.0001     0.0006     0.0055     0.0087     0.0898     0.0487     0.0000     0.0334     0.0000 </r>
        <r>     5.0118     0.0000     0.0000     0.0000     0.0000     0.0000     0.0000     0.0000     0.0000     0.0000 </r>
        <r>     5.1615     0.0000     0.0000     0.0000     0.0000     0.0000     0.0000     0.0000     0.0000     0.0000 </r>
        <r>     5.3113     0.0000     0.0000     0.0000     0.0000     0.0000     0.0000     0.0000     0.0000     0.0000 </r>
        <r>     5.4610     0.0000     0.0000     0.0000     0.0000     0.0000     0.0000     0.0000     0.0000     0.0000 </r>
        <r>     5.6108     0.0000     0.0000     0.0000     0.0000     0.0000     0.0000     0.0000     0.0000     0.0000 </r>
        <r>     5.7605     0.0000     0.0000     0.0000     0.0000     0.0000     0.0000     0.0000     0.0000     0.0000 </r>
        <r>     5.9103     0.0000     0.0000     0.0000     0.0000     0.0000     0.0000     0.0000     0.0000     0.0000 </r>
        <r>     6.0601     0.0061     0.0001     0.0004     0.0001     0.0000     0.0000     0.0003     0.0000     0.0031 </r>
        <r>     6.2098     0.0921     0.0008     0.0065     0.0012     0.0000     0.0000     0.0046     0.0000     0.0466 </r>
        <r>     6.3596     0.0003     0.0000     0.0000     0.0000     0.0000     0.0000     0.0000     0.0000     0.0002 </r>
        <r>     6.5093     0.0000     0.0000     0.0000     0.0000     0.0000     0.0000     0.0000     0.0000     0.0000 </r>
        <r>     6.6591     0.0000     0.0000     0.0000     0.0000     0.0000     0.0000     0.0000     0.0000     0.0000 </r>
        <r>     6.8088     0.0000     0.0000     0.0000     0.0000     0.0000     0.0000     0.0000     0.0000     0.0000 </r>
        <r>     6.9586     0.0000     0.0000     0.0000     0.0000     0.0000     0.0000     0.0000     0.0000     0.0000 </r>
        <r>     7.1083     0.0000     0.0000     0.0000     0.0000     0.0000     0.0000     0.0000     0.0000     0.0000 </r>
        <r>     7.2581     0.0000     0.0000     0.0000     0.0000     0.0000     0.0000     0.0000     0.0000     0.0000 </r>
        <r>     7.4079     0.0000     0.0000     0.0000     0.0000     0.0000     0.0000     0.0000     0.0000     0.0000 </r>
        <r>     7.5576     0.0000     0.0000     0.0000     0.0000     0.0000     0.0000     0.0000     0.0000     0.0000 </r>
        <r>     7.7074     0.0000     0.0000     0.0000     0.0000     0.0000     0.0000     0.0000     0.0000     0.0000 </r>
        <r>     7.8571     0.0000     0.0000     0.0000     0.0000     0.0000     0.0000     0.0000     0.0000     0.0000 </r>
        <r>     8.0069     0.0000     0.0000     0.0000     0.0000     0.0000     0.0000     0.0000     0.0000     0.0000 </r>
        <r>     8.1566     0.0000     0.0000     0.0000     0.0000     0.0000     0.0000     0.0000     0.0000     0.0000 </r>
       </set>
      </set>
     </set>
    </array>
   </partial>
  </dos>
  <projected>
   <eigenvalues>
    <array>
     <dimension dim="1">band</dimension>
     <dimension dim="2">kpoint</dimension>
     <dimension dim="3">spin</dimension>
     <field>eigene</field>
     <field>occ</field>
     <set>
      <set comment="spin 1">
       <set comment="kpoint 1">
        <r>  -34.7278    1.0000 </r>
        <r>  -34.7278    1.0000 </r>
        <r>  -34.7278    1.0000 </r>
        <r>   -4.2732    1.0000 </r>
        <r>   -3.5889    1.0000 </r>
        <r>   -3.5889    1.0000 </r>
        <r>   -3.5888    1.0000 </r>
        <r>   -3.3398    0.5002 </r>
        <r>   -3.3398    0.4998 </r>
        <r>   -1.0807    0.0000 </r>
        <r>   -1.0804    0.0000 </r>
        <r>   -1.0801    0.0000 </r>
        <r>   -0.3257    0.0000 </r>
        <r>    0.6820    0.0000 </r>
        <r>    0.6820    0.0000 </r>
        <r>    1.4491    0.0000 </r>
        <r>    1.4509    0.0000 </r>
        <r>    1.4596    0.0000 </r>
        <r>    1.6997    0.0000 </r>
        <r>    1.8457    0.0000 </r>
        <r>    1.8481    0.0000 </r>
        <r>    1.8488    0.0000 </r>
        <r>    2.1639    0.0000 </r>
        <r>    2.1662    0.0000 </r>
        <r>    2.2163    0.0000 </r>
        <r>    2.2916    0.0000 </r>
        <r>    2.3443    0.0000 </r>
        <r>    3.3590    0.0000 </r>
        <r>    3.5194    0.0000 </r>
        <r>    3.5700    0.0000 </r>
        <r>    3.5910    0.0000 </r>
        <r>    3.5976    0.0000 </r>
        <r>    3.6105    0.0000 </r>
        <r>    3.6522    0.0000 </r>
        <r>    4.2138    0.0000 </r>
        <r>    4.2397    0.0000 </r>
       </set>
      </set>
      <set comment="spin 2">
       <set comment="kpoint 1">
        <r>  -32.5051    1.0000 </r>
        <r>  -32.5051    1.0000 </r>
        <r>  -32.5051    1.0000 </r>
        <r>   -1.6543    0.0000 </r>
        <r>   -0.9400    0.0000 </r>
        <r>   -0.9399    0.0000 </r>
        <r>   -0.6680    0.0000 </r>
        <r>   -0.6678    0.0000 </r>
        <r>   -0.6678    0.0000 </r>
        <r>    0.5763    0.0000 </r>
        <r>    1.1825    0.0000 </r>
        <r>    1.1828    0.0000 </r>
        <r>    1.1828    0.0000 </r>
        <r>    1.7682    0.0000 </r>
        <r>    1.7683    0.0000 </r>
        <r>    2.4643    0.0000 </r>
        <r>    2.4649    0.0000 </r>
        <r>    2.4661    0.0000 </r>
        <r>    2.5204    0.0000 </r>
        <r>    3.2250    0.0000 </r>
        <r>    3.2265    0.0000 </r>
        <r>    3.2410    0.0000 </r>
        <r>    3.2617    0.0000 </r>
        <r>    3.2634    0.0000 </r>
        <r>    3.2648    0.0000 </r>
        <r>    3.2673    0.0000 </r>
        <r>    3.2699    0.0000 </r>
        <r>    4.3409    0.0000 </r>
        <r>    4.3657    0.0000 </r>
        <r>    4.4611    0.0000 </r>
        <r>    4.5559    0.0000 </r>
        <r>    4.5636    0.0000 </r>
        <r>    4.6736    0.0000 </r>
        <r>    4.6858    0.0000 </r>
        <r>    4.7419    0.0000 </r>
        <r>    6.1145    0.0000 </r>
       </set>
      </set>
     </set>
    </array>
   </eigenvalues>
   <array>
    <dimension dim="1">ion</dimension>
    <dimension dim="2">band</dimension>
    <dimension dim="3">kpoint</dimension>
    <dimension dim="4">spin</dimension>
    <field>    s</field>
    <field>   py</field>
    <field>   pz</field>
    <field>   px</field>
    <field>  dxy</field>
    <field>  dyz</field>
    <field>  dz2</field>
    <field>  dxz</field>
    <field>x2-y2</field>
    <set>
     <set comment="spin1">
      <set comment="kpoint 1">
       <set comment="band 1">
        <r>  0.0000  0.0000  0.9909  0.0000  0.0000  0.0000  0.0000  0.0000  0.0000 </r>
       </set>
       <set comment="band 2">
        <r>  0.0000  0.9909  0.0000  0.0000  0.0000  0.0000  0.0000  0.0000  0.0000 </r>
       </set>
       <set comment="band 3">
        <r>  0.0000  0.0000  0.0000  0.9909  0.0000  0.0000  0.0000  0.0000  0.0000 </r>
       </set>
       <set comment="band 4">
        <r>  0.2760  0.0000  0.0000  0.0000  0.0000  0.0000  0.0000  0.0000  0.0000 </r>
       </set>
       <set comment="band 5">
        <r>  0.0000  0.0000  0.0000  0.0000  0.7733  0.0000  0.0000  0.0000  0.0000 </r>
       </set>
       <set comment="band 6">
        <r>  0.0000  0.0000  0.0000  0.0000  0.0000  0.4982  0.0000  0.2751  0.0000 </r>
       </set>
       <set comment="band 7">
        <r>  0.0000  0.0000  0.0000  0.0000  0.0000  0.2750  0.0000  0.4982  0.0000 </r>
       </set>
       <set comment="band 8">
        <r>  0.0000  0.0000  0.0000  0.0000  0.0000  0.0000  0.7344  0.0000  0.0335 </r>
       </set>
       <set comment="band 9">
        <r>  0.0000  0.0000  0.0000  0.0000  0.0000  0.0000  0.0335  0.0000  0.7345 </r>
       </set>
       <set comment="band 10">
        <r>  0.0000  0.0596  0.0098  0.0238  0.0000  0.0000  0.0000  0.0000  0.0000 </r>
       </set>
       <set comment="band 11">
        <r>  0.0000  0.0038  0.0389  0.0502  0.0000  0.0000  0.0000  0.0000  0.0000 </r>
       </set>
       <set comment="band 12">
        <r>  0.0000  0.0294  0.0439  0.0189  0.0000  0.0000  0.0000  0.0000  0.0000 </r>
       </set>
       <set comment="band 13">
        <r>  0.0346  0.0000  0.0000  0.0000  0.0000  0.0000  0.0000  0.0000  0.0000 </r>
       </set>
       <set comment="band 14">
        <r>  0.0000  0.0000  0.0000  0.0000  0.0000  0.0000  0.0251  0.0000  0.0011 </r>
       </set>
       <set comment="band 15">
        <r>  0.0000  0.0000  0.0000  0.0000  0.0000  0.0000  0.0011  0.0000  0.0251 </r>
       </set>
       <set comment="band 16">
        <r>  0.0000  0.0014  0.0220  0.0057  0.0001  0.0000  0.0000  0.0000  0.0000 </r>
       </set>
       <set comment="band 17">
        <r>  0.0000  0.0148  0.0010  0.0137  0.0000  0.0000  0.0000  0.0001  0.0000 </r>
       </set>
       <set comment="band 18">
        <r>  0.0002  0.0130  0.0064  0.0089  0.0001  0.0005  0.0000  0.0002  0.0000 </r>
       </set>
       <set comment="band 19">
        <r>  0.0311  0.0000  0.0001  0.0000  0.0000  0.0001  0.0000  0.0000  0.0000 </r>
       </set>
       <set comment="band 20">
        <r>  0.0000  0.0001  0.0001  0.0002  0.0040  0.0397  0.0000  0.0011  0.0000 </r>
       </set>
       <set comment="band 21">
        <r>  0.0000  0.0001  0.0000  0.0000  0.0033  0.0029  0.0000  0.0399  0.0000 </r>
       </set>
       <set comment="band 22">
        <r>  0.0000  0.0000  0.0000  0.0000  0.0385  0.0026  0.0000  0.0048  0.0000 </r>
       </set>
       <set comment="band 23">
        <r>  0.0000  0.0000  0.0000  0.0000  0.0000  0.0000  0.0000  0.0000  0.0000 </r>
       </set>
       <set comment="band 24">
        <r>  0.0000  0.0000  0.0000  0.0001  0.0000  0.0001  0.0000  0.0000  0.0001 </r>
       </set>
       <set comment="band 25">
        <r>  0.0000  0.0000  0.0000  0.0003  0.0001  0.0000  0.0032  0.0000  0.0000 </r>
       </set>
       <set comment="band 26">
        <r>  0.0000  0.0000  0.0000  0.0002  0.0000  0.0000  0.0078  0.0000  0.0000 </r>
       </set>
       <set comment="band 27">
        <r>  0.0000  0.0000  0.0000  0.0000  0.0000  0.0000  0.0000  0.0000  0.0110 </r>
       </set>
       <set comment="band 28">
        <r>  0.0000  0.0009  0.0014  0.0081  0.0000  0.0007  0.0000  0.0004  0.0000 </r>
       </set>
       <set comment="band 29">
        <r>  0.0003  0.0219  0.0007  0.0002  0.0001  0.0003  0.0005  0.0006  0.0000 </r>
       </set>
       <set comment="band 30">
        <r>  0.0069  0.0007  0.0042  0.0065  0.0000  0.0047  0.0000  0.0003  0.0000 </r>
       </set>
       <set comment="band 31">
        <r>  0.0002  0.0001  0.0007  0.0063  0.0080  0.0053  0.0000  0.0001  0.0000 </r>
       </set>
       <set comment="band 32">
        <r>  0.0000  0.0000  0.0025  0.0034  0.0085  0.0042  0.0000  0.0016  0.0000 </r>
       </set>
       <set comment="band 33">
        <r>  0.0000  0.0030  0.0002  0.0007  0.0006  0.0007  0.0000  0.0142  0.0000 </r>
       </set>
       <set comment="band 34">
        <r>  0.0154  0.0000  0.0066  0.0017  0.0001  0.0016  0.0000  0.0000  0.0000 </r>
       </set>
       <set comment="band 35">
        <r>  0.0022  0.0004  0.0043  0.0071  0.0000  0.0000  0.0021  0.0000  0.0067 </r>
       </set>
       <set comment="band 36">
        <r>  0.0184  0.0111  0.0115  0.0064  0.0003  0.0003  0.0020  0.0000  0.0012 </r>
       </set>
      </set>
     </set>
     <set comment="spin2">
      <set comment="kpoint 1">
       <set comment="band 1">
        <r>  0.0000  0.0000  0.0000  0.9894  0.0000  0.0000  0.0000  0.0000  0.0000 </r>
       </set>
       <set comment="band 2">
        <r>  0.0000  0.9783  0.0111  0.0000  0.0000  0.0000  0.0000  0.0000  0.0000 </r>
       </set>
       <set comment="band 3">
        <r>  0.0000  0.0111  0.9784  0.0000  0.0000  0.0000  0.0000  0.0000  0.0000 </r>
       </set>
       <set comment="band 4">
        <r>  0.2570  0.0000  0.0000  0.0000  0.0000  0.0000  0.0000  0.0000  0.0000 </r>
       </set>
       <set comment="band 5">
        <r>  0.0000  0.0000  0.0000  0.0000  0.0001  0.0004  0.5812  0.0001  0.1793 </r>
       </set>
       <set comment="band 6">
        <r>  0.0000  0.0000  0.0000  0.0000  0.0000  0.0006  0.1798  0.0002  0.5802 </r>
       </set>
       <set comment="band 7">
        <r>  0.0000  0.0000  0.0000  0.0000  0.0901  0.1264  0.0000  0.5386  0.0008 </r>
       </set>
       <set comment="band 8">
        <r>  0.0000  0.0000  0.0000  0.0000  0.0227  0.5542  0.0000  0.1790  0.0004 </r>
       </set>
       <set comment="band 9">
        <r>  0.0000  0.0000  0.0000  0.0000  0.6436  0.0747  0.0000  0.0382  0.0001 </r>
       </set>
       <set comment="band 10">
        <r>  0.0290  0.0000  0.0000  0.0000  0.0000  0.0000  0.0000  0.0000  0.0000 </r>
       </set>
       <set comment="band 11">
        <r>  0.0000  0.0537  0.0034  0.0007  0.0000  0.0000  0.0000  0.0000  0.0000 </r>
       </set>
       <set comment="band 12">
        <r>  0.0000  0.0027  0.0528  0.0033  0.0000  0.0000  0.0000  0.0000  0.0000 </r>
       </set>
       <set comment="band 13">
        <r>  0.0000  0.0015  0.0024  0.0549  0.0000  0.0000  0.0000  0.0000  0.0000 </r>
       </set>
       <set comment="band 14">
        <r>  0.0000  0.0000  0.0000  0.0000  0.0000  0.0000  0.0094  0.0000  0.0080 </r>
       </set>
       <set comment="band 15">
        <r>  0.0000  0.0000  0.0000  0.0000  0.0000  0.0000  0.0080  0.0000  0.0095 </r>
       </set>
       <set comment="band 16">
        <r>  0.0005  0.0007  0.0243  0.0138  0.0000  0.0000  0.0000  0.0000  0.0000 </r>
       </set>
       <set comment="band 17">
        <r>  0.0004  0.0334  0.0005  0.0059  0.0000  0.0000  0.0000  0.0000  0.0000 </r>
       </set>
       <set comment="band 18">
        <r>  0.0000  0.0060  0.0144  0.0192  0.0000  0.0000  0.0000  0.0000  0.0000 </r>
       </set>
       <set comment="band 19">
        <r>  0.0282  0.0007  0.0004  0.0001  0.0000  0.0000  0.0000  0.0000  0.0000 </r>
       </set>
       <set comment="band 20">
        <r>  0.0000  0.0000  0.0000  0.0000  0.0000  0.0003  0.0000  0.0002  0.0007 </r>
       </set>
       <set comment="band 21">
        <r>  0.0000  0.0000  0.0000  0.0000  0.0004  0.0002  0.0000  0.0000  0.0000 </r>
       </set>
       <set comment="band 22">
        <r>  0.0000  0.0000  0.0000  0.0000  0.0029  0.0006  0.0006  0.0051  0.0001 </r>
       </set>
       <set comment="band 23">
        <r>  0.0000  0.0000  0.0000  0.0000  0.0027  0.0150  0.0014  0.0007  0.0000 </r>
       </set>
       <set comment="band 24">
        <r>  0.0000  0.0000  0.0000  0.0000  0.0035  0.0007  0.0001  0.0007  0.0097 </r>
       </set>
       <set comment="band 25">
        <r>  0.0000  0.0000  0.0000  0.0000  0.0008  0.0098  0.0051  0.0027  0.0001 </r>
       </set>
       <set comment="band 26">
        <r>  0.0000  0.0000  0.0000  0.0000  0.0128  0.0008  0.0040  0.0007  0.0014 </r>
       </set>
       <set comment="band 27">
        <r>  0.0000  0.0000  0.0000  0.0000  0.0039  0.0000  0.0015  0.0171  0.0008 </r>
       </set>
       <set comment="band 28">
        <r>  0.0005  0.0095  0.0054  0.0088  0.0002  0.0002  0.0000  0.0006  0.0000 </r>
       </set>
       <set comment="band 29">
        <r>  0.0005  0.0065  0.0154  0.0000  0.0020  0.0004  0.0000  0.0003  0.0000 </r>
       </set>
       <set comment="band 30">
        <r>  0.0198  0.0010  0.0002  0.0002  0.0000  0.0000  0.0000  0.0000  0.0000 </r>
       </set>
       <set comment="band 31">
        <r>  0.0000  0.0042  0.0014  0.0031  0.0002  0.0014  0.0001  0.0004  0.0001 </r>
       </set>
       <set comment="band 32">
        <r>  0.0001  0.0020  0.0004  0.0049  0.0020  0.0008  0.0000  0.0013  0.0002 </r>
       </set>
       <set comment="band 33">
        <r>  0.0000  0.0000  0.0018  0.0028  0.0038  0.0148  0.0000  0.0014  0.0000 </r>
       </set>
       <set comment="band 34">
        <r>  0.0001  0.0000  0.0005  0.0035  0.0001  0.0000  0.0000  0.0203  0.0000 </r>
       </set>
       <set comment="band 35">
        <r>  0.0000  0.0001  0.0006  0.0002  0.0162  0.0066  0.0000  0.0003  0.0000 </r>
       </set>
       <set comment="band 36">
        <r>  0.0148  0.0001  0.0010  0.0002  0.0000  0.0000  0.0007  0.0000  0.0075 </r>
       </set>
      </set>
     </set>
    </set>
   </array>
  </projected>
 </calculation>
 <structure name="finalpos" >
  <crystal>
   <varray name="basis" >
    <v>      10.00000000       0.00000000       0.00000000 </v>
    <v>       0.00000000      10.00000000       0.00000000 </v>
    <v>       0.00000000       0.00000000      10.00000000 </v>
   </varray>
   <i name="volume">   1000.00000000 </i>
   <varray name="rec_basis" >
    <v>       0.10000000       0.00000000       0.00000000 </v>
    <v>       0.00000000       0.10000000       0.00000000 </v>
    <v>       0.00000000       0.00000000       0.10000000 </v>
   </varray>
  </crystal>
  <varray name="positions" >
   <v>       0.50000000       0.50000000       0.50000000 </v>
  </varray>
 </structure>
</modeling>
