       N       E                     dE             d eps       ncg     rms          ort
DAV:   1     0.768249978422E+02    0.76825E+02   -0.24429E+03    36   0.172E+02
DAV:   2     0.594497203654E+02   -0.17375E+02   -0.17338E+02    36   0.264E+01
DAV:   3     0.393352722030E+02   -0.20114E+02   -0.19362E+02    36   0.926E+00
DAV:   4     0.123894768038E+02   -0.26946E+02   -0.26083E+02    36   0.260E+01
DAV:   5     0.306055757233E+01   -0.93289E+01   -0.93289E+01    36   0.148E+01
SDA:   6     0.345021558823E+01    0.38966E+00   -0.59343E+01    36   0.148E+02 0.000E+00
DMP:   7     0.539413528965E+00   -0.29108E+01   -0.57658E+00    36   0.138E+01 0.151E+00
DMP:   8     0.341263468942E+00   -0.19815E+00   -0.53371E+00    36   0.157E+01-0.605E+00
DMP:   9     0.369142098077E-01   -0.30435E+00   -0.10491E+00    36   0.197E+00 0.170E+00
DMP:  10     0.280441006656E-01   -0.88701E-02   -0.29366E-01    36   0.160E+00-0.226E+00
DMP:  11     0.610015421057E-02   -0.21944E-01   -0.41452E-01    36   0.911E-01 0.327E-01
DMP:  12    -0.177488481027E-01   -0.23849E-01   -0.60242E-02    36   0.928E-02 0.151E-01
DMP:  13    -0.193499702199E-01   -0.16011E-02   -0.27046E-02    36   0.953E-02-0.726E-02
DMP:  14    -0.211141123494E-01   -0.17641E-02   -0.17167E-02    36   0.352E-02 0.201E-02
DMP:  15    -0.219793561378E-01   -0.86524E-03   -0.23770E-03    36   0.580E-03 0.368E-04
DMP:  16    -0.220455935318E-01   -0.66237E-04   -0.18928E-03    36   0.574E-03-0.263E-03
DMP:  17    -0.221782500916E-01   -0.13266E-03   -0.10863E-03    36   0.200E-03 0.188E-03
DMP:  18    -0.222391479721E-01   -0.60898E-04   -0.16557E-04    36   0.292E-04 0.318E-04
DMP:  19    -0.222445453469E-01   -0.53974E-05   -0.78658E-05    36   0.253E-04-0.148E-04
   1 F= -.22244545E-01 E0= -.22244545E-01  d E =-.222445E-01  mag=     0.0000
