<?xml version="1.0" encoding="ISO-8859-1"?>
<modeling>
 <generator>
  <i name="program" type="string">vasp </i>
  <i name="version" type="string">5.4.4.18Apr17-6-g9f103f2a35  </i>
  <i name="subversion" type="string">(build Nov 08 2019 15:19:53) gamma-only         parallel </i>
  <i name="platform" type="string">LinuxIFC </i>
  <i name="date" type="string">2020 11 30 </i>
  <i name="time" type="string">09:30:47 </i>
 </generator>
 <incar>
  <i type="string" name="PREC">accurate</i>
  <i type="string" name="ALGO"> D</i>
  <i type="int" name="ISPIN">     2</i>
  <i type="int" name="NELM">   300</i>
  <i type="int" name="IBRION">     2</i>
  <i name="EDIFF">      0.00005000</i>
  <i type="int" name="NSW">    99</i>
  <i type="int" name="ISIF">     2</i>
  <i name="ENCUT">    520.00000000</i>
  <v name="MAGMOM">      0.60000000</v>
  <i type="string" name="LREAL"> Auto</i>
  <i type="int" name="ISMEAR">     0</i>
  <i name="SIGMA">      0.05000000</i>
  <i type="logical" name="LWAVE"> F  </i>
  <i type="int" name="LORBIT">    11</i>
  <i type="logical" name="LASPH"> T  </i>
  <v type="int" name="KPOINT_BSE">    -1     0     0     0</v>
  <i type="int" name="NELM">   300</i>
  <i type="logical" name="LASPH"> T  </i>
 </incar>
 <structure name="primitive_cell" >
  <crystal>
   <varray name="basis" >
    <v>      10.00000000       0.00000000       0.00000000 </v>
    <v>       0.00000000      10.00000000       0.00000000 </v>
    <v>       0.00000000       0.00000000      10.00000000 </v>
   </varray>
   <i name="volume">   1000.00000000 </i>
   <varray name="rec_basis" >
    <v>       0.10000000       0.00000000       0.00000000 </v>
    <v>       0.00000000       0.10000000       0.00000000 </v>
    <v>       0.00000000       0.00000000       0.10000000 </v>
   </varray>
  </crystal>
  <varray name="positions" >
   <v>      -0.50000000      -0.50000000      -0.50000000 </v>
  </varray>
 </structure>
 <varray name="primitive_index" >
  <v type="int" >        1 </v>
 </varray>
 <kpoints>
  <generation param="Gamma">
   <v type="int" name="divisions">       1        1        1 </v>
   <v name="usershift">      0.00000000       0.00000000       0.00000000 </v>
   <v name="genvec1">      1.00000000       0.00000000       0.00000000 </v>
   <v name="genvec2">      0.00000000       1.00000000       0.00000000 </v>
   <v name="genvec3">      0.00000000       0.00000000       1.00000000 </v>
   <v name="shift">      0.00000000       0.00000000       0.00000000 </v>
  </generation>
  <varray name="kpointlist" >
   <v>       0.00000000       0.00000000       0.00000000 </v>
  </varray>
  <varray name="weights" >
   <v>       1.00000000 </v>
  </varray>
 </kpoints>
 <parameters>
  <separator name="general" >
   <i type="string" name="SYSTEM">unknown system</i>
   <i type="logical" name="LCOMPAT"> F  </i>
  </separator>
  <separator name="electronic" >
   <i type="string" name="PREC">accura</i>
   <i name="ENMAX">    520.00000000</i>
   <i name="ENAUG">    334.95000000</i>
   <i name="EDIFF">      0.00005000</i>
   <i type="int" name="IALGO">    53</i>
   <i type="int" name="IWAVPR">    11</i>
   <i type="int" name="NBANDS">    36</i>
   <i name="NELECT">      8.00000000</i>
   <i type="int" name="TURBO">     0</i>
   <i type="int" name="IRESTART">     0</i>
   <i type="int" name="NREBOOT">     0</i>
   <i type="int" name="NMIN">     0</i>
   <i name="EREF">      0.00000000</i>
   <separator name="electronic smearing" >
    <i type="int" name="ISMEAR">     0</i>
    <i name="SIGMA">      0.05000000</i>
    <i name="KSPACING">      0.50000000</i>
    <i type="logical" name="KGAMMA"> T  </i>
   </separator>
   <separator name="electronic projectors" >
    <i type="logical" name="LREAL"> T  </i>
    <v name="ROPT">     -0.00025000</v>
    <i type="int" name="LMAXPAW">  -100</i>
    <i type="int" name="LMAXMIX">     2</i>
    <i type="logical" name="NLSPLINE"> F  </i>
   </separator>
   <separator name="electronic startup" >
    <i type="int" name="ISTART">     0</i>
    <i type="int" name="ICHARG">     2</i>
    <i type="int" name="INIWAV">     1</i>
   </separator>
   <separator name="electronic spin" >
    <i type="int" name="ISPIN">     2</i>
    <i type="logical" name="LNONCOLLINEAR"> F  </i>
    <v name="MAGMOM">      0.60000000</v>
    <i name="NUPDOWN">     -1.00000000</i>
    <i type="logical" name="LSORBIT"> F  </i>
    <v name="SAXIS">      0.00000000      0.00000000      1.00000000</v>
    <i type="logical" name="LSPIRAL"> F  </i>
    <v name="QSPIRAL">      0.00000000      0.00000000      0.00000000</v>
    <i type="logical" name="LZEROZ"> F  </i>
   </separator>
   <separator name="electronic exchange-correlation" >
    <i type="logical" name="LASPH"> T  </i>
    <i type="logical" name="LMETAGGA"> F  </i>
   </separator>
   <separator name="electronic convergence" >
    <i type="int" name="NELM">   300</i>
    <i type="int" name="NELMDL">    -5</i>
    <i type="int" name="NELMIN">     2</i>
    <i name="ENINI">    520.00000000</i>
    <separator name="electronic convergence detail" >
     <i type="logical" name="LDIAG"> T  </i>
     <i type="logical" name="LSUBROT"> F  </i>
     <i name="WEIMIN">      0.00100000</i>
     <i name="EBREAK">      0.00000035</i>
     <i name="DEPER">      0.30000000</i>
     <i type="int" name="NRMM">     4</i>
     <i name="TIME">      0.40000000</i>
    </separator>
   </separator>
   <separator name="electronic mixer" >
    <i name="AMIX">      0.40000000</i>
    <i name="BMIX">      1.00000000</i>
    <i name="AMIN">      0.10000000</i>
    <i name="AMIX_MAG">      1.60000000</i>
    <i name="BMIX_MAG">      1.00000000</i>
    <separator name="electronic mixer details" >
     <i type="int" name="IMIX">     4</i>
     <i type="logical" name="MIXFIRST"> F  </i>
     <i type="int" name="MAXMIX">   -45</i>
     <i name="WC">    100.00000000</i>
     <i type="int" name="INIMIX">     1</i>
     <i type="int" name="MIXPRE">     1</i>
     <i type="int" name="MREMOVE">     5</i>
    </separator>
   </separator>
   <separator name="electronic dipolcorrection" >
    <i type="logical" name="LDIPOL"> F  </i>
    <i type="logical" name="LMONO"> F  </i>
    <i type="int" name="IDIPOL">     0</i>
    <i name="EPSILON">      1.00000000</i>
    <v name="DIPOL">   -100.00000000   -100.00000000   -100.00000000</v>
    <i name="EFIELD">      0.00000000</i>
   </separator>
  </separator>
  <separator name="grids" >
   <i type="int" name="NGX">    80</i>
   <i type="int" name="NGY">    80</i>
   <i type="int" name="NGZ">    80</i>
   <i type="int" name="NGXF">   160</i>
   <i type="int" name="NGYF">   160</i>
   <i type="int" name="NGZF">   160</i>
   <i type="logical" name="ADDGRID"> F  </i>
  </separator>
  <separator name="ionic" >
   <i type="int" name="NSW">    99</i>
   <i type="int" name="IBRION">     2</i>
   <i type="int" name="MDALGO">     0</i>
   <i type="int" name="ISIF">     2</i>
   <i name="PSTRESS">      0.00000000</i>
   <i name="EDIFFG">      0.00050000</i>
   <i type="int" name="NFREE">     1</i>
   <i name="POTIM">      0.50000000</i>
   <i name="SMASS">     -3.00000000</i>
   <i name="SCALEE">      1.00000000</i>
  </separator>
  <separator name="ionic md" >
   <i name="TEBEG">      0.00010000</i>
   <i name="TEEND">      0.00010000</i>
   <i type="int" name="NBLOCK">     1</i>
   <i type="int" name="KBLOCK">    99</i>
   <i type="int" name="NPACO">   256</i>
   <i name="APACO">     16.00000000</i>
  </separator>
  <separator name="symmetry" >
   <i type="int" name="ISYM">     2</i>
   <i name="SYMPREC">      0.00001000</i>
  </separator>
  <separator name="dos" >
   <i type="int" name="LORBIT">    11</i>
   <v name="RWIGS">     -1.00000000</v>
   <i type="int" name="NEDOS">   301</i>
   <i name="EMIN">     10.00000000</i>
   <i name="EMAX">    -10.00000000</i>
   <i name="EFERMI">      0.00000000</i>
  </separator>
  <separator name="writing" >
   <i type="int" name="NWRITE">     2</i>
   <i type="logical" name="LWAVE"> F  </i>
   <i type="logical" name="LDOWNSAMPLE"> F  </i>
   <i type="logical" name="LCHARG"> T  </i>
   <i type="logical" name="LPARD"> F  </i>
   <i type="logical" name="LVTOT"> F  </i>
   <i type="logical" name="LVHAR"> F  </i>
   <i type="logical" name="LELF"> F  </i>
   <i type="logical" name="LOPTICS"> F  </i>
   <v name="STM">      0.00000000      0.00000000      0.00000000      0.00000000      0.00000000      0.00000000      0.00000000</v>
  </separator>
  <separator name="performance" >
   <i type="int" name="NPAR">    36</i>
   <i type="int" name="NSIM">     4</i>
   <i type="int" name="NBLK">    -1</i>
   <i type="logical" name="LPLANE"> T  </i>
   <i type="logical" name="LSCALAPACK"> T  </i>
   <i type="logical" name="LSCAAWARE"> F  </i>
   <i type="logical" name="LSCALU"> F  </i>
   <i type="logical" name="LASYNC"> F  </i>
   <i type="logical" name="LORBITALREAL"> F  </i>
  </separator>
  <separator name="miscellaneous" >
   <i type="int" name="IDIOT">     3</i>
   <i type="int" name="ISPECIAL">     0</i>
   <i type="logical" name="LMUSIC"> F  </i>
   <v name="POMASS">     83.80000000</v>
   <v name="DARWINR">      0.00000000</v>
   <v name="DARWINV">      1.00000000</v>
   <i type="logical" name="LCORR"> T  </i>
  </separator>
  <i type="logical" name="GGA_COMPAT"> T  </i>
  <i type="logical" name="LBERRY"> F  </i>
  <i type="int" name="ICORELEVEL">     0</i>
  <i type="logical" name="LDAU"> F  </i>
  <i type="int" name="I_CONSTRAINED_M">     0</i>
  <separator name="electronic exchange-correlation" >
   <i type="string" name="GGA">--</i>
   <i type="int" name="VOSKOWN">     0</i>
   <i type="logical" name="LHFCALC"> F  </i>
   <i type="string" name="PRECFOCK"></i>
   <i type="logical" name="LSYMGRAD"> F  </i>
   <i type="logical" name="LHFONE"> F  </i>
   <i type="logical" name="LRHFCALC"> F  </i>
   <i type="logical" name="LTHOMAS"> F  </i>
   <i type="logical" name="LMODELHF"> F  </i>
   <i name="ENCUT4O">     -1.00000000</i>
   <i type="int" name="EXXOEP">     0</i>
   <i type="int" name="FOURORBIT">     0</i>
   <i name="AEXX">      0.00000000</i>
   <i name="HFALPHA">      0.00000000</i>
   <i name="MCALPHA">      0.00000000</i>
   <i name="ALDAX">      1.00000000</i>
   <i name="AGGAX">      1.00000000</i>
   <i name="ALDAC">      1.00000000</i>
   <i name="AGGAC">      1.00000000</i>
   <i type="int" name="NKREDX">     1</i>
   <i type="int" name="NKREDY">     1</i>
   <i type="int" name="NKREDZ">     1</i>
   <i type="logical" name="SHIFTRED"> F  </i>
   <i type="logical" name="ODDONLY"> F  </i>
   <i type="logical" name="EVENONLY"> F  </i>
   <i type="int" name="LMAXFOCK">     0</i>
   <i type="int" name="NMAXFOCKAE">     0</i>
   <i type="logical" name="LFOCKAEDFT"> F  </i>
   <i name="HFSCREEN">      0.00000000</i>
   <i name="HFSCREENC">      0.00000000</i>
   <i type="int" name="NBANDSGWLOW">     0</i>
  </separator>
  <separator name="vdW DFT" >
   <i type="logical" name="LUSE_VDW"> F  </i>
   <i name="Zab_VDW">     -0.84910000</i>
   <i name="PARAM1">      0.12340000</i>
   <i name="PARAM2">      1.00000000</i>
   <i name="PARAM3">      0.00000000</i>
  </separator>
  <separator name="model GW" >
   <i type="int" name="MODEL_GW">     0</i>
   <i name="MODEL_EPS0">    600.00000000</i>
   <i name="MODEL_ALPHA">      1.00000000</i>
  </separator>
  <separator name="linear response parameters" >
   <i type="logical" name="LEPSILON"> F  </i>
   <i type="logical" name="LRPA"> F  </i>
   <i type="logical" name="LNABLA"> F  </i>
   <i type="logical" name="LVEL"> F  </i>
   <i type="int" name="KINTER">     0</i>
   <i name="CSHIFT">      0.10000000</i>
   <i name="OMEGAMAX">     -1.00000000</i>
   <i name="DEG_THRESHOLD">      0.00200000</i>
   <i name="RTIME">     -0.10000000</i>
   <i name="WPLASMAI">      0.00000000</i>
   <v name="DFIELD">      0.00000000      0.00000000      0.00000000</v>
   <v name="WPLASMA">      0.00000000      0.00000000      0.00000000      0.00000000      0.00000000      0.00000000      0.00000000      0.00000000      0.00000000</v>
  </separator>
  <separator name="orbital magnetization" >
   <i type="logical" name="NUCIND"> F  </i>
   <v name="MAGPOS">      0.00000000      0.00000000      0.00000000</v>
   <i type="logical" name="LNICSALL"> T  </i>
   <i type="logical" name="ORBITALMAG"> F  </i>
   <i type="logical" name="LMAGBLOCH"> F  </i>
   <i type="logical" name="LCHIMAG"> F  </i>
   <i type="logical" name="LGAUGE"> T  </i>
   <i type="int" name="MAGATOM">     0</i>
   <v name="MAGDIPOL">      0.00000000      0.00000000      0.00000000</v>
   <v name="AVECCONST">      0.00000000      0.00000000      0.00000000</v>
  </separator>
  <separator name="response functions" >
   <i type="logical" name="LADDER"> F  </i>
   <i type="logical" name="LRPAFORCE"> F  </i>
   <i type="logical" name="LFXC"> F  </i>
   <i type="logical" name="LHARTREE"> T  </i>
   <i type="int" name="IBSE">     0</i>
   <v type="int" name="KPOINT">    -1     0     0     0</v>
   <i type="logical" name="LTCTE"> F  </i>
   <i type="logical" name="LTETE"> F  </i>
   <i type="logical" name="LTRIPLET"> F  </i>
   <i type="logical" name="LFXCEPS"> F  </i>
   <i type="logical" name="LFXHEG"> F  </i>
   <i type="int" name="NATURALO">     2</i>
   <i type="logical" name="L2ORDER"> F  </i>
   <i type="logical" name="LMP2LT"> F  </i>
   <i type="logical" name="LUSEW"> F  </i>
   <i name="ENCUTGW">     -2.00000000</i>
   <i name="ENCUTGWSOFT">     -2.00000000</i>
   <i name="ENCUTLF">     -1.00000000</i>
   <i type="int" name="LMAXMP2">    -1</i>
   <i name="SCISSOR">      0.00000000</i>
   <i type="int" name="NOMEGA">     0</i>
   <i type="int" name="NOMEGAR">     0</i>
   <i type="int" name="NBANDSGW">    -1</i>
   <i type="int" name="NBANDSO">    -1</i>
   <i type="int" name="NBANDSV">    -1</i>
   <i type="int" name="NELM">   300</i>
   <i type="int" name="NELMHF">     1</i>
   <i type="int" name="DIM">     3</i>
   <i type="int" name="ANTIRES">     0</i>
   <i name="OMEGAMAX">    -30.00000000</i>
   <i name="OMEGAMIN">    -30.00000000</i>
   <i name="OMEGATL">   -200.00000000</i>
   <i type="int" name="OMEGAGRID">   140</i>
   <i name="CSHIFT">     -0.10000000</i>
   <i type="logical" name="SELFENERGY"> F  </i>
   <i type="logical" name="LSPECTRAL"> F  </i>
   <i type="logical" name="LSPECTRALGW"> F  </i>
   <i type="logical" name="LSINGLES"> F  </i>
   <i type="logical" name="LFERMIGW"> F  </i>
   <i type="logical" name="ODDONLYGW"> F  </i>
   <i type="logical" name="EVENONLYGW"> F  </i>
   <i type="int" name="NKREDLFX">     1</i>
   <i type="int" name="NKREDLFY">     1</i>
   <i type="int" name="NKREDLFZ">     1</i>
   <i type="int" name="MAXMEM">  2800</i>
   <i type="int" name="TELESCOPE">     0</i>
   <i type="int" name="TAUPAR">     1</i>
   <i type="int" name="OMEGAPAR">    -1</i>
   <i name="LAMBDA">      1.00000000</i>
  </separator>
  <separator name="External order field" >
   <i name="OFIELD_KAPPA">      0.00000000</i>
   <v name="OFIELD_K">      0.00000000      0.00000000      0.00000000</v>
   <i name="OFIELD_Q6_NEAR">      0.00000000</i>
   <i name="OFIELD_Q6_FAR">      0.00000000</i>
   <i name="OFIELD_A">      0.00000000</i>
  </separator>
 </parameters>
 <atominfo>
  <atoms>       1 </atoms>
  <types>       1 </types>
  <array name="atoms" >
   <dimension dim="1">ion</dimension>
   <field type="string">element</field>
   <field type="int">atomtype</field>
   <set>
    <rc><c>Kr</c><c>   1</c></rc>
   </set>
  </array>
  <array name="atomtypes" >
   <dimension dim="1">type</dimension>
   <field type="int">atomspertype</field>
   <field type="string">element</field>
   <field>mass</field>
   <field>valence</field>
   <field type="string">pseudopotential</field>
   <set>
    <rc><c>   1</c><c>Kr</c><c>     83.80000000</c><c>      8.00000000</c><c>  PAW_PBE Kr 07Sep2000                  </c></rc>
   </set>
  </array>
 </atominfo>
 <structure name="initialpos" >
  <crystal>
   <varray name="basis" >
    <v>      10.00000000       0.00000000       0.00000000 </v>
    <v>       0.00000000      10.00000000       0.00000000 </v>
    <v>       0.00000000       0.00000000      10.00000000 </v>
   </varray>
   <i name="volume">   1000.00000000 </i>
   <varray name="rec_basis" >
    <v>       0.10000000       0.00000000       0.00000000 </v>
    <v>       0.00000000       0.10000000       0.00000000 </v>
    <v>       0.00000000       0.00000000       0.10000000 </v>
   </varray>
  </crystal>
  <varray name="positions" >
   <v>       0.50000000       0.50000000       0.50000000 </v>
  </varray>
 </structure>
 <calculation>
  <scstep>
   <time name="total">    0.70    0.71</time>
   <energy>
    <i name="alphaZ">      0.76833499 </i>
    <i name="ewald">   -130.74073603 </i>
    <i name="hartreedc">   -296.83775478 </i>
    <i name="XCdc">     20.55159809 </i>
    <i name="pawpsdc">    404.83359940 </i>
    <i name="pawaedc">   -405.15435222 </i>
    <i name="eentropy">     -0.00000001 </i>
    <i name="bandstr">    -23.32983443 </i>
    <i name="atom">    506.73414284 </i>
    <i name="e_fr_energy">     76.82499784 </i>
    <i name="e_wo_entrp">     76.82499786 </i>
    <i name="e_0_energy">     76.82499785 </i>
   </energy>
  </scstep>
  <scstep>
   <time name="total">    0.38    0.38</time>
   <energy>
    <i name="e_fr_energy">     59.44972037 </i>
    <i name="e_wo_entrp">     59.47907231 </i>
    <i name="e_0_energy">     59.46439634 </i>
   </energy>
  </scstep>
  <scstep>
   <time name="total">    0.38    0.38</time>
   <energy>
    <i name="e_fr_energy">     39.33527220 </i>
    <i name="e_wo_entrp">     39.35325608 </i>
    <i name="e_0_energy">     39.34426414 </i>
   </energy>
  </scstep>
  <scstep>
   <time name="total">    0.38    0.38</time>
   <energy>
    <i name="e_fr_energy">     12.38947680 </i>
    <i name="e_wo_entrp">     12.38947680 </i>
    <i name="e_0_energy">     12.38947680 </i>
   </energy>
  </scstep>
  <scstep>
   <time name="total">    0.59    0.59</time>
   <energy>
    <i name="e_fr_energy">      3.06055757 </i>
    <i name="e_wo_entrp">      3.06055757 </i>
    <i name="e_0_energy">      3.06055757 </i>
   </energy>
  </scstep>
  <scstep>
   <time name="total">    0.77    0.77</time>
   <energy>
    <i name="e_fr_energy">      3.45021559 </i>
    <i name="e_wo_entrp">      3.45021559 </i>
    <i name="e_0_energy">      3.45021559 </i>
   </energy>
  </scstep>
  <scstep>
   <time name="total">    0.71    0.71</time>
   <energy>
    <i name="e_fr_energy">      0.53941353 </i>
    <i name="e_wo_entrp">      0.53941353 </i>
    <i name="e_0_energy">      0.53941353 </i>
   </energy>
  </scstep>
  <scstep>
   <time name="total">    0.68    0.68</time>
   <energy>
    <i name="e_fr_energy">      0.34126347 </i>
    <i name="e_wo_entrp">      0.34126347 </i>
    <i name="e_0_energy">      0.34126347 </i>
   </energy>
  </scstep>
  <scstep>
   <time name="total">    0.70    0.70</time>
   <energy>
    <i name="e_fr_energy">      0.03691421 </i>
    <i name="e_wo_entrp">      0.03691421 </i>
    <i name="e_0_energy">      0.03691421 </i>
   </energy>
  </scstep>
  <scstep>
   <time name="total">    0.68    0.68</time>
   <energy>
    <i name="e_fr_energy">      0.02804410 </i>
    <i name="e_wo_entrp">      0.02804410 </i>
    <i name="e_0_energy">      0.02804410 </i>
   </energy>
  </scstep>
  <scstep>
   <time name="total">    0.67    0.67</time>
   <energy>
    <i name="e_fr_energy">      0.00610015 </i>
    <i name="e_wo_entrp">      0.00610015 </i>
    <i name="e_0_energy">      0.00610015 </i>
   </energy>
  </scstep>
  <scstep>
   <time name="total">    0.69    0.69</time>
   <energy>
    <i name="e_fr_energy">     -0.01774885 </i>
    <i name="e_wo_entrp">     -0.01774885 </i>
    <i name="e_0_energy">     -0.01774885 </i>
   </energy>
  </scstep>
  <scstep>
   <time name="total">    0.69    0.69</time>
   <energy>
    <i name="e_fr_energy">     -0.01934997 </i>
    <i name="e_wo_entrp">     -0.01934997 </i>
    <i name="e_0_energy">     -0.01934997 </i>
   </energy>
  </scstep>
  <scstep>
   <time name="total">    0.67    0.67</time>
   <energy>
    <i name="e_fr_energy">     -0.02111411 </i>
    <i name="e_wo_entrp">     -0.02111411 </i>
    <i name="e_0_energy">     -0.02111411 </i>
   </energy>
  </scstep>
  <scstep>
   <time name="total">    0.69    0.69</time>
   <energy>
    <i name="e_fr_energy">     -0.02197936 </i>
    <i name="e_wo_entrp">     -0.02197936 </i>
    <i name="e_0_energy">     -0.02197936 </i>
   </energy>
  </scstep>
  <scstep>
   <time name="total">    0.69    0.69</time>
   <energy>
    <i name="e_fr_energy">     -0.02204559 </i>
    <i name="e_wo_entrp">     -0.02204559 </i>
    <i name="e_0_energy">     -0.02204559 </i>
   </energy>
  </scstep>
  <scstep>
   <time name="total">    0.69    0.69</time>
   <energy>
    <i name="e_fr_energy">     -0.02217825 </i>
    <i name="e_wo_entrp">     -0.02217825 </i>
    <i name="e_0_energy">     -0.02217825 </i>
   </energy>
  </scstep>
  <scstep>
   <time name="total">    0.68    0.68</time>
   <energy>
    <i name="e_fr_energy">     -0.02223915 </i>
    <i name="e_wo_entrp">     -0.02223915 </i>
    <i name="e_0_energy">     -0.02223915 </i>
   </energy>
  </scstep>
  <scstep>
   <time name="total">    0.75    0.75</time>
   <energy>
    <i name="alphaZ">      0.76833499 </i>
    <i name="ewald">   -130.74073603 </i>
    <i name="hartreedc">   -296.84339397 </i>
    <i name="XCdc">     20.52340716 </i>
    <i name="pawpsdc">    404.78359047 </i>
    <i name="pawaedc">   -405.10555116 </i>
    <i name="eentropy">     -0.00000000 </i>
    <i name="bandstr">   -100.14203884 </i>
    <i name="atom">    506.73414284 </i>
    <i name="e_fr_energy">     -0.02224455 </i>
    <i name="e_wo_entrp">     -0.02224455 </i>
    <i name="e_0_energy">     -0.02224455 </i>
   </energy>
  </scstep>
  <structure>
   <crystal>
    <varray name="basis" >
     <v>      10.00000000       0.00000000       0.00000000 </v>
     <v>       0.00000000      10.00000000       0.00000000 </v>
     <v>       0.00000000       0.00000000      10.00000000 </v>
    </varray>
    <i name="volume">   1000.00000000 </i>
    <varray name="rec_basis" >
     <v>       0.10000000       0.00000000       0.00000000 </v>
     <v>       0.00000000       0.10000000       0.00000000 </v>
     <v>       0.00000000       0.00000000       0.10000000 </v>
    </varray>
   </crystal>
   <varray name="positions" >
    <v>       0.50000000       0.50000000       0.50000000 </v>
   </varray>
  </structure>
  <varray name="forces" >
   <v>       0.00000000       0.00000000       0.00000000 </v>
  </varray>
  <varray name="stress" >
   <v>      -0.05348575      -0.00000000       0.00000000 </v>
   <v>      -0.00000000      -0.05348575       0.00000000 </v>
   <v>       0.00000000      -0.00000000      -0.05348575 </v>
  </varray>
  <energy>
   <i name="e_fr_energy">     -0.02224455 </i>
   <i name="e_wo_entrp">     -0.02224455 </i>
   <i name="e_0_energy">     -0.00000000 </i>
  </energy>
  <time name="totalsc">   23.40   23.62</time>
  <eigenvalues>
   <array>
    <dimension dim="1">band</dimension>
    <dimension dim="2">kpoint</dimension>
    <dimension dim="3">spin</dimension>
    <field>eigene</field>
    <field>occ</field>
    <set>
     <set comment="spin 1">
      <set comment="kpoint 1">
       <r>  -22.8686    1.0000 </r>
       <r>   -9.0675    1.0000 </r>
       <r>   -9.0675    1.0000 </r>
       <r>   -9.0675    1.0000 </r>
       <r>   -0.4870    0.0000 </r>
       <r>    1.0863    0.0000 </r>
       <r>    1.1894    0.0000 </r>
       <r>    1.1935    0.0000 </r>
       <r>    1.2077    0.0000 </r>
       <r>    1.2556    0.0000 </r>
       <r>    1.2737    0.0000 </r>
       <r>    2.2705    0.0000 </r>
       <r>    2.2723    0.0000 </r>
       <r>    2.2752    0.0000 </r>
       <r>    2.7514    0.0000 </r>
       <r>    2.7594    0.0000 </r>
       <r>    2.7621    0.0000 </r>
       <r>    2.7668    0.0000 </r>
       <r>    2.7826    0.0000 </r>
       <r>    2.8325    0.0000 </r>
       <r>    2.8688    0.0000 </r>
       <r>    2.8795    0.0000 </r>
       <r>    2.9063    0.0000 </r>
       <r>    3.9522    0.0000 </r>
       <r>    3.9557    0.0000 </r>
       <r>    3.9619    0.0000 </r>
       <r>    4.2946    0.0000 </r>
       <r>    4.3879    0.0000 </r>
       <r>    4.4096    0.0000 </r>
       <r>    4.4208    0.0000 </r>
       <r>    4.4257    0.0000 </r>
       <r>    4.5319    0.0000 </r>
       <r>    4.7906    0.0000 </r>
       <r>    5.8101    0.0000 </r>
       <r>    5.8652    0.0000 </r>
       <r>    6.7649    0.0000 </r>
      </set>
     </set>
     <set comment="spin 2">
      <set comment="kpoint 1">
       <r>  -22.8685    1.0000 </r>
       <r>   -9.0675    1.0000 </r>
       <r>   -9.0675    1.0000 </r>
       <r>   -9.0675    1.0000 </r>
       <r>   -0.4871    0.0000 </r>
       <r>    1.0862    0.0000 </r>
       <r>    1.1898    0.0000 </r>
       <r>    1.1963    0.0000 </r>
       <r>    1.2010    0.0000 </r>
       <r>    1.2668    0.0000 </r>
       <r>    1.2702    0.0000 </r>
       <r>    2.2709    0.0000 </r>
       <r>    2.2714    0.0000 </r>
       <r>    2.2723    0.0000 </r>
       <r>    2.7191    0.0000 </r>
       <r>    2.7373    0.0000 </r>
       <r>    2.7486    0.0000 </r>
       <r>    2.7572    0.0000 </r>
       <r>    2.7580    0.0000 </r>
       <r>    2.8631    0.0000 </r>
       <r>    2.8896    0.0000 </r>
       <r>    2.9028    0.0000 </r>
       <r>    2.9213    0.0000 </r>
       <r>    3.9540    0.0000 </r>
       <r>    3.9579    0.0000 </r>
       <r>    3.9583    0.0000 </r>
       <r>    4.3397    0.0000 </r>
       <r>    4.3478    0.0000 </r>
       <r>    4.3611    0.0000 </r>
       <r>    4.3934    0.0000 </r>
       <r>    4.4229    0.0000 </r>
       <r>    4.4970    0.0000 </r>
       <r>    4.5555    0.0000 </r>
       <r>    5.8264    0.0000 </r>
       <r>    6.0439    0.0000 </r>
       <r>    6.3955    0.0000 </r>
      </set>
     </set>
    </set>
   </array>
  </eigenvalues>
  <separator name="orbital magnetization" >
   <v name="MAGDIPOLOUT">      0.00000000      0.00000000      0.00000000</v>
  </separator>
  <dos>
   <i name="efermi">     -8.79885605 </i>
   <total>
    <array>
     <dimension dim="1">gridpoints</dimension>
     <dimension dim="2">spin</dimension>
     <field>energy</field>
     <field>total</field>
     <field>integrated</field>
     <set>
      <set comment="spin 1">
       <r>   -24.3503     0.0000     0.0000 </r>
       <r>   -24.2416     0.0000     0.0000 </r>
       <r>   -24.1330     0.0000     0.0000 </r>
       <r>   -24.0243     0.0000     0.0000 </r>
       <r>   -23.9157     0.0000     0.0000 </r>
       <r>   -23.8070     0.0000     0.0000 </r>
       <r>   -23.6984     0.0000     0.0000 </r>
       <r>   -23.5897     0.0000     0.0000 </r>
       <r>   -23.4810     0.0000     0.0000 </r>
       <r>   -23.3724     0.0000     0.0000 </r>
       <r>   -23.2637     0.0000     0.0000 </r>
       <r>   -23.1551     0.0000     0.0000 </r>
       <r>   -23.0464     0.0000     0.0000 </r>
       <r>   -22.9378     0.2324     0.0252 </r>
       <r>   -22.8291     7.7572     0.8681 </r>
       <r>   -22.7204     1.2136     1.0000 </r>
       <r>   -22.6118     0.0001     1.0000 </r>
       <r>   -22.5031     0.0000     1.0000 </r>
       <r>   -22.3945     0.0000     1.0000 </r>
       <r>   -22.2858     0.0000     1.0000 </r>
       <r>   -22.1772     0.0000     1.0000 </r>
       <r>   -22.0685     0.0000     1.0000 </r>
       <r>   -21.9599     0.0000     1.0000 </r>
       <r>   -21.8512     0.0000     1.0000 </r>
       <r>   -21.7425     0.0000     1.0000 </r>
       <r>   -21.6339     0.0000     1.0000 </r>
       <r>   -21.5252     0.0000     1.0000 </r>
       <r>   -21.4166     0.0000     1.0000 </r>
       <r>   -21.3079     0.0000     1.0000 </r>
       <r>   -21.1993     0.0000     1.0000 </r>
       <r>   -21.0906     0.0000     1.0000 </r>
       <r>   -20.9819     0.0000     1.0000 </r>
       <r>   -20.8733     0.0000     1.0000 </r>
       <r>   -20.7646     0.0000     1.0000 </r>
       <r>   -20.6560     0.0000     1.0000 </r>
       <r>   -20.5473     0.0000     1.0000 </r>
       <r>   -20.4387     0.0000     1.0000 </r>
       <r>   -20.3300     0.0000     1.0000 </r>
       <r>   -20.2214     0.0000     1.0000 </r>
       <r>   -20.1127     0.0000     1.0000 </r>
       <r>   -20.0040     0.0000     1.0000 </r>
       <r>   -19.8954     0.0000     1.0000 </r>
       <r>   -19.7867     0.0000     1.0000 </r>
       <r>   -19.6781     0.0000     1.0000 </r>
       <r>   -19.5694     0.0000     1.0000 </r>
       <r>   -19.4608     0.0000     1.0000 </r>
       <r>   -19.3521     0.0000     1.0000 </r>
       <r>   -19.2434     0.0000     1.0000 </r>
       <r>   -19.1348     0.0000     1.0000 </r>
       <r>   -19.0261     0.0000     1.0000 </r>
       <r>   -18.9175     0.0000     1.0000 </r>
       <r>   -18.8088     0.0000     1.0000 </r>
       <r>   -18.7002     0.0000     1.0000 </r>
       <r>   -18.5915     0.0000     1.0000 </r>
       <r>   -18.4829     0.0000     1.0000 </r>
       <r>   -18.3742     0.0000     1.0000 </r>
       <r>   -18.2655     0.0000     1.0000 </r>
       <r>   -18.1569     0.0000     1.0000 </r>
       <r>   -18.0482     0.0000     1.0000 </r>
       <r>   -17.9396     0.0000     1.0000 </r>
       <r>   -17.8309     0.0000     1.0000 </r>
       <r>   -17.7223     0.0000     1.0000 </r>
       <r>   -17.6136     0.0000     1.0000 </r>
       <r>   -17.5049     0.0000     1.0000 </r>
       <r>   -17.3963     0.0000     1.0000 </r>
       <r>   -17.2876     0.0000     1.0000 </r>
       <r>   -17.1790     0.0000     1.0000 </r>
       <r>   -17.0703     0.0000     1.0000 </r>
       <r>   -16.9617     0.0000     1.0000 </r>
       <r>   -16.8530     0.0000     1.0000 </r>
       <r>   -16.7444     0.0000     1.0000 </r>
       <r>   -16.6357     0.0000     1.0000 </r>
       <r>   -16.5270     0.0000     1.0000 </r>
       <r>   -16.4184     0.0000     1.0000 </r>
       <r>   -16.3097     0.0000     1.0000 </r>
       <r>   -16.2011     0.0000     1.0000 </r>
       <r>   -16.0924     0.0000     1.0000 </r>
       <r>   -15.9838     0.0000     1.0000 </r>
       <r>   -15.8751     0.0000     1.0000 </r>
       <r>   -15.7664     0.0000     1.0000 </r>
       <r>   -15.6578     0.0000     1.0000 </r>
       <r>   -15.5491     0.0000     1.0000 </r>
       <r>   -15.4405     0.0000     1.0000 </r>
       <r>   -15.3318     0.0000     1.0000 </r>
       <r>   -15.2232     0.0000     1.0000 </r>
       <r>   -15.1145     0.0000     1.0000 </r>
       <r>   -15.0058     0.0000     1.0000 </r>
       <r>   -14.8972     0.0000     1.0000 </r>
       <r>   -14.7885     0.0000     1.0000 </r>
       <r>   -14.6799     0.0000     1.0000 </r>
       <r>   -14.5712     0.0000     1.0000 </r>
       <r>   -14.4626     0.0000     1.0000 </r>
       <r>   -14.3539     0.0000     1.0000 </r>
       <r>   -14.2453     0.0000     1.0000 </r>
       <r>   -14.1366     0.0000     1.0000 </r>
       <r>   -14.0279     0.0000     1.0000 </r>
       <r>   -13.9193     0.0000     1.0000 </r>
       <r>   -13.8106     0.0000     1.0000 </r>
       <r>   -13.7020     0.0000     1.0000 </r>
       <r>   -13.5933     0.0000     1.0000 </r>
       <r>   -13.4847     0.0000     1.0000 </r>
       <r>   -13.3760     0.0000     1.0000 </r>
       <r>   -13.2673     0.0000     1.0000 </r>
       <r>   -13.1587     0.0000     1.0000 </r>
       <r>   -13.0500     0.0000     1.0000 </r>
       <r>   -12.9414     0.0000     1.0000 </r>
       <r>   -12.8327     0.0000     1.0000 </r>
       <r>   -12.7241     0.0000     1.0000 </r>
       <r>   -12.6154     0.0000     1.0000 </r>
       <r>   -12.5068     0.0000     1.0000 </r>
       <r>   -12.3981     0.0000     1.0000 </r>
       <r>   -12.2894     0.0000     1.0000 </r>
       <r>   -12.1808     0.0000     1.0000 </r>
       <r>   -12.0721     0.0000     1.0000 </r>
       <r>   -11.9635     0.0000     1.0000 </r>
       <r>   -11.8548     0.0000     1.0000 </r>
       <r>   -11.7462     0.0000     1.0000 </r>
       <r>   -11.6375     0.0000     1.0000 </r>
       <r>   -11.5288     0.0000     1.0000 </r>
       <r>   -11.4202     0.0000     1.0000 </r>
       <r>   -11.3115     0.0000     1.0000 </r>
       <r>   -11.2029     0.0000     1.0000 </r>
       <r>   -11.0942     0.0000     1.0000 </r>
       <r>   -10.9856     0.0000     1.0000 </r>
       <r>   -10.8769     0.0000     1.0000 </r>
       <r>   -10.7683     0.0000     1.0000 </r>
       <r>   -10.6596     0.0000     1.0000 </r>
       <r>   -10.5509     0.0000     1.0000 </r>
       <r>   -10.4423     0.0000     1.0000 </r>
       <r>   -10.3336     0.0000     1.0000 </r>
       <r>   -10.2250     0.0000     1.0000 </r>
       <r>   -10.1163     0.0000     1.0000 </r>
       <r>   -10.0077     0.0000     1.0000 </r>
       <r>    -9.8990     0.0000     1.0000 </r>
       <r>    -9.7903     0.0000     1.0000 </r>
       <r>    -9.6817     0.0000     1.0000 </r>
       <r>    -9.5730     0.0000     1.0000 </r>
       <r>    -9.4644     0.0000     1.0000 </r>
       <r>    -9.3557     0.0000     1.0000 </r>
       <r>    -9.2471     0.0000     1.0000 </r>
       <r>    -9.1384     0.6197     1.0673 </r>
       <r>    -9.0298    23.0460     3.5714 </r>
       <r>    -8.9211     3.9438     3.9999 </r>
       <r>    -8.8124     0.0005     4.0000 </r>
       <r>    -8.7038     0.0000     4.0000 </r>
       <r>    -8.5951     0.0000     4.0000 </r>
       <r>    -8.4865     0.0000     4.0000 </r>
       <r>    -8.3778     0.0000     4.0000 </r>
       <r>    -8.2692     0.0000     4.0000 </r>
       <r>    -8.1605     0.0000     4.0000 </r>
       <r>    -8.0518     0.0000     4.0000 </r>
       <r>    -7.9432     0.0000     4.0000 </r>
       <r>    -7.8345     0.0000     4.0000 </r>
       <r>    -7.7259     0.0000     4.0000 </r>
       <r>    -7.6172     0.0000     4.0000 </r>
       <r>    -7.5086     0.0000     4.0000 </r>
       <r>    -7.3999     0.0000     4.0000 </r>
       <r>    -7.2912     0.0000     4.0000 </r>
       <r>    -7.1826     0.0000     4.0000 </r>
       <r>    -7.0739     0.0000     4.0000 </r>
       <r>    -6.9653     0.0000     4.0000 </r>
       <r>    -6.8566     0.0000     4.0000 </r>
       <r>    -6.7480     0.0000     4.0000 </r>
       <r>    -6.6393     0.0000     4.0000 </r>
       <r>    -6.5307     0.0000     4.0000 </r>
       <r>    -6.4220     0.0000     4.0000 </r>
       <r>    -6.3133     0.0000     4.0000 </r>
       <r>    -6.2047     0.0000     4.0000 </r>
       <r>    -6.0960     0.0000     4.0000 </r>
       <r>    -5.9874     0.0000     4.0000 </r>
       <r>    -5.8787     0.0000     4.0000 </r>
       <r>    -5.7701     0.0000     4.0000 </r>
       <r>    -5.6614     0.0000     4.0000 </r>
       <r>    -5.5527     0.0000     4.0000 </r>
       <r>    -5.4441     0.0000     4.0000 </r>
       <r>    -5.3354     0.0000     4.0000 </r>
       <r>    -5.2268     0.0000     4.0000 </r>
       <r>    -5.1181     0.0000     4.0000 </r>
       <r>    -5.0095     0.0000     4.0000 </r>
       <r>    -4.9008     0.0000     4.0000 </r>
       <r>    -4.7922     0.0000     4.0000 </r>
       <r>    -4.6835     0.0000     4.0000 </r>
       <r>    -4.5748     0.0000     4.0000 </r>
       <r>    -4.4662     0.0000     4.0000 </r>
       <r>    -4.3575     0.0000     4.0000 </r>
       <r>    -4.2489     0.0000     4.0000 </r>
       <r>    -4.1402     0.0000     4.0000 </r>
       <r>    -4.0316     0.0000     4.0000 </r>
       <r>    -3.9229     0.0000     4.0000 </r>
       <r>    -3.8142     0.0000     4.0000 </r>
       <r>    -3.7056     0.0000     4.0000 </r>
       <r>    -3.5969     0.0000     4.0000 </r>
       <r>    -3.4883     0.0000     4.0000 </r>
       <r>    -3.3796     0.0000     4.0000 </r>
       <r>    -3.2710     0.0000     4.0000 </r>
       <r>    -3.1623     0.0000     4.0000 </r>
       <r>    -3.0537     0.0000     4.0000 </r>
       <r>    -2.9450     0.0000     4.0000 </r>
       <r>    -2.8363     0.0000     4.0000 </r>
       <r>    -2.7277     0.0000     4.0000 </r>
       <r>    -2.6190     0.0000     4.0000 </r>
       <r>    -2.5104     0.0000     4.0000 </r>
       <r>    -2.4017     0.0000     4.0000 </r>
       <r>    -2.2931     0.0000     4.0000 </r>
       <r>    -2.1844     0.0000     4.0000 </r>
       <r>    -2.0757     0.0000     4.0000 </r>
       <r>    -1.9671     0.0000     4.0000 </r>
       <r>    -1.8584     0.0000     4.0000 </r>
       <r>    -1.7498     0.0000     4.0000 </r>
       <r>    -1.6411     0.0000     4.0000 </r>
       <r>    -1.5325     0.0000     4.0000 </r>
       <r>    -1.4238     0.0000     4.0000 </r>
       <r>    -1.3152     0.0000     4.0000 </r>
       <r>    -1.2065     0.0000     4.0000 </r>
       <r>    -1.0978     0.0000     4.0000 </r>
       <r>    -0.9892     0.0000     4.0000 </r>
       <r>    -0.8805     0.0000     4.0000 </r>
       <r>    -0.7719     0.0000     4.0000 </r>
       <r>    -0.6632     0.0000     4.0000 </r>
       <r>    -0.5546     0.2573     4.0280 </r>
       <r>    -0.4459     7.8168     4.8773 </r>
       <r>    -0.3372     1.1290     5.0000 </r>
       <r>    -0.2286     0.0001     5.0000 </r>
       <r>    -0.1199     0.0000     5.0000 </r>
       <r>    -0.0113     0.0000     5.0000 </r>
       <r>     0.0974     0.0000     5.0000 </r>
       <r>     0.2060     0.0000     5.0000 </r>
       <r>     0.3147     0.0000     5.0000 </r>
       <r>     0.4233     0.0000     5.0000 </r>
       <r>     0.5320     0.0000     5.0000 </r>
       <r>     0.6407     0.0000     5.0000 </r>
       <r>     0.7493     0.0000     5.0000 </r>
       <r>     0.8580     0.0000     5.0000 </r>
       <r>     0.9666     0.0033     5.0004 </r>
       <r>     1.0753     3.4807     5.3786 </r>
       <r>     1.1839    15.9069     7.1069 </r>
       <r>     1.2926    31.6213    10.5428 </r>
       <r>     1.4013     4.2062    10.9998 </r>
       <r>     1.5099     0.0016    11.0000 </r>
       <r>     1.6186     0.0000    11.0000 </r>
       <r>     1.7272     0.0000    11.0000 </r>
       <r>     1.8359     0.0000    11.0000 </r>
       <r>     1.9445     0.0000    11.0000 </r>
       <r>     2.0532     0.0000    11.0000 </r>
       <r>     2.1619     0.0242    11.0026 </r>
       <r>     2.2705    13.1158    12.4277 </r>
       <r>     2.3792    14.4337    13.9961 </r>
       <r>     2.4878     0.0363    14.0000 </r>
       <r>     2.5965     0.0001    14.0000 </r>
       <r>     2.7051     2.4510    14.2663 </r>
       <r>     2.8138    43.0162    18.9403 </r>
       <r>     2.9224    32.6989    22.4933 </r>
       <r>     3.0311     4.6618    22.9998 </r>
       <r>     3.1398     0.0020    23.0000 </r>
       <r>     3.2484     0.0000    23.0000 </r>
       <r>     3.3571     0.0000    23.0000 </r>
       <r>     3.4657     0.0000    23.0000 </r>
       <r>     3.5744     0.0000    23.0000 </r>
       <r>     3.6830     0.0000    23.0000 </r>
       <r>     3.7917     0.0000    23.0000 </r>
       <r>     3.9004     1.5724    23.1709 </r>
       <r>     4.0090    24.0934    25.7888 </r>
       <r>     4.1177     1.9440    26.0000 </r>
       <r>     4.2263     0.2466    26.0268 </r>
       <r>     4.3350     8.6866    26.9706 </r>
       <r>     4.4436    29.8591    30.2150 </r>
       <r>     4.5523    13.8283    31.7176 </r>
       <r>     4.6609     2.5993    32.0000 </r>
       <r>     4.7696     2.5398    32.2760 </r>
       <r>     4.8783     6.6029    32.9934 </r>
       <r>     4.9869     0.0607    33.0000 </r>
       <r>     5.0956     0.0000    33.0000 </r>
       <r>     5.2042     0.0000    33.0000 </r>
       <r>     5.3129     0.0000    33.0000 </r>
       <r>     5.4215     0.0000    33.0000 </r>
       <r>     5.5302     0.0000    33.0000 </r>
       <r>     5.6389     0.0000    33.0000 </r>
       <r>     5.7475     0.3568    33.0388 </r>
       <r>     5.8562    11.6294    34.3024 </r>
       <r>     5.9648     6.3981    34.9976 </r>
       <r>     6.0735     0.0224    35.0000 </r>
       <r>     6.1821     0.0000    35.0000 </r>
       <r>     6.2908     0.0000    35.0000 </r>
       <r>     6.3994     0.0000    35.0000 </r>
       <r>     6.5081     0.0000    35.0000 </r>
       <r>     6.6168     0.0001    35.0000 </r>
       <r>     6.7254     1.2136    35.1319 </r>
       <r>     6.8341     7.7572    35.9748 </r>
       <r>     6.9427     0.2324    36.0000 </r>
       <r>     7.0514     0.0000    36.0000 </r>
       <r>     7.1600     0.0000    36.0000 </r>
       <r>     7.2687     0.0000    36.0000 </r>
       <r>     7.3774     0.0000    36.0000 </r>
       <r>     7.4860     0.0000    36.0000 </r>
       <r>     7.5947     0.0000    36.0000 </r>
       <r>     7.7033     0.0000    36.0000 </r>
       <r>     7.8120     0.0000    36.0000 </r>
       <r>     7.9206     0.0000    36.0000 </r>
       <r>     8.0293     0.0000    36.0000 </r>
       <r>     8.1379     0.0000    36.0000 </r>
       <r>     8.2466     0.0000    36.0000 </r>
      </set>
      <set comment="spin 2">
       <r>   -24.3503     0.0000     0.0000 </r>
       <r>   -24.2416     0.0000     0.0000 </r>
       <r>   -24.1330     0.0000     0.0000 </r>
       <r>   -24.0243     0.0000     0.0000 </r>
       <r>   -23.9157     0.0000     0.0000 </r>
       <r>   -23.8070     0.0000     0.0000 </r>
       <r>   -23.6984     0.0000     0.0000 </r>
       <r>   -23.5897     0.0000     0.0000 </r>
       <r>   -23.4810     0.0000     0.0000 </r>
       <r>   -23.3724     0.0000     0.0000 </r>
       <r>   -23.2637     0.0000     0.0000 </r>
       <r>   -23.1551     0.0000     0.0000 </r>
       <r>   -23.0464     0.0000     0.0000 </r>
       <r>   -22.9378     0.2313     0.0251 </r>
       <r>   -22.8291     7.7545     0.8677 </r>
       <r>   -22.7204     1.2173     1.0000 </r>
       <r>   -22.6118     0.0001     1.0000 </r>
       <r>   -22.5031     0.0000     1.0000 </r>
       <r>   -22.3945     0.0000     1.0000 </r>
       <r>   -22.2858     0.0000     1.0000 </r>
       <r>   -22.1772     0.0000     1.0000 </r>
       <r>   -22.0685     0.0000     1.0000 </r>
       <r>   -21.9599     0.0000     1.0000 </r>
       <r>   -21.8512     0.0000     1.0000 </r>
       <r>   -21.7425     0.0000     1.0000 </r>
       <r>   -21.6339     0.0000     1.0000 </r>
       <r>   -21.5252     0.0000     1.0000 </r>
       <r>   -21.4166     0.0000     1.0000 </r>
       <r>   -21.3079     0.0000     1.0000 </r>
       <r>   -21.1993     0.0000     1.0000 </r>
       <r>   -21.0906     0.0000     1.0000 </r>
       <r>   -20.9819     0.0000     1.0000 </r>
       <r>   -20.8733     0.0000     1.0000 </r>
       <r>   -20.7646     0.0000     1.0000 </r>
       <r>   -20.6560     0.0000     1.0000 </r>
       <r>   -20.5473     0.0000     1.0000 </r>
       <r>   -20.4387     0.0000     1.0000 </r>
       <r>   -20.3300     0.0000     1.0000 </r>
       <r>   -20.2214     0.0000     1.0000 </r>
       <r>   -20.1127     0.0000     1.0000 </r>
       <r>   -20.0040     0.0000     1.0000 </r>
       <r>   -19.8954     0.0000     1.0000 </r>
       <r>   -19.7867     0.0000     1.0000 </r>
       <r>   -19.6781     0.0000     1.0000 </r>
       <r>   -19.5694     0.0000     1.0000 </r>
       <r>   -19.4608     0.0000     1.0000 </r>
       <r>   -19.3521     0.0000     1.0000 </r>
       <r>   -19.2434     0.0000     1.0000 </r>
       <r>   -19.1348     0.0000     1.0000 </r>
       <r>   -19.0261     0.0000     1.0000 </r>
       <r>   -18.9175     0.0000     1.0000 </r>
       <r>   -18.8088     0.0000     1.0000 </r>
       <r>   -18.7002     0.0000     1.0000 </r>
       <r>   -18.5915     0.0000     1.0000 </r>
       <r>   -18.4829     0.0000     1.0000 </r>
       <r>   -18.3742     0.0000     1.0000 </r>
       <r>   -18.2655     0.0000     1.0000 </r>
       <r>   -18.1569     0.0000     1.0000 </r>
       <r>   -18.0482     0.0000     1.0000 </r>
       <r>   -17.9396     0.0000     1.0000 </r>
       <r>   -17.8309     0.0000     1.0000 </r>
       <r>   -17.7223     0.0000     1.0000 </r>
       <r>   -17.6136     0.0000     1.0000 </r>
       <r>   -17.5049     0.0000     1.0000 </r>
       <r>   -17.3963     0.0000     1.0000 </r>
       <r>   -17.2876     0.0000     1.0000 </r>
       <r>   -17.1790     0.0000     1.0000 </r>
       <r>   -17.0703     0.0000     1.0000 </r>
       <r>   -16.9617     0.0000     1.0000 </r>
       <r>   -16.8530     0.0000     1.0000 </r>
       <r>   -16.7444     0.0000     1.0000 </r>
       <r>   -16.6357     0.0000     1.0000 </r>
       <r>   -16.5270     0.0000     1.0000 </r>
       <r>   -16.4184     0.0000     1.0000 </r>
       <r>   -16.3097     0.0000     1.0000 </r>
       <r>   -16.2011     0.0000     1.0000 </r>
       <r>   -16.0924     0.0000     1.0000 </r>
       <r>   -15.9838     0.0000     1.0000 </r>
       <r>   -15.8751     0.0000     1.0000 </r>
       <r>   -15.7664     0.0000     1.0000 </r>
       <r>   -15.6578     0.0000     1.0000 </r>
       <r>   -15.5491     0.0000     1.0000 </r>
       <r>   -15.4405     0.0000     1.0000 </r>
       <r>   -15.3318     0.0000     1.0000 </r>
       <r>   -15.2232     0.0000     1.0000 </r>
       <r>   -15.1145     0.0000     1.0000 </r>
       <r>   -15.0058     0.0000     1.0000 </r>
       <r>   -14.8972     0.0000     1.0000 </r>
       <r>   -14.7885     0.0000     1.0000 </r>
       <r>   -14.6799     0.0000     1.0000 </r>
       <r>   -14.5712     0.0000     1.0000 </r>
       <r>   -14.4626     0.0000     1.0000 </r>
       <r>   -14.3539     0.0000     1.0000 </r>
       <r>   -14.2453     0.0000     1.0000 </r>
       <r>   -14.1366     0.0000     1.0000 </r>
       <r>   -14.0279     0.0000     1.0000 </r>
       <r>   -13.9193     0.0000     1.0000 </r>
       <r>   -13.8106     0.0000     1.0000 </r>
       <r>   -13.7020     0.0000     1.0000 </r>
       <r>   -13.5933     0.0000     1.0000 </r>
       <r>   -13.4847     0.0000     1.0000 </r>
       <r>   -13.3760     0.0000     1.0000 </r>
       <r>   -13.2673     0.0000     1.0000 </r>
       <r>   -13.1587     0.0000     1.0000 </r>
       <r>   -13.0500     0.0000     1.0000 </r>
       <r>   -12.9414     0.0000     1.0000 </r>
       <r>   -12.8327     0.0000     1.0000 </r>
       <r>   -12.7241     0.0000     1.0000 </r>
       <r>   -12.6154     0.0000     1.0000 </r>
       <r>   -12.5068     0.0000     1.0000 </r>
       <r>   -12.3981     0.0000     1.0000 </r>
       <r>   -12.2894     0.0000     1.0000 </r>
       <r>   -12.1808     0.0000     1.0000 </r>
       <r>   -12.0721     0.0000     1.0000 </r>
       <r>   -11.9635     0.0000     1.0000 </r>
       <r>   -11.8548     0.0000     1.0000 </r>
       <r>   -11.7462     0.0000     1.0000 </r>
       <r>   -11.6375     0.0000     1.0000 </r>
       <r>   -11.5288     0.0000     1.0000 </r>
       <r>   -11.4202     0.0000     1.0000 </r>
       <r>   -11.3115     0.0000     1.0000 </r>
       <r>   -11.2029     0.0000     1.0000 </r>
       <r>   -11.0942     0.0000     1.0000 </r>
       <r>   -10.9856     0.0000     1.0000 </r>
       <r>   -10.8769     0.0000     1.0000 </r>
       <r>   -10.7683     0.0000     1.0000 </r>
       <r>   -10.6596     0.0000     1.0000 </r>
       <r>   -10.5509     0.0000     1.0000 </r>
       <r>   -10.4423     0.0000     1.0000 </r>
       <r>   -10.3336     0.0000     1.0000 </r>
       <r>   -10.2250     0.0000     1.0000 </r>
       <r>   -10.1163     0.0000     1.0000 </r>
       <r>   -10.0077     0.0000     1.0000 </r>
       <r>    -9.8990     0.0000     1.0000 </r>
       <r>    -9.7903     0.0000     1.0000 </r>
       <r>    -9.6817     0.0000     1.0000 </r>
       <r>    -9.5730     0.0000     1.0000 </r>
       <r>    -9.4644     0.0000     1.0000 </r>
       <r>    -9.3557     0.0000     1.0000 </r>
       <r>    -9.2471     0.0000     1.0000 </r>
       <r>    -9.1384     0.6184     1.0672 </r>
       <r>    -9.0298    23.0420     3.5709 </r>
       <r>    -8.9211     3.9491     3.9999 </r>
       <r>    -8.8124     0.0005     4.0000 </r>
       <r>    -8.7038     0.0000     4.0000 </r>
       <r>    -8.5951     0.0000     4.0000 </r>
       <r>    -8.4865     0.0000     4.0000 </r>
       <r>    -8.3778     0.0000     4.0000 </r>
       <r>    -8.2692     0.0000     4.0000 </r>
       <r>    -8.1605     0.0000     4.0000 </r>
       <r>    -8.0518     0.0000     4.0000 </r>
       <r>    -7.9432     0.0000     4.0000 </r>
       <r>    -7.8345     0.0000     4.0000 </r>
       <r>    -7.7259     0.0000     4.0000 </r>
       <r>    -7.6172     0.0000     4.0000 </r>
       <r>    -7.5086     0.0000     4.0000 </r>
       <r>    -7.3999     0.0000     4.0000 </r>
       <r>    -7.2912     0.0000     4.0000 </r>
       <r>    -7.1826     0.0000     4.0000 </r>
       <r>    -7.0739     0.0000     4.0000 </r>
       <r>    -6.9653     0.0000     4.0000 </r>
       <r>    -6.8566     0.0000     4.0000 </r>
       <r>    -6.7480     0.0000     4.0000 </r>
       <r>    -6.6393     0.0000     4.0000 </r>
       <r>    -6.5307     0.0000     4.0000 </r>
       <r>    -6.4220     0.0000     4.0000 </r>
       <r>    -6.3133     0.0000     4.0000 </r>
       <r>    -6.2047     0.0000     4.0000 </r>
       <r>    -6.0960     0.0000     4.0000 </r>
       <r>    -5.9874     0.0000     4.0000 </r>
       <r>    -5.8787     0.0000     4.0000 </r>
       <r>    -5.7701     0.0000     4.0000 </r>
       <r>    -5.6614     0.0000     4.0000 </r>
       <r>    -5.5527     0.0000     4.0000 </r>
       <r>    -5.4441     0.0000     4.0000 </r>
       <r>    -5.3354     0.0000     4.0000 </r>
       <r>    -5.2268     0.0000     4.0000 </r>
       <r>    -5.1181     0.0000     4.0000 </r>
       <r>    -5.0095     0.0000     4.0000 </r>
       <r>    -4.9008     0.0000     4.0000 </r>
       <r>    -4.7922     0.0000     4.0000 </r>
       <r>    -4.6835     0.0000     4.0000 </r>
       <r>    -4.5748     0.0000     4.0000 </r>
       <r>    -4.4662     0.0000     4.0000 </r>
       <r>    -4.3575     0.0000     4.0000 </r>
       <r>    -4.2489     0.0000     4.0000 </r>
       <r>    -4.1402     0.0000     4.0000 </r>
       <r>    -4.0316     0.0000     4.0000 </r>
       <r>    -3.9229     0.0000     4.0000 </r>
       <r>    -3.8142     0.0000     4.0000 </r>
       <r>    -3.7056     0.0000     4.0000 </r>
       <r>    -3.5969     0.0000     4.0000 </r>
       <r>    -3.4883     0.0000     4.0000 </r>
       <r>    -3.3796     0.0000     4.0000 </r>
       <r>    -3.2710     0.0000     4.0000 </r>
       <r>    -3.1623     0.0000     4.0000 </r>
       <r>    -3.0537     0.0000     4.0000 </r>
       <r>    -2.9450     0.0000     4.0000 </r>
       <r>    -2.8363     0.0000     4.0000 </r>
       <r>    -2.7277     0.0000     4.0000 </r>
       <r>    -2.6190     0.0000     4.0000 </r>
       <r>    -2.5104     0.0000     4.0000 </r>
       <r>    -2.4017     0.0000     4.0000 </r>
       <r>    -2.2931     0.0000     4.0000 </r>
       <r>    -2.1844     0.0000     4.0000 </r>
       <r>    -2.0757     0.0000     4.0000 </r>
       <r>    -1.9671     0.0000     4.0000 </r>
       <r>    -1.8584     0.0000     4.0000 </r>
       <r>    -1.7498     0.0000     4.0000 </r>
       <r>    -1.6411     0.0000     4.0000 </r>
       <r>    -1.5325     0.0000     4.0000 </r>
       <r>    -1.4238     0.0000     4.0000 </r>
       <r>    -1.3152     0.0000     4.0000 </r>
       <r>    -1.2065     0.0000     4.0000 </r>
       <r>    -1.0978     0.0000     4.0000 </r>
       <r>    -0.9892     0.0000     4.0000 </r>
       <r>    -0.8805     0.0000     4.0000 </r>
       <r>    -0.7719     0.0000     4.0000 </r>
       <r>    -0.6632     0.0000     4.0000 </r>
       <r>    -0.5546     0.2592     4.0282 </r>
       <r>    -0.4459     7.8209     4.8780 </r>
       <r>    -0.3372     1.1231     5.0000 </r>
       <r>    -0.2286     0.0001     5.0000 </r>
       <r>    -0.1199     0.0000     5.0000 </r>
       <r>    -0.0113     0.0000     5.0000 </r>
       <r>     0.0974     0.0000     5.0000 </r>
       <r>     0.2060     0.0000     5.0000 </r>
       <r>     0.3147     0.0000     5.0000 </r>
       <r>     0.4233     0.0000     5.0000 </r>
       <r>     0.5320     0.0000     5.0000 </r>
       <r>     0.6407     0.0000     5.0000 </r>
       <r>     0.7493     0.0000     5.0000 </r>
       <r>     0.8580     0.0000     5.0000 </r>
       <r>     0.9666     0.0033     5.0004 </r>
       <r>     1.0753     3.4925     5.3798 </r>
       <r>     1.1839    16.0807     7.1271 </r>
       <r>     1.2926    30.9909    10.4945 </r>
       <r>     1.4013     4.6510    10.9998 </r>
       <r>     1.5099     0.0016    11.0000 </r>
       <r>     1.6186     0.0000    11.0000 </r>
       <r>     1.7272     0.0000    11.0000 </r>
       <r>     1.8359     0.0000    11.0000 </r>
       <r>     1.9445     0.0000    11.0000 </r>
       <r>     2.0532     0.0000    11.0000 </r>
       <r>     2.1619     0.0266    11.0029 </r>
       <r>     2.2705    13.4698    12.4665 </r>
       <r>     2.3792    14.0814    13.9965 </r>
       <r>     2.4878     0.0321    14.0000 </r>
       <r>     2.5965     0.0028    14.0003 </r>
       <r>     2.7051     7.1253    14.7745 </r>
       <r>     2.8138    38.3457    18.9410 </r>
       <r>     2.9224    28.1602    22.0008 </r>
       <r>     3.0311     9.1856    22.9989 </r>
       <r>     3.1398     0.0104    23.0000 </r>
       <r>     3.2484     0.0000    23.0000 </r>
       <r>     3.3571     0.0000    23.0000 </r>
       <r>     3.4657     0.0000    23.0000 </r>
       <r>     3.5744     0.0000    23.0000 </r>
       <r>     3.6830     0.0000    23.0000 </r>
       <r>     3.7917     0.0000    23.0000 </r>
       <r>     3.9004     1.5363    23.1669 </r>
       <r>     4.0090    24.1420    25.7901 </r>
       <r>     4.1177     1.9316    26.0000 </r>
       <r>     4.2263     0.0096    26.0010 </r>
       <r>     4.3350    10.0250    27.0903 </r>
       <r>     4.4436    33.1773    30.6952 </r>
       <r>     4.5523    15.7314    32.4046 </r>
       <r>     4.6609     5.4668    32.9986 </r>
       <r>     4.7696     0.0132    33.0000 </r>
       <r>     4.8783     0.0000    33.0000 </r>
       <r>     4.9869     0.0000    33.0000 </r>
       <r>     5.0956     0.0000    33.0000 </r>
       <r>     5.2042     0.0000    33.0000 </r>
       <r>     5.3129     0.0000    33.0000 </r>
       <r>     5.4215     0.0000    33.0000 </r>
       <r>     5.5302     0.0000    33.0000 </r>
       <r>     5.6389     0.0000    33.0000 </r>
       <r>     5.7475     0.1183    33.0129 </r>
       <r>     5.8562     7.2474    33.8003 </r>
       <r>     5.9648     1.9536    34.0126 </r>
       <r>     6.0735     7.2327    34.7985 </r>
       <r>     6.1821     1.8542    35.0000 </r>
       <r>     6.2908     0.0145    35.0015 </r>
       <r>     6.3994     4.9939    35.5441 </r>
       <r>     6.5081     4.1887    35.9993 </r>
       <r>     6.6168     0.0067    36.0000 </r>
       <r>     6.7254     0.0000    36.0000 </r>
       <r>     6.8341     0.0000    36.0000 </r>
       <r>     6.9427     0.0000    36.0000 </r>
       <r>     7.0514     0.0000    36.0000 </r>
       <r>     7.1600     0.0000    36.0000 </r>
       <r>     7.2687     0.0000    36.0000 </r>
       <r>     7.3774     0.0000    36.0000 </r>
       <r>     7.4860     0.0000    36.0000 </r>
       <r>     7.5947     0.0000    36.0000 </r>
       <r>     7.7033     0.0000    36.0000 </r>
       <r>     7.8120     0.0000    36.0000 </r>
       <r>     7.9206     0.0000    36.0000 </r>
       <r>     8.0293     0.0000    36.0000 </r>
       <r>     8.1379     0.0000    36.0000 </r>
       <r>     8.2466     0.0000    36.0000 </r>
      </set>
     </set>
    </array>
   </total>
   <partial>
    <array>
     <dimension dim="1">gridpoints</dimension>
     <dimension dim="2">spin</dimension>
     <dimension dim="3">ion</dimension>
     <field>energy</field>
     <field>    s</field>
     <field>   py</field>
     <field>   pz</field>
     <field>   px</field>
     <field>  dxy</field>
     <field>  dyz</field>
     <field>  dz2</field>
     <field>  dxz</field>
     <field>x2-y2</field>
     <set>
      <set comment="ion 1">
       <set comment="spin 1">
        <r>   -24.3503     0.0000     0.0000     0.0000     0.0000     0.0000     0.0000     0.0000     0.0000     0.0000 </r>
        <r>   -24.2416     0.0000     0.0000     0.0000     0.0000     0.0000     0.0000     0.0000     0.0000     0.0000 </r>
        <r>   -24.1330     0.0000     0.0000     0.0000     0.0000     0.0000     0.0000     0.0000     0.0000     0.0000 </r>
        <r>   -24.0243     0.0000     0.0000     0.0000     0.0000     0.0000     0.0000     0.0000     0.0000     0.0000 </r>
        <r>   -23.9157     0.0000     0.0000     0.0000     0.0000     0.0000     0.0000     0.0000     0.0000     0.0000 </r>
        <r>   -23.8070     0.0000     0.0000     0.0000     0.0000     0.0000     0.0000     0.0000     0.0000     0.0000 </r>
        <r>   -23.6984     0.0000     0.0000     0.0000     0.0000     0.0000     0.0000     0.0000     0.0000     0.0000 </r>
        <r>   -23.5897     0.0000     0.0000     0.0000     0.0000     0.0000     0.0000     0.0000     0.0000     0.0000 </r>
        <r>   -23.4810     0.0000     0.0000     0.0000     0.0000     0.0000     0.0000     0.0000     0.0000     0.0000 </r>
        <r>   -23.3724     0.0000     0.0000     0.0000     0.0000     0.0000     0.0000     0.0000     0.0000     0.0000 </r>
        <r>   -23.2637     0.0000     0.0000     0.0000     0.0000     0.0000     0.0000     0.0000     0.0000     0.0000 </r>
        <r>   -23.1551     0.0000     0.0000     0.0000     0.0000     0.0000     0.0000     0.0000     0.0000     0.0000 </r>
        <r>   -23.0464     0.0000     0.0000     0.0000     0.0000     0.0000     0.0000     0.0000     0.0000     0.0000 </r>
        <r>   -22.9378     0.2104     0.0000     0.0000     0.0000     0.0000     0.0000     0.0000     0.0000     0.0000 </r>
        <r>   -22.8291     7.0220     0.0000     0.0000     0.0000     0.0000     0.0000     0.0000     0.0000     0.0000 </r>
        <r>   -22.7204     1.0986     0.0000     0.0000     0.0000     0.0000     0.0000     0.0000     0.0000     0.0000 </r>
        <r>   -22.6118     0.0001     0.0000     0.0000     0.0000     0.0000     0.0000     0.0000     0.0000     0.0000 </r>
        <r>   -22.5031     0.0000     0.0000     0.0000     0.0000     0.0000     0.0000     0.0000     0.0000     0.0000 </r>
        <r>   -22.3945     0.0000     0.0000     0.0000     0.0000     0.0000     0.0000     0.0000     0.0000     0.0000 </r>
        <r>   -22.2858     0.0000     0.0000     0.0000     0.0000     0.0000     0.0000     0.0000     0.0000     0.0000 </r>
        <r>   -22.1772     0.0000     0.0000     0.0000     0.0000     0.0000     0.0000     0.0000     0.0000     0.0000 </r>
        <r>   -22.0685     0.0000     0.0000     0.0000     0.0000     0.0000     0.0000     0.0000     0.0000     0.0000 </r>
        <r>   -21.9599     0.0000     0.0000     0.0000     0.0000     0.0000     0.0000     0.0000     0.0000     0.0000 </r>
        <r>   -21.8512     0.0000     0.0000     0.0000     0.0000     0.0000     0.0000     0.0000     0.0000     0.0000 </r>
        <r>   -21.7425     0.0000     0.0000     0.0000     0.0000     0.0000     0.0000     0.0000     0.0000     0.0000 </r>
        <r>   -21.6339     0.0000     0.0000     0.0000     0.0000     0.0000     0.0000     0.0000     0.0000     0.0000 </r>
        <r>   -21.5252     0.0000     0.0000     0.0000     0.0000     0.0000     0.0000     0.0000     0.0000     0.0000 </r>
        <r>   -21.4166     0.0000     0.0000     0.0000     0.0000     0.0000     0.0000     0.0000     0.0000     0.0000 </r>
        <r>   -21.3079     0.0000     0.0000     0.0000     0.0000     0.0000     0.0000     0.0000     0.0000     0.0000 </r>
        <r>   -21.1993     0.0000     0.0000     0.0000     0.0000     0.0000     0.0000     0.0000     0.0000     0.0000 </r>
        <r>   -21.0906     0.0000     0.0000     0.0000     0.0000     0.0000     0.0000     0.0000     0.0000     0.0000 </r>
        <r>   -20.9819     0.0000     0.0000     0.0000     0.0000     0.0000     0.0000     0.0000     0.0000     0.0000 </r>
        <r>   -20.8733     0.0000     0.0000     0.0000     0.0000     0.0000     0.0000     0.0000     0.0000     0.0000 </r>
        <r>   -20.7646     0.0000     0.0000     0.0000     0.0000     0.0000     0.0000     0.0000     0.0000     0.0000 </r>
        <r>   -20.6560     0.0000     0.0000     0.0000     0.0000     0.0000     0.0000     0.0000     0.0000     0.0000 </r>
        <r>   -20.5473     0.0000     0.0000     0.0000     0.0000     0.0000     0.0000     0.0000     0.0000     0.0000 </r>
        <r>   -20.4387     0.0000     0.0000     0.0000     0.0000     0.0000     0.0000     0.0000     0.0000     0.0000 </r>
        <r>   -20.3300     0.0000     0.0000     0.0000     0.0000     0.0000     0.0000     0.0000     0.0000     0.0000 </r>
        <r>   -20.2214     0.0000     0.0000     0.0000     0.0000     0.0000     0.0000     0.0000     0.0000     0.0000 </r>
        <r>   -20.1127     0.0000     0.0000     0.0000     0.0000     0.0000     0.0000     0.0000     0.0000     0.0000 </r>
        <r>   -20.0040     0.0000     0.0000     0.0000     0.0000     0.0000     0.0000     0.0000     0.0000     0.0000 </r>
        <r>   -19.8954     0.0000     0.0000     0.0000     0.0000     0.0000     0.0000     0.0000     0.0000     0.0000 </r>
        <r>   -19.7867     0.0000     0.0000     0.0000     0.0000     0.0000     0.0000     0.0000     0.0000     0.0000 </r>
        <r>   -19.6781     0.0000     0.0000     0.0000     0.0000     0.0000     0.0000     0.0000     0.0000     0.0000 </r>
        <r>   -19.5694     0.0000     0.0000     0.0000     0.0000     0.0000     0.0000     0.0000     0.0000     0.0000 </r>
        <r>   -19.4608     0.0000     0.0000     0.0000     0.0000     0.0000     0.0000     0.0000     0.0000     0.0000 </r>
        <r>   -19.3521     0.0000     0.0000     0.0000     0.0000     0.0000     0.0000     0.0000     0.0000     0.0000 </r>
        <r>   -19.2434     0.0000     0.0000     0.0000     0.0000     0.0000     0.0000     0.0000     0.0000     0.0000 </r>
        <r>   -19.1348     0.0000     0.0000     0.0000     0.0000     0.0000     0.0000     0.0000     0.0000     0.0000 </r>
        <r>   -19.0261     0.0000     0.0000     0.0000     0.0000     0.0000     0.0000     0.0000     0.0000     0.0000 </r>
        <r>   -18.9175     0.0000     0.0000     0.0000     0.0000     0.0000     0.0000     0.0000     0.0000     0.0000 </r>
        <r>   -18.8088     0.0000     0.0000     0.0000     0.0000     0.0000     0.0000     0.0000     0.0000     0.0000 </r>
        <r>   -18.7002     0.0000     0.0000     0.0000     0.0000     0.0000     0.0000     0.0000     0.0000     0.0000 </r>
        <r>   -18.5915     0.0000     0.0000     0.0000     0.0000     0.0000     0.0000     0.0000     0.0000     0.0000 </r>
        <r>   -18.4829     0.0000     0.0000     0.0000     0.0000     0.0000     0.0000     0.0000     0.0000     0.0000 </r>
        <r>   -18.3742     0.0000     0.0000     0.0000     0.0000     0.0000     0.0000     0.0000     0.0000     0.0000 </r>
        <r>   -18.2655     0.0000     0.0000     0.0000     0.0000     0.0000     0.0000     0.0000     0.0000     0.0000 </r>
        <r>   -18.1569     0.0000     0.0000     0.0000     0.0000     0.0000     0.0000     0.0000     0.0000     0.0000 </r>
        <r>   -18.0482     0.0000     0.0000     0.0000     0.0000     0.0000     0.0000     0.0000     0.0000     0.0000 </r>
        <r>   -17.9396     0.0000     0.0000     0.0000     0.0000     0.0000     0.0000     0.0000     0.0000     0.0000 </r>
        <r>   -17.8309     0.0000     0.0000     0.0000     0.0000     0.0000     0.0000     0.0000     0.0000     0.0000 </r>
        <r>   -17.7223     0.0000     0.0000     0.0000     0.0000     0.0000     0.0000     0.0000     0.0000     0.0000 </r>
        <r>   -17.6136     0.0000     0.0000     0.0000     0.0000     0.0000     0.0000     0.0000     0.0000     0.0000 </r>
        <r>   -17.5049     0.0000     0.0000     0.0000     0.0000     0.0000     0.0000     0.0000     0.0000     0.0000 </r>
        <r>   -17.3963     0.0000     0.0000     0.0000     0.0000     0.0000     0.0000     0.0000     0.0000     0.0000 </r>
        <r>   -17.2876     0.0000     0.0000     0.0000     0.0000     0.0000     0.0000     0.0000     0.0000     0.0000 </r>
        <r>   -17.1790     0.0000     0.0000     0.0000     0.0000     0.0000     0.0000     0.0000     0.0000     0.0000 </r>
        <r>   -17.0703     0.0000     0.0000     0.0000     0.0000     0.0000     0.0000     0.0000     0.0000     0.0000 </r>
        <r>   -16.9617     0.0000     0.0000     0.0000     0.0000     0.0000     0.0000     0.0000     0.0000     0.0000 </r>
        <r>   -16.8530     0.0000     0.0000     0.0000     0.0000     0.0000     0.0000     0.0000     0.0000     0.0000 </r>
        <r>   -16.7444     0.0000     0.0000     0.0000     0.0000     0.0000     0.0000     0.0000     0.0000     0.0000 </r>
        <r>   -16.6357     0.0000     0.0000     0.0000     0.0000     0.0000     0.0000     0.0000     0.0000     0.0000 </r>
        <r>   -16.5270     0.0000     0.0000     0.0000     0.0000     0.0000     0.0000     0.0000     0.0000     0.0000 </r>
        <r>   -16.4184     0.0000     0.0000     0.0000     0.0000     0.0000     0.0000     0.0000     0.0000     0.0000 </r>
        <r>   -16.3097     0.0000     0.0000     0.0000     0.0000     0.0000     0.0000     0.0000     0.0000     0.0000 </r>
        <r>   -16.2011     0.0000     0.0000     0.0000     0.0000     0.0000     0.0000     0.0000     0.0000     0.0000 </r>
        <r>   -16.0924     0.0000     0.0000     0.0000     0.0000     0.0000     0.0000     0.0000     0.0000     0.0000 </r>
        <r>   -15.9838     0.0000     0.0000     0.0000     0.0000     0.0000     0.0000     0.0000     0.0000     0.0000 </r>
        <r>   -15.8751     0.0000     0.0000     0.0000     0.0000     0.0000     0.0000     0.0000     0.0000     0.0000 </r>
        <r>   -15.7664     0.0000     0.0000     0.0000     0.0000     0.0000     0.0000     0.0000     0.0000     0.0000 </r>
        <r>   -15.6578     0.0000     0.0000     0.0000     0.0000     0.0000     0.0000     0.0000     0.0000     0.0000 </r>
        <r>   -15.5491     0.0000     0.0000     0.0000     0.0000     0.0000     0.0000     0.0000     0.0000     0.0000 </r>
        <r>   -15.4405     0.0000     0.0000     0.0000     0.0000     0.0000     0.0000     0.0000     0.0000     0.0000 </r>
        <r>   -15.3318     0.0000     0.0000     0.0000     0.0000     0.0000     0.0000     0.0000     0.0000     0.0000 </r>
        <r>   -15.2232     0.0000     0.0000     0.0000     0.0000     0.0000     0.0000     0.0000     0.0000     0.0000 </r>
        <r>   -15.1145     0.0000     0.0000     0.0000     0.0000     0.0000     0.0000     0.0000     0.0000     0.0000 </r>
        <r>   -15.0058     0.0000     0.0000     0.0000     0.0000     0.0000     0.0000     0.0000     0.0000     0.0000 </r>
        <r>   -14.8972     0.0000     0.0000     0.0000     0.0000     0.0000     0.0000     0.0000     0.0000     0.0000 </r>
        <r>   -14.7885     0.0000     0.0000     0.0000     0.0000     0.0000     0.0000     0.0000     0.0000     0.0000 </r>
        <r>   -14.6799     0.0000     0.0000     0.0000     0.0000     0.0000     0.0000     0.0000     0.0000     0.0000 </r>
        <r>   -14.5712     0.0000     0.0000     0.0000     0.0000     0.0000     0.0000     0.0000     0.0000     0.0000 </r>
        <r>   -14.4626     0.0000     0.0000     0.0000     0.0000     0.0000     0.0000     0.0000     0.0000     0.0000 </r>
        <r>   -14.3539     0.0000     0.0000     0.0000     0.0000     0.0000     0.0000     0.0000     0.0000     0.0000 </r>
        <r>   -14.2453     0.0000     0.0000     0.0000     0.0000     0.0000     0.0000     0.0000     0.0000     0.0000 </r>
        <r>   -14.1366     0.0000     0.0000     0.0000     0.0000     0.0000     0.0000     0.0000     0.0000     0.0000 </r>
        <r>   -14.0279     0.0000     0.0000     0.0000     0.0000     0.0000     0.0000     0.0000     0.0000     0.0000 </r>
        <r>   -13.9193     0.0000     0.0000     0.0000     0.0000     0.0000     0.0000     0.0000     0.0000     0.0000 </r>
        <r>   -13.8106     0.0000     0.0000     0.0000     0.0000     0.0000     0.0000     0.0000     0.0000     0.0000 </r>
        <r>   -13.7020     0.0000     0.0000     0.0000     0.0000     0.0000     0.0000     0.0000     0.0000     0.0000 </r>
        <r>   -13.5933     0.0000     0.0000     0.0000     0.0000     0.0000     0.0000     0.0000     0.0000     0.0000 </r>
        <r>   -13.4847     0.0000     0.0000     0.0000     0.0000     0.0000     0.0000     0.0000     0.0000     0.0000 </r>
        <r>   -13.3760     0.0000     0.0000     0.0000     0.0000     0.0000     0.0000     0.0000     0.0000     0.0000 </r>
        <r>   -13.2673     0.0000     0.0000     0.0000     0.0000     0.0000     0.0000     0.0000     0.0000     0.0000 </r>
        <r>   -13.1587     0.0000     0.0000     0.0000     0.0000     0.0000     0.0000     0.0000     0.0000     0.0000 </r>
        <r>   -13.0500     0.0000     0.0000     0.0000     0.0000     0.0000     0.0000     0.0000     0.0000     0.0000 </r>
        <r>   -12.9414     0.0000     0.0000     0.0000     0.0000     0.0000     0.0000     0.0000     0.0000     0.0000 </r>
        <r>   -12.8327     0.0000     0.0000     0.0000     0.0000     0.0000     0.0000     0.0000     0.0000     0.0000 </r>
        <r>   -12.7241     0.0000     0.0000     0.0000     0.0000     0.0000     0.0000     0.0000     0.0000     0.0000 </r>
        <r>   -12.6154     0.0000     0.0000     0.0000     0.0000     0.0000     0.0000     0.0000     0.0000     0.0000 </r>
        <r>   -12.5068     0.0000     0.0000     0.0000     0.0000     0.0000     0.0000     0.0000     0.0000     0.0000 </r>
        <r>   -12.3981     0.0000     0.0000     0.0000     0.0000     0.0000     0.0000     0.0000     0.0000     0.0000 </r>
        <r>   -12.2894     0.0000     0.0000     0.0000     0.0000     0.0000     0.0000     0.0000     0.0000     0.0000 </r>
        <r>   -12.1808     0.0000     0.0000     0.0000     0.0000     0.0000     0.0000     0.0000     0.0000     0.0000 </r>
        <r>   -12.0721     0.0000     0.0000     0.0000     0.0000     0.0000     0.0000     0.0000     0.0000     0.0000 </r>
        <r>   -11.9635     0.0000     0.0000     0.0000     0.0000     0.0000     0.0000     0.0000     0.0000     0.0000 </r>
        <r>   -11.8548     0.0000     0.0000     0.0000     0.0000     0.0000     0.0000     0.0000     0.0000     0.0000 </r>
        <r>   -11.7462     0.0000     0.0000     0.0000     0.0000     0.0000     0.0000     0.0000     0.0000     0.0000 </r>
        <r>   -11.6375     0.0000     0.0000     0.0000     0.0000     0.0000     0.0000     0.0000     0.0000     0.0000 </r>
        <r>   -11.5288     0.0000     0.0000     0.0000     0.0000     0.0000     0.0000     0.0000     0.0000     0.0000 </r>
        <r>   -11.4202     0.0000     0.0000     0.0000     0.0000     0.0000     0.0000     0.0000     0.0000     0.0000 </r>
        <r>   -11.3115     0.0000     0.0000     0.0000     0.0000     0.0000     0.0000     0.0000     0.0000     0.0000 </r>
        <r>   -11.2029     0.0000     0.0000     0.0000     0.0000     0.0000     0.0000     0.0000     0.0000     0.0000 </r>
        <r>   -11.0942     0.0000     0.0000     0.0000     0.0000     0.0000     0.0000     0.0000     0.0000     0.0000 </r>
        <r>   -10.9856     0.0000     0.0000     0.0000     0.0000     0.0000     0.0000     0.0000     0.0000     0.0000 </r>
        <r>   -10.8769     0.0000     0.0000     0.0000     0.0000     0.0000     0.0000     0.0000     0.0000     0.0000 </r>
        <r>   -10.7683     0.0000     0.0000     0.0000     0.0000     0.0000     0.0000     0.0000     0.0000     0.0000 </r>
        <r>   -10.6596     0.0000     0.0000     0.0000     0.0000     0.0000     0.0000     0.0000     0.0000     0.0000 </r>
        <r>   -10.5509     0.0000     0.0000     0.0000     0.0000     0.0000     0.0000     0.0000     0.0000     0.0000 </r>
        <r>   -10.4423     0.0000     0.0000     0.0000     0.0000     0.0000     0.0000     0.0000     0.0000     0.0000 </r>
        <r>   -10.3336     0.0000     0.0000     0.0000     0.0000     0.0000     0.0000     0.0000     0.0000     0.0000 </r>
        <r>   -10.2250     0.0000     0.0000     0.0000     0.0000     0.0000     0.0000     0.0000     0.0000     0.0000 </r>
        <r>   -10.1163     0.0000     0.0000     0.0000     0.0000     0.0000     0.0000     0.0000     0.0000     0.0000 </r>
        <r>   -10.0077     0.0000     0.0000     0.0000     0.0000     0.0000     0.0000     0.0000     0.0000     0.0000 </r>
        <r>    -9.8990     0.0000     0.0000     0.0000     0.0000     0.0000     0.0000     0.0000     0.0000     0.0000 </r>
        <r>    -9.7903     0.0000     0.0000     0.0000     0.0000     0.0000     0.0000     0.0000     0.0000     0.0000 </r>
        <r>    -9.6817     0.0000     0.0000     0.0000     0.0000     0.0000     0.0000     0.0000     0.0000     0.0000 </r>
        <r>    -9.5730     0.0000     0.0000     0.0000     0.0000     0.0000     0.0000     0.0000     0.0000     0.0000 </r>
        <r>    -9.4644     0.0000     0.0000     0.0000     0.0000     0.0000     0.0000     0.0000     0.0000     0.0000 </r>
        <r>    -9.3557     0.0000     0.0000     0.0000     0.0000     0.0000     0.0000     0.0000     0.0000     0.0000 </r>
        <r>    -9.2471     0.0000     0.0000     0.0000     0.0000     0.0000     0.0000     0.0000     0.0000     0.0000 </r>
        <r>    -9.1384     0.0000     0.1551     0.1551     0.1551     0.0000     0.0000     0.0000     0.0000     0.0000 </r>
        <r>    -9.0298     0.0000     5.7669     5.7668     5.7672     0.0000     0.0000     0.0000     0.0000     0.0000 </r>
        <r>    -8.9211     0.0000     0.9869     0.9868     0.9870     0.0000     0.0000     0.0000     0.0000     0.0000 </r>
        <r>    -8.8124     0.0000     0.0001     0.0001     0.0001     0.0000     0.0000     0.0000     0.0000     0.0000 </r>
        <r>    -8.7038     0.0000     0.0000     0.0000     0.0000     0.0000     0.0000     0.0000     0.0000     0.0000 </r>
        <r>    -8.5951     0.0000     0.0000     0.0000     0.0000     0.0000     0.0000     0.0000     0.0000     0.0000 </r>
        <r>    -8.4865     0.0000     0.0000     0.0000     0.0000     0.0000     0.0000     0.0000     0.0000     0.0000 </r>
        <r>    -8.3778     0.0000     0.0000     0.0000     0.0000     0.0000     0.0000     0.0000     0.0000     0.0000 </r>
        <r>    -8.2692     0.0000     0.0000     0.0000     0.0000     0.0000     0.0000     0.0000     0.0000     0.0000 </r>
        <r>    -8.1605     0.0000     0.0000     0.0000     0.0000     0.0000     0.0000     0.0000     0.0000     0.0000 </r>
        <r>    -8.0518     0.0000     0.0000     0.0000     0.0000     0.0000     0.0000     0.0000     0.0000     0.0000 </r>
        <r>    -7.9432     0.0000     0.0000     0.0000     0.0000     0.0000     0.0000     0.0000     0.0000     0.0000 </r>
        <r>    -7.8345     0.0000     0.0000     0.0000     0.0000     0.0000     0.0000     0.0000     0.0000     0.0000 </r>
        <r>    -7.7259     0.0000     0.0000     0.0000     0.0000     0.0000     0.0000     0.0000     0.0000     0.0000 </r>
        <r>    -7.6172     0.0000     0.0000     0.0000     0.0000     0.0000     0.0000     0.0000     0.0000     0.0000 </r>
        <r>    -7.5086     0.0000     0.0000     0.0000     0.0000     0.0000     0.0000     0.0000     0.0000     0.0000 </r>
        <r>    -7.3999     0.0000     0.0000     0.0000     0.0000     0.0000     0.0000     0.0000     0.0000     0.0000 </r>
        <r>    -7.2912     0.0000     0.0000     0.0000     0.0000     0.0000     0.0000     0.0000     0.0000     0.0000 </r>
        <r>    -7.1826     0.0000     0.0000     0.0000     0.0000     0.0000     0.0000     0.0000     0.0000     0.0000 </r>
        <r>    -7.0739     0.0000     0.0000     0.0000     0.0000     0.0000     0.0000     0.0000     0.0000     0.0000 </r>
        <r>    -6.9653     0.0000     0.0000     0.0000     0.0000     0.0000     0.0000     0.0000     0.0000     0.0000 </r>
        <r>    -6.8566     0.0000     0.0000     0.0000     0.0000     0.0000     0.0000     0.0000     0.0000     0.0000 </r>
        <r>    -6.7480     0.0000     0.0000     0.0000     0.0000     0.0000     0.0000     0.0000     0.0000     0.0000 </r>
        <r>    -6.6393     0.0000     0.0000     0.0000     0.0000     0.0000     0.0000     0.0000     0.0000     0.0000 </r>
        <r>    -6.5307     0.0000     0.0000     0.0000     0.0000     0.0000     0.0000     0.0000     0.0000     0.0000 </r>
        <r>    -6.4220     0.0000     0.0000     0.0000     0.0000     0.0000     0.0000     0.0000     0.0000     0.0000 </r>
        <r>    -6.3133     0.0000     0.0000     0.0000     0.0000     0.0000     0.0000     0.0000     0.0000     0.0000 </r>
        <r>    -6.2047     0.0000     0.0000     0.0000     0.0000     0.0000     0.0000     0.0000     0.0000     0.0000 </r>
        <r>    -6.0960     0.0000     0.0000     0.0000     0.0000     0.0000     0.0000     0.0000     0.0000     0.0000 </r>
        <r>    -5.9874     0.0000     0.0000     0.0000     0.0000     0.0000     0.0000     0.0000     0.0000     0.0000 </r>
        <r>    -5.8787     0.0000     0.0000     0.0000     0.0000     0.0000     0.0000     0.0000     0.0000     0.0000 </r>
        <r>    -5.7701     0.0000     0.0000     0.0000     0.0000     0.0000     0.0000     0.0000     0.0000     0.0000 </r>
        <r>    -5.6614     0.0000     0.0000     0.0000     0.0000     0.0000     0.0000     0.0000     0.0000     0.0000 </r>
        <r>    -5.5527     0.0000     0.0000     0.0000     0.0000     0.0000     0.0000     0.0000     0.0000     0.0000 </r>
        <r>    -5.4441     0.0000     0.0000     0.0000     0.0000     0.0000     0.0000     0.0000     0.0000     0.0000 </r>
        <r>    -5.3354     0.0000     0.0000     0.0000     0.0000     0.0000     0.0000     0.0000     0.0000     0.0000 </r>
        <r>    -5.2268     0.0000     0.0000     0.0000     0.0000     0.0000     0.0000     0.0000     0.0000     0.0000 </r>
        <r>    -5.1181     0.0000     0.0000     0.0000     0.0000     0.0000     0.0000     0.0000     0.0000     0.0000 </r>
        <r>    -5.0095     0.0000     0.0000     0.0000     0.0000     0.0000     0.0000     0.0000     0.0000     0.0000 </r>
        <r>    -4.9008     0.0000     0.0000     0.0000     0.0000     0.0000     0.0000     0.0000     0.0000     0.0000 </r>
        <r>    -4.7922     0.0000     0.0000     0.0000     0.0000     0.0000     0.0000     0.0000     0.0000     0.0000 </r>
        <r>    -4.6835     0.0000     0.0000     0.0000     0.0000     0.0000     0.0000     0.0000     0.0000     0.0000 </r>
        <r>    -4.5748     0.0000     0.0000     0.0000     0.0000     0.0000     0.0000     0.0000     0.0000     0.0000 </r>
        <r>    -4.4662     0.0000     0.0000     0.0000     0.0000     0.0000     0.0000     0.0000     0.0000     0.0000 </r>
[...]
        <r>     3.3571     0.0000     0.0000     0.0000     0.0000     0.0000     0.0000     0.0000     0.0000     0.0000 </r>
        <r>     3.4657     0.0000     0.0000     0.0000     0.0000     0.0000     0.0000     0.0000     0.0000     0.0000 </r>
        <r>     3.5744     0.0000     0.0000     0.0000     0.0000     0.0000     0.0000     0.0000     0.0000     0.0000 </r>
        <r>     3.6830     0.0000     0.0000     0.0000     0.0000     0.0000     0.0000     0.0000     0.0000     0.0000 </r>
        <r>     3.7917     0.0000     0.0000     0.0000     0.0000     0.0000     0.0000     0.0000     0.0000     0.0000 </r>
        <r>     3.9004     0.0000     0.0000     0.0000     0.0000     0.0000     0.0000     0.0000     0.0000     0.0000 </r>
        <r>     4.0090     0.0001     0.0004     0.0004     0.0005     0.0000     0.0000     0.0000     0.0000     0.0000 </r>
        <r>     4.1177     0.0000     0.0000     0.0000     0.0000     0.0000     0.0000     0.0000     0.0000     0.0000 </r>
        <r>     4.2263     0.0000     0.0000     0.0000     0.0000     0.0000     0.0000     0.0000     0.0000     0.0000 </r>
        <r>     4.3350     0.0015     0.0222     0.0160     0.0230     0.0000     0.0000     0.0000     0.0000     0.0000 </r>
        <r>     4.4436     0.0028     0.0716     0.0494     0.0518     0.0000     0.0000     0.0000     0.0000     0.0000 </r>
        <r>     4.5523     0.0270     0.0060     0.0759     0.0472     0.0000     0.0000     0.0000     0.0000     0.0000 </r>
        <r>     4.6609     0.0301     0.0019     0.0050     0.0048     0.0000     0.0000     0.0000     0.0000     0.0000 </r>
        <r>     4.7696     0.0001     0.0000     0.0000     0.0000     0.0000     0.0000     0.0000     0.0000     0.0000 </r>
        <r>     4.8783     0.0000     0.0000     0.0000     0.0000     0.0000     0.0000     0.0000     0.0000     0.0000 </r>
        <r>     4.9869     0.0000     0.0000     0.0000     0.0000     0.0000     0.0000     0.0000     0.0000     0.0000 </r>
        <r>     5.0956     0.0000     0.0000     0.0000     0.0000     0.0000     0.0000     0.0000     0.0000     0.0000 </r>
        <r>     5.2042     0.0000     0.0000     0.0000     0.0000     0.0000     0.0000     0.0000     0.0000     0.0000 </r>
        <r>     5.3129     0.0000     0.0000     0.0000     0.0000     0.0000     0.0000     0.0000     0.0000     0.0000 </r>
        <r>     5.4215     0.0000     0.0000     0.0000     0.0000     0.0000     0.0000     0.0000     0.0000     0.0000 </r>
        <r>     5.5302     0.0000     0.0000     0.0000     0.0000     0.0000     0.0000     0.0000     0.0000     0.0000 </r>
        <r>     5.6389     0.0000     0.0000     0.0000     0.0000     0.0000     0.0000     0.0000     0.0000     0.0000 </r>
        <r>     5.7475     0.0002     0.0000     0.0001     0.0002     0.0000     0.0000     0.0000     0.0000     0.0000 </r>
        <r>     5.8562     0.0144     0.0015     0.0054     0.0152     0.0000     0.0000     0.0000     0.0000     0.0000 </r>
        <r>     5.9648     0.0038     0.0006     0.0015     0.0039     0.0000     0.0000     0.0000     0.0000     0.0000 </r>
        <r>     6.0735     0.0086     0.0132     0.0081     0.0008     0.0000     0.0000     0.0000     0.0000     0.0000 </r>
        <r>     6.1821     0.0022     0.0034     0.0021     0.0002     0.0000     0.0000     0.0000     0.0000     0.0000 </r>
        <r>     6.2908     0.0000     0.0000     0.0000     0.0000     0.0000     0.0000     0.0000     0.0000     0.0000 </r>
        <r>     6.3994     0.0000     0.0000     0.0114     0.0003     0.0000     0.0000     0.0000     0.0000     0.0000 </r>
        <r>     6.5081     0.0000     0.0000     0.0096     0.0003     0.0000     0.0000     0.0000     0.0000     0.0000 </r>
        <r>     6.6168     0.0000     0.0000     0.0000     0.0000     0.0000     0.0000     0.0000     0.0000     0.0000 </r>
        <r>     6.7254     0.0000     0.0000     0.0000     0.0000     0.0000     0.0000     0.0000     0.0000     0.0000 </r>
        <r>     6.8341     0.0000     0.0000     0.0000     0.0000     0.0000     0.0000     0.0000     0.0000     0.0000 </r>
        <r>     6.9427     0.0000     0.0000     0.0000     0.0000     0.0000     0.0000     0.0000     0.0000     0.0000 </r>
        <r>     7.0514     0.0000     0.0000     0.0000     0.0000     0.0000     0.0000     0.0000     0.0000     0.0000 </r>
        <r>     7.1600     0.0000     0.0000     0.0000     0.0000     0.0000     0.0000     0.0000     0.0000     0.0000 </r>
        <r>     7.2687     0.0000     0.0000     0.0000     0.0000     0.0000     0.0000     0.0000     0.0000     0.0000 </r>
        <r>     7.3774     0.0000     0.0000     0.0000     0.0000     0.0000     0.0000     0.0000     0.0000     0.0000 </r>
        <r>     7.4860     0.0000     0.0000     0.0000     0.0000     0.0000     0.0000     0.0000     0.0000     0.0000 </r>
        <r>     7.5947     0.0000     0.0000     0.0000     0.0000     0.0000     0.0000     0.0000     0.0000     0.0000 </r>
        <r>     7.7033     0.0000     0.0000     0.0000     0.0000     0.0000     0.0000     0.0000     0.0000     0.0000 </r>
        <r>     7.8120     0.0000     0.0000     0.0000     0.0000     0.0000     0.0000     0.0000     0.0000     0.0000 </r>
        <r>     7.9206     0.0000     0.0000     0.0000     0.0000     0.0000     0.0000     0.0000     0.0000     0.0000 </r>
        <r>     8.0293     0.0000     0.0000     0.0000     0.0000     0.0000     0.0000     0.0000     0.0000     0.0000 </r>
        <r>     8.1379     0.0000     0.0000     0.0000     0.0000     0.0000     0.0000     0.0000     0.0000     0.0000 </r>
        <r>     8.2466     0.0000     0.0000     0.0000     0.0000     0.0000     0.0000     0.0000     0.0000     0.0000 </r>
       </set>
      </set>
     </set>
    </array>
   </partial>
  </dos>
  <projected>
   <eigenvalues>
    <array>
     <dimension dim="1">band</dimension>
     <dimension dim="2">kpoint</dimension>
     <dimension dim="3">spin</dimension>
     <field>eigene</field>
     <field>occ</field>
     <set>
      <set comment="spin 1">
       <set comment="kpoint 1">
        <r>  -22.8686    1.0000 </r>
        <r>   -9.0675    1.0000 </r>
        <r>   -9.0675    1.0000 </r>
        <r>   -9.0675    1.0000 </r>
        <r>   -0.4870    0.0000 </r>
        <r>    1.0863    0.0000 </r>
        <r>    1.1894    0.0000 </r>
        <r>    1.1935    0.0000 </r>
        <r>    1.2077    0.0000 </r>
        <r>    1.2556    0.0000 </r>
        <r>    1.2737    0.0000 </r>
        <r>    2.2705    0.0000 </r>
        <r>    2.2723    0.0000 </r>
        <r>    2.2752    0.0000 </r>
        <r>    2.7514    0.0000 </r>
        <r>    2.7594    0.0000 </r>
        <r>    2.7621    0.0000 </r>
        <r>    2.7668    0.0000 </r>
        <r>    2.7826    0.0000 </r>
        <r>    2.8325    0.0000 </r>
        <r>    2.8688    0.0000 </r>
        <r>    2.8795    0.0000 </r>
        <r>    2.9063    0.0000 </r>
        <r>    3.9522    0.0000 </r>
        <r>    3.9557    0.0000 </r>
        <r>    3.9619    0.0000 </r>
        <r>    4.2946    0.0000 </r>
        <r>    4.3879    0.0000 </r>
        <r>    4.4096    0.0000 </r>
        <r>    4.4208    0.0000 </r>
        <r>    4.4257    0.0000 </r>
        <r>    4.5319    0.0000 </r>
        <r>    4.7906    0.0000 </r>
        <r>    5.8101    0.0000 </r>
        <r>    5.8652    0.0000 </r>
        <r>    6.7649    0.0000 </r>
       </set>
      </set>
      <set comment="spin 2">
       <set comment="kpoint 1">
        <r>  -22.8685    1.0000 </r>
        <r>   -9.0675    1.0000 </r>
        <r>   -9.0675    1.0000 </r>
        <r>   -9.0675    1.0000 </r>
        <r>   -0.4871    0.0000 </r>
        <r>    1.0862    0.0000 </r>
        <r>    1.1898    0.0000 </r>
        <r>    1.1963    0.0000 </r>
        <r>    1.2010    0.0000 </r>
        <r>    1.2668    0.0000 </r>
        <r>    1.2702    0.0000 </r>
        <r>    2.2709    0.0000 </r>
        <r>    2.2714    0.0000 </r>
        <r>    2.2723    0.0000 </r>
        <r>    2.7191    0.0000 </r>
        <r>    2.7373    0.0000 </r>
        <r>    2.7486    0.0000 </r>
        <r>    2.7572    0.0000 </r>
        <r>    2.7580    0.0000 </r>
        <r>    2.8631    0.0000 </r>
        <r>    2.8896    0.0000 </r>
        <r>    2.9028    0.0000 </r>
        <r>    2.9213    0.0000 </r>
        <r>    3.9540    0.0000 </r>
        <r>    3.9579    0.0000 </r>
        <r>    3.9583    0.0000 </r>
        <r>    4.3397    0.0000 </r>
        <r>    4.3478    0.0000 </r>
        <r>    4.3611    0.0000 </r>
        <r>    4.3934    0.0000 </r>
        <r>    4.4229    0.0000 </r>
        <r>    4.4970    0.0000 </r>
        <r>    4.5555    0.0000 </r>
        <r>    5.8264    0.0000 </r>
        <r>    6.0439    0.0000 </r>
        <r>    6.3955    0.0000 </r>
       </set>
      </set>
     </set>
    </array>
   </eigenvalues>
   <array>
    <dimension dim="1">ion</dimension>
    <dimension dim="2">band</dimension>
    <dimension dim="3">kpoint</dimension>
    <dimension dim="4">spin</dimension>
    <field>    s</field>
    <field>   py</field>
    <field>   pz</field>
    <field>   px</field>
    <field>  dxy</field>
    <field>  dyz</field>
    <field>  dz2</field>
    <field>  dxz</field>
    <field>x2-y2</field>
    <set>
     <set comment="spin1">
      <set comment="kpoint 1">
       <set comment="band 1">
        <r>  0.9052  0.0000  0.0000  0.0000  0.0000  0.0000  0.0000  0.0000  0.0000 </r>
       </set>
       <set comment="band 2">
        <r>  0.0000  0.7191  0.0255  0.0061  0.0000  0.0000  0.0000  0.0000  0.0000 </r>
       </set>
       <set comment="band 3">
        <r>  0.0000  0.0248  0.7249  0.0010  0.0000  0.0000  0.0000  0.0000  0.0000 </r>
       </set>
       <set comment="band 4">
        <r>  0.0000  0.0068  0.0003  0.7436  0.0000  0.0000  0.0000  0.0000  0.0000 </r>
       </set>
       <set comment="band 5">
        <r>  0.0154  0.0000  0.0000  0.0000  0.0000  0.0000  0.0000  0.0000  0.0000 </r>
       </set>
       <set comment="band 6">
        <r>  0.0156  0.0000  0.0000  0.0001  0.0000  0.0000  0.0000  0.0000  0.0000 </r>
       </set>
       <set comment="band 7">
        <r>  0.0000  0.0091  0.0155  0.0039  0.0000  0.0000  0.0000  0.0000  0.0000 </r>
       </set>
       <set comment="band 8">
        <r>  0.0000  0.0100  0.0127  0.0066  0.0000  0.0000  0.0000  0.0000  0.0000 </r>
       </set>
       <set comment="band 9">
        <r>  0.0000  0.0084  0.0001  0.0139  0.0000  0.0000  0.0000  0.0000  0.0000 </r>
       </set>
       <set comment="band 10">
        <r>  0.0000  0.0014  0.0000  0.0053  0.0000  0.0000  0.0000  0.0000  0.0000 </r>
       </set>
       <set comment="band 11">
        <r>  0.0000  0.0000  0.0001  0.0002  0.0000  0.0000  0.0000  0.0000  0.0000 </r>
       </set>
       <set comment="band 12">
        <r>  0.0000  0.0000  0.0000  0.0000  0.0000  0.0000  0.0000  0.0000  0.0000 </r>
       </set>
       <set comment="band 13">
        <r>  0.0000  0.0000  0.0000  0.0000  0.0000  0.0000  0.0000  0.0000  0.0000 </r>
       </set>
       <set comment="band 14">
        <r>  0.0000  0.0000  0.0001  0.0001  0.0000  0.0000  0.0000  0.0000  0.0000 </r>
       </set>
       <set comment="band 15">
        <r>  0.0000  0.0016  0.0015  0.0245  0.0000  0.0000  0.0000  0.0000  0.0000 </r>
       </set>
       <set comment="band 16">
        <r>  0.0000  0.0000  0.0001  0.0001  0.0000  0.0000  0.0000  0.0000  0.0000 </r>
       </set>
       <set comment="band 17">
        <r>  0.0001  0.0000  0.0000  0.0000  0.0000  0.0000  0.0000  0.0000  0.0000 </r>
       </set>
       <set comment="band 18">
        <r>  0.0032  0.0195  0.0059  0.0012  0.0000  0.0000  0.0000  0.0000  0.0000 </r>
       </set>
       <set comment="band 19">
        <r>  0.0000  0.0036  0.0183  0.0015  0.0000  0.0000  0.0000  0.0000  0.0000 </r>
       </set>
       <set comment="band 20">
        <r>  0.0001  0.0067  0.0037  0.0040  0.0000  0.0000  0.0000  0.0000  0.0000 </r>
       </set>
       <set comment="band 21">
        <r>  0.0001  0.0027  0.0019  0.0031  0.0000  0.0000  0.0000  0.0000  0.0000 </r>
       </set>
       <set comment="band 22">
        <r>  0.0109  0.0036  0.0030  0.0005  0.0000  0.0000  0.0000  0.0000  0.0000 </r>
       </set>
       <set comment="band 23">
        <r>  0.0000  0.0001  0.0033  0.0008  0.0000  0.0000  0.0000  0.0000  0.0000 </r>
       </set>
       <set comment="band 24">
        <r>  0.0000  0.0001  0.0000  0.0000  0.0000  0.0000  0.0000  0.0000  0.0000 </r>
       </set>
       <set comment="band 25">
        <r>  0.0000  0.0000  0.0000  0.0000  0.0000  0.0000  0.0000  0.0000  0.0000 </r>
       </set>
       <set comment="band 26">
        <r>  0.0000  0.0000  0.0000  0.0000  0.0000  0.0000  0.0000  0.0000  0.0000 </r>
       </set>
       <set comment="band 27">
        <r>  0.0000  0.0000  0.0001  0.0052  0.0000  0.0000  0.0000  0.0000  0.0000 </r>
       </set>
       <set comment="band 28">
        <r>  0.0002  0.0046  0.0061  0.0005  0.0000  0.0000  0.0000  0.0000  0.0000 </r>
       </set>
       <set comment="band 29">
        <r>  0.0005  0.0049  0.0001  0.0025  0.0000  0.0000  0.0000  0.0000  0.0000 </r>
       </set>
       <set comment="band 30">
        <r>  0.0004  0.0003  0.0008  0.0011  0.0000  0.0000  0.0000  0.0000  0.0000 </r>
       </set>
       <set comment="band 31">
        <r>  0.0005  0.0000  0.0006  0.0000  0.0000  0.0000  0.0000  0.0000  0.0000 </r>
       </set>
       <set comment="band 32">
        <r>  0.0052  0.0000  0.0007  0.0005  0.0000  0.0000  0.0000  0.0000  0.0000 </r>
       </set>
       <set comment="band 33">
        <r>  0.0002  0.0018  0.0032  0.0030  0.0000  0.0000  0.0000  0.0000  0.0000 </r>
       </set>
       <set comment="band 34">
        <r>  0.0007  0.0002  0.0000  0.0004  0.0000  0.0000  0.0000  0.0000  0.0000 </r>
       </set>
       <set comment="band 35">
        <r>  0.0021  0.0004  0.0000  0.0005  0.0000  0.0000  0.0000  0.0000  0.0000 </r>
       </set>
       <set comment="band 36">
        <r>  0.0007  0.0008  0.0002  0.0001  0.0000  0.0000  0.0000  0.0000  0.0000 </r>
       </set>
      </set>
     </set>
     <set comment="spin2">
      <set comment="kpoint 1">
       <set comment="band 1">
        <r>  0.9052  0.0000  0.0000  0.0000  0.0000  0.0000  0.0000  0.0000  0.0000 </r>
       </set>
       <set comment="band 2">
        <r>  0.0000  0.0091  0.0523  0.6893  0.0000  0.0000  0.0000  0.0000  0.0000 </r>
       </set>
       <set comment="band 3">
        <r>  0.0000  0.2295  0.4625  0.0587  0.0000  0.0000  0.0000  0.0000  0.0000 </r>
       </set>
       <set comment="band 4">
        <r>  0.0000  0.5121  0.2359  0.0027  0.0000  0.0000  0.0000  0.0000  0.0000 </r>
       </set>
       <set comment="band 5">
        <r>  0.0153  0.0000  0.0000  0.0000  0.0000  0.0000  0.0000  0.0000  0.0000 </r>
       </set>
       <set comment="band 6">
        <r>  0.0156  0.0000  0.0000  0.0000  0.0000  0.0000  0.0000  0.0000  0.0000 </r>
       </set>
       <set comment="band 7">
        <r>  0.0000  0.0011  0.0126  0.0147  0.0000  0.0000  0.0000  0.0000  0.0000 </r>
       </set>
       <set comment="band 8">
        <r>  0.0000  0.0007  0.0142  0.0119  0.0000  0.0000  0.0000  0.0000  0.0000 </r>
       </set>
       <set comment="band 9">
        <r>  0.0000  0.0236  0.0000  0.0010  0.0000  0.0000  0.0000  0.0000  0.0000 </r>
       </set>
       <set comment="band 10">
        <r>  0.0000  0.0022  0.0000  0.0004  0.0000  0.0000  0.0000  0.0000  0.0000 </r>
       </set>
       <set comment="band 11">
        <r>  0.0000  0.0008  0.0002  0.0005  0.0000  0.0000  0.0000  0.0000  0.0000 </r>
       </set>
       <set comment="band 12">
        <r>  0.0000  0.0000  0.0000  0.0000  0.0000  0.0000  0.0000  0.0000  0.0000 </r>
       </set>
       <set comment="band 13">
        <r>  0.0000  0.0000  0.0000  0.0000  0.0000  0.0000  0.0000  0.0000  0.0000 </r>
       </set>
       <set comment="band 14">
        <r>  0.0000  0.0000  0.0000  0.0000  0.0000  0.0000  0.0000  0.0000  0.0000 </r>
       </set>
       <set comment="band 15">
        <r>  0.0000  0.0285  0.0008  0.0056  0.0000  0.0000  0.0000  0.0000  0.0000 </r>
       </set>
       <set comment="band 16">
        <r>  0.0010  0.0038  0.0005  0.0267  0.0000  0.0000  0.0000  0.0000  0.0000 </r>
       </set>
       <set comment="band 17">
        <r>  0.0002  0.0039  0.0250  0.0004  0.0000  0.0000  0.0000  0.0000  0.0000 </r>
       </set>
       <set comment="band 18">
        <r>  0.0000  0.0010  0.0002  0.0000  0.0000  0.0000  0.0000  0.0000  0.0000 </r>
       </set>
       <set comment="band 19">
        <r>  0.0000  0.0000  0.0000  0.0003  0.0000  0.0000  0.0000  0.0000  0.0000 </r>
       </set>
       <set comment="band 20">
        <r>  0.0001  0.0006  0.0081  0.0008  0.0000  0.0000  0.0000  0.0000  0.0000 </r>
       </set>
       <set comment="band 21">
        <r>  0.0000  0.0003  0.0019  0.0019  0.0000  0.0000  0.0000  0.0000  0.0000 </r>
       </set>
       <set comment="band 22">
        <r>  0.0131  0.0002  0.0011  0.0019  0.0000  0.0000  0.0000  0.0000  0.0000 </r>
       </set>
       <set comment="band 23">
        <r>  0.0000  0.0002  0.0001  0.0001  0.0000  0.0000  0.0000  0.0000  0.0000 </r>
       </set>
       <set comment="band 24">
        <r>  0.0000  0.0000  0.0000  0.0000  0.0000  0.0000  0.0000  0.0000  0.0000 </r>
       </set>
       <set comment="band 25">
        <r>  0.0000  0.0001  0.0000  0.0001  0.0000  0.0000  0.0000  0.0000  0.0000 </r>
       </set>
       <set comment="band 26">
        <r>  0.0000  0.0000  0.0000  0.0000  0.0000  0.0000  0.0000  0.0000  0.0000 </r>
       </set>
       <set comment="band 27">
        <r>  0.0002  0.0043  0.0007  0.0009  0.0000  0.0000  0.0000  0.0000  0.0000 </r>
       </set>
       <set comment="band 28">
        <r>  0.0002  0.0003  0.0036  0.0058  0.0000  0.0000  0.0000  0.0000  0.0000 </r>
       </set>
       <set comment="band 29">
        <r>  0.0000  0.0006  0.0002  0.0000  0.0000  0.0000  0.0000  0.0000  0.0000 </r>
       </set>
       <set comment="band 30">
        <r>  0.0001  0.0055  0.0021  0.0009  0.0000  0.0000  0.0000  0.0000  0.0000 </r>
       </set>
       <set comment="band 31">
        <r>  0.0000  0.0000  0.0002  0.0004  0.0000  0.0000  0.0000  0.0000  0.0000 </r>
       </set>
       <set comment="band 32">
        <r>  0.0001  0.0000  0.0092  0.0054  0.0000  0.0000  0.0000  0.0000  0.0000 </r>
       </set>
       <set comment="band 33">
        <r>  0.0061  0.0004  0.0000  0.0004  0.0000  0.0000  0.0000  0.0000  0.0000 </r>
       </set>
       <set comment="band 34">
        <r>  0.0020  0.0002  0.0007  0.0021  0.0000  0.0000  0.0000  0.0000  0.0000 </r>
       </set>
       <set comment="band 35">
        <r>  0.0012  0.0018  0.0011  0.0001  0.0000  0.0000  0.0000  0.0000  0.0000 </r>
       </set>
       <set comment="band 36">
        <r>  0.0000  0.0000  0.0023  0.0001  0.0000  0.0000  0.0000  0.0000  0.0000 </r>
       </set>
      </set>
     </set>
    </set>
   </array>
  </projected>
 </calculation>
 <structure name="finalpos" >
  <crystal>
   <varray name="basis" >
    <v>      10.00000000       0.00000000       0.00000000 </v>
    <v>       0.00000000      10.00000000       0.00000000 </v>
    <v>       0.00000000       0.00000000      10.00000000 </v>
   </varray>
   <i name="volume">   1000.00000000 </i>
   <varray name="rec_basis" >
    <v>       0.10000000       0.00000000       0.00000000 </v>
    <v>       0.00000000       0.10000000       0.00000000 </v>
    <v>       0.00000000       0.00000000       0.10000000 </v>
   </varray>
  </crystal>
  <varray name="positions" >
   <v>       0.50000000       0.50000000       0.50000000 </v>
  </varray>
 </structure>
</modeling>
