<?xml version="1.0" encoding="ISO-8859-1"?>
<modeling>
 <generator>
  <i name="program" type="string">vasp </i>
  <i name="version" type="string">5.4.4.18Apr17-6-g9f103f2a35  </i>
  <i name="subversion" type="string">(build Apr 25 2017 10:43:04) complex            parallel </i>
  <i name="platform" type="string">LinuxIFC </i>
  <i name="date" type="string">2019 08 28 </i>
  <i name="time" type="string">17:00:13 </i>
 </generator>
 <incar>
  <i type="string" name="PREC">n</i>
  <i type="string" name="ALGO">  Normal</i>
  <i type="int" name="NELM">   100</i>
  <i type="int" name="NELMIN">     2</i>
  <i type="int" name="IBRION">     2</i>
  <i name="EDIFF">      0.00000100</i>
  <i name="EDIFFG">     -0.00300000</i>
  <i type="int" name="NSW">    50</i>
  <i type="int" name="ISIF">     3</i>
  <i name="ENCUT">    520.00000000</i>
  <i type="logical" name="LREAL"> F  </i>
  <i type="int" name="ISMEAR">     0</i>
  <i name="SIGMA">      0.10000000</i>
  <i type="logical" name="LWAVE"> T  </i>
  <i type="logical" name="LCHARG"> F  </i>
  <i type="logical" name="LASPH"> T  </i>
  <v type="int" name="KPOINT_BSE">    -1     0     0     0</v>
  <i type="int" name="NELM">   100</i>
  <i type="string" name="GGA">  Ps</i>
  <i type="logical" name="LASPH"> T  </i>
 </incar>
 <structure name="primitive_cell" >
  <crystal>
   <varray name="basis" >
    <v>       0.00000000       2.10486402       2.10486402 </v>
    <v>       2.10486402       0.00000000       2.10486402 </v>
    <v>       2.10486402       2.10486402       0.00000000 </v>
   </varray>
   <i name="volume">     18.65100018 </i>
   <varray name="rec_basis" >
    <v>      -0.23754504       0.23754504       0.23754504 </v>
    <v>       0.23754504      -0.23754504       0.23754504 </v>
    <v>       0.23754504       0.23754504      -0.23754504 </v>
   </varray>
  </crystal>
  <varray name="positions" >
   <v>       0.00000000       0.00000000       0.00000000 </v>
   <v>      -0.50000000      -0.50000000      -0.50000000 </v>
  </varray>
 </structure>
 <varray name="primitive_index" >
  <v type="int" >        1 </v>
  <v type="int" >        2 </v>
 </varray>
 <kpoints>
  <generation param="Gamma">
   <v type="int" name="divisions">       8        8        8 </v>
   <v name="usershift">      0.00000000       0.00000000       0.00000000 </v>
   <v name="genvec1">      0.12500000       0.00000000       0.00000000 </v>
   <v name="genvec2">      0.00000000       0.12500000       0.00000000 </v>
   <v name="genvec3">      0.00000000       0.00000000       0.12500000 </v>
   <v name="shift">      0.00000000       0.00000000       0.00000000 </v>
  </generation>
  <varray name="kpointlist" >
   <v>       0.00000000       0.00000000       0.00000000 </v>
   <v>       0.12500000       0.00000000       0.00000000 </v>
   <v>       0.25000000       0.00000000       0.00000000 </v>
   <v>       0.37500000       0.00000000       0.00000000 </v>
   <v>       0.50000000       0.00000000       0.00000000 </v>
   <v>       0.12500000       0.12500000       0.00000000 </v>
   <v>       0.25000000       0.12500000       0.00000000 </v>
   <v>       0.37500000       0.12500000       0.00000000 </v>
   <v>       0.50000000       0.12500000       0.00000000 </v>
   <v>      -0.37500000       0.12500000       0.00000000 </v>
   <v>      -0.25000000       0.12500000       0.00000000 </v>
   <v>      -0.12500000       0.12500000       0.00000000 </v>
   <v>       0.25000000       0.25000000       0.00000000 </v>
   <v>       0.37500000       0.25000000       0.00000000 </v>
   <v>       0.50000000       0.25000000       0.00000000 </v>
   <v>      -0.37500000       0.25000000       0.00000000 </v>
   <v>      -0.25000000       0.25000000       0.00000000 </v>
   <v>       0.37500000       0.37500000       0.00000000 </v>
   <v>       0.50000000       0.37500000       0.00000000 </v>
   <v>      -0.37500000       0.37500000       0.00000000 </v>
   <v>       0.50000000       0.50000000       0.00000000 </v>
   <v>       0.37500000       0.25000000       0.12500000 </v>
   <v>       0.50000000       0.25000000       0.12500000 </v>
   <v>      -0.37500000       0.25000000       0.12500000 </v>
   <v>       0.50000000       0.37500000       0.12500000 </v>
   <v>      -0.37500000       0.37500000       0.12500000 </v>
   <v>      -0.25000000       0.37500000       0.12500000 </v>
   <v>      -0.37500000       0.50000000       0.12500000 </v>
   <v>      -0.25000000       0.50000000       0.25000000 </v>
  </varray>
  <varray name="weights" >
   <v>       0.00195312 </v>
   <v>       0.01562500 </v>
   <v>       0.01562500 </v>
   <v>       0.01562500 </v>
   <v>       0.00781250 </v>
   <v>       0.01171875 </v>
   <v>       0.04687500 </v>
   <v>       0.04687500 </v>
   <v>       0.04687500 </v>
   <v>       0.04687500 </v>
   <v>       0.04687500 </v>
   <v>       0.02343750 </v>
   <v>       0.01171875 </v>
   <v>       0.04687500 </v>
   <v>       0.04687500 </v>
   <v>       0.04687500 </v>
   <v>       0.02343750 </v>
   <v>       0.01171875 </v>
   <v>       0.04687500 </v>
   <v>       0.02343750 </v>
   <v>       0.00585938 </v>
   <v>       0.04687500 </v>
   <v>       0.09375000 </v>
   <v>       0.04687500 </v>
   <v>       0.04687500 </v>
   <v>       0.09375000 </v>
   <v>       0.04687500 </v>
   <v>       0.02343750 </v>
   <v>       0.01171875 </v>
  </varray>
 </kpoints>
 <parameters>
  <separator name="general" >
   <i type="string" name="SYSTEM">unknown system</i>
   <i type="logical" name="LCOMPAT"> F  </i>
  </separator>
  <separator name="electronic" >
   <i type="string" name="PREC">n</i>
   <i name="ENMAX">    520.00000000</i>
   <i name="ENAUG">    605.39200000</i>
   <i name="EDIFF">      0.00000100</i>
   <i type="int" name="IALGO">    38</i>
   <i type="int" name="IWAVPR">    11</i>
   <i type="int" name="NBANDS">    18</i>
   <i name="NELECT">      8.00000000</i>
   <i type="int" name="TURBO">     0</i>
   <i type="int" name="IRESTART">     0</i>
   <i type="int" name="NREBOOT">     0</i>
   <i type="int" name="NMIN">     0</i>
   <i name="EREF">      0.00000000</i>
   <separator name="electronic smearing" >
    <i type="int" name="ISMEAR">     0</i>
    <i name="SIGMA">      0.10000000</i>
    <i name="KSPACING">      0.50000000</i>
    <i type="logical" name="KGAMMA"> T  </i>
   </separator>
   <separator name="electronic projectors" >
    <i type="logical" name="LREAL"> F  </i>
    <v name="ROPT">      0.00000000      0.00000000</v>
    <i type="int" name="LMAXPAW">  -100</i>
    <i type="int" name="LMAXMIX">     2</i>
    <i type="logical" name="NLSPLINE"> F  </i>
   </separator>
   <separator name="electronic startup" >
    <i type="int" name="ISTART">     1</i>
    <i type="int" name="ICHARG">     0</i>
    <i type="int" name="INIWAV">     1</i>
   </separator>
   <separator name="electronic spin" >
    <i type="int" name="ISPIN">     1</i>
    <i type="logical" name="LNONCOLLINEAR"> F  </i>
    <v name="MAGMOM">      1.00000000      1.00000000</v>
    <i name="NUPDOWN">     -1.00000000</i>
    <i type="logical" name="LSORBIT"> F  </i>
    <v name="SAXIS">      0.00000000      0.00000000      1.00000000</v>
    <i type="logical" name="LSPIRAL"> F  </i>
    <v name="QSPIRAL">      0.00000000      0.00000000      0.00000000</v>
    <i type="logical" name="LZEROZ"> F  </i>
   </separator>
   <separator name="electronic exchange-correlation" >
    <i type="logical" name="LASPH"> T  </i>
    <i type="logical" name="LMETAGGA"> F  </i>
   </separator>
   <separator name="electronic convergence" >
    <i type="int" name="NELM">   100</i>
    <i type="int" name="NELMDL">     0</i>
    <i type="int" name="NELMIN">     2</i>
    <i name="ENINI">    520.00000000</i>
    <separator name="electronic convergence detail" >
     <i type="logical" name="LDIAG"> T  </i>
     <i type="logical" name="LSUBROT"> F  </i>
     <i name="WEIMIN">      0.00100000</i>
     <i name="EBREAK">      0.00000001</i>
     <i name="DEPER">      0.30000000</i>
     <i type="int" name="NRMM">     4</i>
     <i name="TIME">      0.40000000</i>
    </separator>
   </separator>
   <separator name="electronic mixer" >
    <i name="AMIX">      0.40000000</i>
    <i name="BMIX">      1.00000000</i>
    <i name="AMIN">      0.10000000</i>
    <i name="AMIX_MAG">      1.60000000</i>
    <i name="BMIX_MAG">      1.00000000</i>
    <separator name="electronic mixer details" >
     <i type="int" name="IMIX">     4</i>
     <i type="logical" name="MIXFIRST"> F  </i>
     <i type="int" name="MAXMIX">   -45</i>
     <i name="WC">    100.00000000</i>
     <i type="int" name="INIMIX">     1</i>
     <i type="int" name="MIXPRE">     1</i>
     <i type="int" name="MREMOVE">     5</i>
    </separator>
   </separator>
   <separator name="electronic dipolcorrection" >
    <i type="logical" name="LDIPOL"> F  </i>
    <i type="logical" name="LMONO"> F  </i>
    <i type="int" name="IDIPOL">     0</i>
    <i name="EPSILON">      1.00000000</i>
    <v name="DIPOL">   -100.00000000   -100.00000000   -100.00000000</v>
    <i name="EFIELD">      0.00000000</i>
   </separator>
  </separator>
  <separator name="grids" >
   <i type="int" name="NGX">    18</i>
   <i type="int" name="NGY">    18</i>
   <i type="int" name="NGZ">    18</i>
   <i type="int" name="NGXF">    36</i>
   <i type="int" name="NGYF">    36</i>
   <i type="int" name="NGZF">    36</i>
   <i type="logical" name="ADDGRID"> F  </i>
  </separator>
  <separator name="ionic" >
   <i type="int" name="NSW">    50</i>
   <i type="int" name="IBRION">     2</i>
   <i type="int" name="MDALGO">     0</i>
   <i type="int" name="ISIF">     3</i>
   <i name="PSTRESS">      0.00000000</i>
   <i name="EDIFFG">     -0.00300000</i>
   <i type="int" name="NFREE">     1</i>
   <i name="POTIM">      0.50000000</i>
   <i name="SMASS">     -3.00000000</i>
   <i name="SCALEE">      1.00000000</i>
  </separator>
  <separator name="ionic md" >
   <i name="TEBEG">      0.00010000</i>
   <i name="TEEND">      0.00010000</i>
   <i type="int" name="NBLOCK">     1</i>
   <i type="int" name="KBLOCK">    50</i>
   <i type="int" name="NPACO">   256</i>
   <i name="APACO">     16.00000000</i>
  </separator>
  <separator name="symmetry" >
   <i type="int" name="ISYM">     2</i>
   <i name="SYMPREC">      0.00001000</i>
  </separator>
  <separator name="dos" >
   <i type="int" name="LORBIT">     0</i>
   <v name="RWIGS">     -1.00000000     -1.00000000</v>
   <i type="int" name="NEDOS">   301</i>
   <i name="EMIN">     10.00000000</i>
   <i name="EMAX">    -10.00000000</i>
   <i name="EFERMI">      0.00000000</i>
  </separator>
  <separator name="writing" >
   <i type="int" name="NWRITE">     2</i>
   <i type="logical" name="LWAVE"> T  </i>
   <i type="logical" name="LDOWNSAMPLE"> F  </i>
   <i type="logical" name="LCHARG"> F  </i>
   <i type="logical" name="LPARD"> F  </i>
   <i type="logical" name="LVTOT"> F  </i>
   <i type="logical" name="LVHAR"> F  </i>
   <i type="logical" name="LELF"> F  </i>
   <i type="logical" name="LOPTICS"> F  </i>
   <v name="STM">      0.00000000      0.00000000      0.00000000      0.00000000      0.00000000      0.00000000      0.00000000</v>
  </separator>
  <separator name="performance" >
   <i type="int" name="NPAR">    18</i>
   <i type="int" name="NSIM">     4</i>
   <i type="int" name="NBLK">    -1</i>
   <i type="logical" name="LPLANE"> T  </i>
   <i type="logical" name="LSCALAPACK"> T  </i>
   <i type="logical" name="LSCAAWARE"> F  </i>
   <i type="logical" name="LSCALU"> F  </i>
   <i type="logical" name="LASYNC"> F  </i>
   <i type="logical" name="LORBITALREAL"> F  </i>
  </separator>
  <separator name="miscellaneous" >
   <i type="int" name="IDIOT">     3</i>
   <i type="int" name="ISPECIAL">     0</i>
   <i type="logical" name="LMUSIC"> F  </i>
   <v name="POMASS">     24.30500000     16.00000000</v>
   <v name="DARWINR">      0.00000000      0.00000000</v>
   <v name="DARWINV">      1.00000000      1.00000000</v>
   <i type="logical" name="LCORR"> T  </i>
  </separator>
  <i type="logical" name="GGA_COMPAT"> T  </i>
  <i type="logical" name="LBERRY"> F  </i>
  <i type="int" name="ICORELEVEL">     0</i>
  <i type="logical" name="LDAU"> F  </i>
  <i type="int" name="I_CONSTRAINED_M">     0</i>
  <separator name="electronic exchange-correlation" >
   <i type="string" name="GGA">PS</i>
   <i type="int" name="VOSKOWN">     0</i>
   <i type="logical" name="LHFCALC"> F  </i>
   <i type="string" name="PRECFOCK"></i>
   <i type="logical" name="LSYMGRAD"> F  </i>
   <i type="logical" name="LHFONE"> F  </i>
   <i type="logical" name="LRHFCALC"> F  </i>
   <i type="logical" name="LTHOMAS"> F  </i>
   <i type="logical" name="LMODELHF"> F  </i>
   <i name="ENCUT4O">     -1.00000000</i>
   <i type="int" name="EXXOEP">     0</i>
   <i type="int" name="FOURORBIT">     0</i>
   <i name="AEXX">      0.00000000</i>
   <i name="HFALPHA">      0.00000000</i>
   <i name="MCALPHA">      0.00000000</i>
   <i name="ALDAX">      1.00000000</i>
   <i name="AGGAX">      1.00000000</i>
   <i name="ALDAC">      1.00000000</i>
   <i name="AGGAC">      1.00000000</i>
   <i type="int" name="NKREDX">     1</i>
   <i type="int" name="NKREDY">     1</i>
   <i type="int" name="NKREDZ">     1</i>
   <i type="logical" name="SHIFTRED"> F  </i>
   <i type="logical" name="ODDONLY"> F  </i>
   <i type="logical" name="EVENONLY"> F  </i>
   <i type="int" name="LMAXFOCK">     0</i>
   <i type="int" name="NMAXFOCKAE">     0</i>
   <i type="logical" name="LFOCKAEDFT"> F  </i>
   <i name="HFSCREEN">      0.00000000</i>
   <i name="HFSCREENC">      0.00000000</i>
   <i type="int" name="NBANDSGWLOW">     0</i>
  </separator>
  <separator name="vdW DFT" >
   <i type="logical" name="LUSE_VDW"> F  </i>
   <i name="Zab_VDW">     -0.84910000</i>
   <i name="PARAM1">      0.12340000</i>
   <i name="PARAM2">      1.00000000</i>
   <i name="PARAM3">      0.00000000</i>
  </separator>
  <separator name="model GW" >
   <i type="int" name="MODEL_GW">     0</i>
   <i name="MODEL_EPS0">      5.59530005</i>
   <i name="MODEL_ALPHA">      1.00000000</i>
  </separator>
  <separator name="linear response parameters" >
   <i type="logical" name="LEPSILON"> F  </i>
   <i type="logical" name="LRPA"> F  </i>
   <i type="logical" name="LNABLA"> F  </i>
   <i type="logical" name="LVEL"> F  </i>
   <i type="int" name="KINTER">     0</i>
   <i name="CSHIFT">      0.10000000</i>
   <i name="OMEGAMAX">     -1.00000000</i>
   <i name="DEG_THRESHOLD">      0.00200000</i>
   <i name="RTIME">     -0.10000000</i>
   <i name="WPLASMAI">      0.00000000</i>
   <v name="DFIELD">      0.00000000      0.00000000      0.00000000</v>
   <v name="WPLASMA">      0.00000000      0.00000000      0.00000000      0.00000000      0.00000000      0.00000000      0.00000000      0.00000000      0.00000000</v>
  </separator>
  <separator name="orbital magnetization" >
   <i type="logical" name="NUCIND"> F  </i>
   <v name="MAGPOS">      0.00000000      0.00000000      0.00000000</v>
   <i type="logical" name="LNICSALL"> T  </i>
   <i type="logical" name="ORBITALMAG"> F  </i>
   <i type="logical" name="LMAGBLOCH"> F  </i>
   <i type="logical" name="LCHIMAG"> F  </i>
   <i type="logical" name="LGAUGE"> T  </i>
   <i type="int" name="MAGATOM">     0</i>
   <v name="MAGDIPOL">      0.00000000      0.00000000      0.00000000</v>
   <v name="AVECCONST">      0.00000000      0.00000000      0.00000000</v>
  </separator>
  <separator name="response functions" >
   <i type="logical" name="LADDER"> F  </i>
   <i type="logical" name="LRPAFORCE"> F  </i>
   <i type="logical" name="LFXC"> F  </i>
   <i type="logical" name="LHARTREE"> T  </i>
   <i type="int" name="IBSE">     0</i>
   <v type="int" name="KPOINT">    -1     0     0     0</v>
   <i type="logical" name="LTCTE"> F  </i>
   <i type="logical" name="LTETE"> F  </i>
   <i type="logical" name="LTRIPLET"> F  </i>
   <i type="logical" name="LFXCEPS"> F  </i>
   <i type="logical" name="LFXHEG"> F  </i>
   <i type="int" name="NATURALO">     2</i>
   <i type="logical" name="L2ORDER"> F  </i>
   <i type="logical" name="LMP2LT"> F  </i>
   <i type="logical" name="LUSEW"> F  </i>
   <i name="ENCUTGW">     -2.00000000</i>
   <i name="ENCUTGWSOFT">     -2.00000000</i>
   <i name="ENCUTLF">     -1.00000000</i>
   <i type="int" name="LMAXMP2">    -1</i>
   <i name="SCISSOR">      0.00000000</i>
   <i type="int" name="NOMEGA">     0</i>
   <i type="int" name="NOMEGAR">     0</i>
   <i type="int" name="NBANDSGW">    -1</i>
   <i type="int" name="NBANDSO">    -1</i>
   <i type="int" name="NBANDSV">    -1</i>
   <i type="int" name="NELM">   100</i>
   <i type="int" name="NELMHF">     1</i>
   <i type="int" name="DIM">     3</i>
   <i type="int" name="ANTIRES">     0</i>
   <i name="OMEGAMAX">    -30.00000000</i>
   <i name="OMEGAMIN">    -30.00000000</i>
   <i name="OMEGATL">   -200.00000000</i>
   <i type="int" name="OMEGAGRID">   140</i>
   <i name="CSHIFT">     -0.10000000</i>
   <i type="logical" name="SELFENERGY"> F  </i>
   <i type="logical" name="LSPECTRAL"> F  </i>
   <i type="logical" name="LSPECTRALGW"> F  </i>
   <i type="logical" name="LSINGLES"> F  </i>
   <i type="logical" name="LFERMIGW"> F  </i>
   <i type="logical" name="ODDONLYGW"> F  </i>
   <i type="logical" name="EVENONLYGW"> F  </i>
   <i type="int" name="NKREDLFX">     1</i>
   <i type="int" name="NKREDLFY">     1</i>
   <i type="int" name="NKREDLFZ">     1</i>
   <i type="int" name="MAXMEM">  2800</i>
   <i type="int" name="TELESCOPE">     0</i>
   <i type="int" name="TAUPAR">     1</i>
   <i type="int" name="OMEGAPAR">    -1</i>
   <i name="LAMBDA">      1.00000000</i>
  </separator>
  <separator name="External order field" >
   <i name="OFIELD_KAPPA">      0.00000000</i>
   <v name="OFIELD_K">      0.00000000      0.00000000      0.00000000</v>
   <i name="OFIELD_Q6_NEAR">      0.00000000</i>
   <i name="OFIELD_Q6_FAR">      0.00000000</i>
   <i name="OFIELD_A">      0.00000000</i>
  </separator>
 </parameters>
 <atominfo>
  <atoms>       2 </atoms>
  <types>       2 </types>
  <array name="atoms" >
   <dimension dim="1">ion</dimension>
   <field type="string">element</field>
   <field type="int">atomtype</field>
   <set>
    <rc><c>Mg</c><c>   1</c></rc>
    <rc><c>O </c><c>   2</c></rc>
   </set>
  </array>
  <array name="atomtypes" >
   <dimension dim="1">type</dimension>
   <field type="int">atomspertype</field>
   <field type="string">element</field>
   <field>mass</field>
   <field>valence</field>
   <field type="string">pseudopotential</field>
   <set>
    <rc><c>   1</c><c>Mg</c><c>     24.30500000</c><c>      2.00000000</c><c>  PAW_PBE Mg 13Apr2007                  </c></rc>
    <rc><c>   1</c><c>O </c><c>     16.00000000</c><c>      6.00000000</c><c>  PAW_PBE O 08Apr2002                   </c></rc>
   </set>
  </array>
 </atominfo>
 <structure name="initialpos" >
  <crystal>
   <varray name="basis" >
    <v>       0.00000000       2.10486402       2.10486402 </v>
    <v>       2.10486402       0.00000000       2.10486402 </v>
    <v>       2.10486402       2.10486402       0.00000000 </v>
   </varray>
   <i name="volume">     18.65100018 </i>
   <varray name="rec_basis" >
    <v>      -0.23754504       0.23754504       0.23754504 </v>
    <v>       0.23754504      -0.23754504       0.23754504 </v>
    <v>       0.23754504       0.23754504      -0.23754504 </v>
   </varray>
  </crystal>
  <varray name="positions" >
   <v>       0.00000000       0.00000000       0.00000000 </v>
   <v>       0.50000000       0.50000000       0.50000000 </v>
  </varray>
 </structure>
 <calculation>
  <scstep>
   <time name="dav">    0.06    0.06</time>
   <time name="total">    0.16    0.16</time>
   <energy>
    <i name="alphaZ">     19.58583692 </i>
    <i name="ewald">   -358.38985735 </i>
    <i name="hartreedc">   -139.51295275 </i>
    <i name="XCdc">    -17.44515023 </i>
    <i name="pawpsdc">    541.37907318 </i>
    <i name="pawaedc">   -492.21352090 </i>
    <i name="eentropy">     -0.00000000 </i>
    <i name="bandstr">    -19.33063775 </i>
    <i name="atom">    453.41478595 </i>
    <i name="e_fr_energy">    -12.51242292 </i>
    <i name="e_wo_entrp">    -12.51242292 </i>
    <i name="e_0_energy">    -12.51242292 </i>
   </energy>
  </scstep>
  <scstep>
   <time name="dav">    0.05    0.05</time>
   <time name="total">    0.15    0.16</time>
   <energy>
    <i name="alphaZ">     19.58583692 </i>
    <i name="ewald">   -358.38985735 </i>
    <i name="hartreedc">   -139.51373129 </i>
    <i name="XCdc">    -17.44509373 </i>
    <i name="pawpsdc">    541.38706854 </i>
    <i name="pawaedc">   -492.22158325 </i>
    <i name="eentropy">     -0.00000000 </i>
    <i name="bandstr">    -19.32984862 </i>
    <i name="atom">    453.41478595 </i>
    <i name="e_fr_energy">    -12.51242284 </i>
    <i name="e_wo_entrp">    -12.51242284 </i>
    <i name="e_0_energy">    -12.51242284 </i>
   </energy>
  </scstep>
  <structure>
   <crystal>
    <varray name="basis" >
     <v>       0.00000000       2.10486402       2.10486402 </v>
     <v>       2.10486402       0.00000000       2.10486402 </v>
     <v>       2.10486402       2.10486402       0.00000000 </v>
    </varray>
    <i name="volume">     18.65100018 </i>
    <varray name="rec_basis" >
     <v>      -0.23754504       0.23754504       0.23754504 </v>
     <v>       0.23754504      -0.23754504       0.23754504 </v>
     <v>       0.23754504       0.23754504      -0.23754504 </v>
    </varray>
   </crystal>
   <varray name="positions" >
    <v>       0.00000000       0.00000000       0.00000000 </v>
    <v>       0.50000000       0.50000000       0.50000000 </v>
   </varray>
  </structure>
  <varray name="forces" >
   <v>       0.00000000       0.00000000       0.00000000 </v>
   <v>      -0.00000000      -0.00000000       0.00000000 </v>
  </varray>
  <varray name="stress" >
   <v>       0.02275812      -0.00000000      -0.00000000 </v>
   <v>      -0.00000000       0.02275812      -0.00000000 </v>
   <v>      -0.00000000      -0.00000000       0.02275812 </v>
  </varray>
  <energy>
   <i name="e_fr_energy">    -12.51242284 </i>
   <i name="e_wo_entrp">    -12.51242284 </i>
   <i name="e_0_energy">     -0.00000000 </i>
  </energy>
  <time name="totalsc">    0.61    0.65</time>
  <eigenvalues>
   <array>
    <dimension dim="1">band</dimension>
    <dimension dim="2">kpoint</dimension>
    <dimension dim="3">spin</dimension>
    <field>eigene</field>
    <field>occ</field>
    <set>
     <set comment="spin 1">
      <set comment="kpoint 1">
       <r>  -14.1348    1.0000 </r>
       <r>    3.0798    1.0000 </r>
       <r>    3.0798    1.0000 </r>
       <r>    3.0798    1.0000 </r>
       <r>    7.7301    0.0000 </r>
       <r>   18.7209    0.0000 </r>
       <r>   18.7209    0.0000 </r>
       <r>   18.7209    0.0000 </r>
       <r>   22.5679    0.0000 </r>
       <r>   24.4534    0.0000 </r>
       <r>   24.4534    0.0000 </r>
       <r>   27.2676    0.0000 </r>
       <r>   27.2676    0.0000 </r>
       <r>   27.2676    0.0000 </r>
       <r>   41.3934    0.0000 </r>
       <r>   41.3934    0.0000 </r>
       <r>   41.3936    0.0000 </r>
       <r>   42.0878    0.0000 </r>
      </set>
      <set comment="kpoint 2">
       <r>  -13.9676    1.0000 </r>
       <r>    2.1087    1.0000 </r>
       <r>    2.9746    1.0000 </r>
       <r>    2.9746    1.0000 </r>
       <r>    8.6508    0.0000 </r>
       <r>   17.0288    0.0000 </r>
       <r>   19.0833    0.0000 </r>
       <r>   19.0833    0.0000 </r>
       <r>   23.4924    0.0000 </r>
       <r>   23.4924    0.0000 </r>
       <r>   24.7734    0.0000 </r>
       <r>   27.4323    0.0000 </r>
       <r>   28.9054    0.0000 </r>
       <r>   28.9054    0.0000 </r>
       <r>   39.3497    0.0000 </r>
       <r>   41.2198    0.0000 </r>
       <r>   41.2199    0.0000 </r>
       <r>   43.9465    0.0000 </r>
      </set>
      <set comment="kpoint 3">
       <r>  -13.5332    1.0000 </r>
       <r>    0.3805    1.0000 </r>
       <r>    2.7326    1.0000 </r>
       <r>    2.7326    1.0000 </r>
       <r>   10.0833    0.0000 </r>
       <r>   15.5033    0.0000 </r>
       <r>   19.5943    0.0000 </r>
       <r>   19.5943    0.0000 </r>
       <r>   23.0924    0.0000 </r>
       <r>   23.0924    0.0000 </r>
       <r>   24.9691    0.0000 </r>
       <r>   30.7600    0.0000 </r>
       <r>   31.5151    0.0000 </r>
       <r>   31.5151    0.0000 </r>
       <r>   37.2943    0.0000 </r>
       <r>   39.9494    0.0000 </r>
       <r>   39.9494    0.0000 </r>
       <r>   46.5353    0.0000 </r>
      </set>
      <set comment="kpoint 4">
       <r>  -13.0414    1.0000 </r>
       <r>   -1.0486    1.0000 </r>
       <r>    2.5052    1.0000 </r>
       <r>    2.5052    1.0000 </r>
       <r>   10.7568    0.0000 </r>
       <r>   15.3537    0.0000 </r>
       <r>   19.4381    0.0000 </r>
       <r>   19.4381    0.0000 </r>
       <r>   24.1840    0.0000 </r>
       <r>   24.3906    0.0000 </r>
       <r>   24.3906    0.0000 </r>
       <r>   32.1017    0.0000 </r>
       <r>   33.4982    0.0000 </r>
       <r>   33.4982    0.0000 </r>
       <r>   37.0644    0.0000 </r>
       <r>   37.0644    0.0000 </r>
       <r>   39.8380    0.0000 </r>
       <r>   47.7200    0.0000 </r>
      </set>
      <set comment="kpoint 5">
       <r>  -12.8159    1.0000 </r>
       <r>   -1.6080    1.0000 </r>
       <r>    2.4147    1.0000 </r>
       <r>    2.4147    1.0000 </r>
       <r>   10.8348    0.0000 </r>
       <r>   15.6026    0.0000 </r>
       <r>   19.2735    0.0000 </r>
       <r>   19.2735    0.0000 </r>
       <r>   23.8699    0.0000 </r>
       <r>   25.4370    0.0000 </r>
       <r>   25.4371    0.0000 </r>
       <r>   31.5631    0.0000 </r>
       <r>   33.9014    0.0000 </r>
       <r>   33.9014    0.0000 </r>
       <r>   35.6869    0.0000 </r>
       <r>   35.6869    0.0000 </r>
       <r>   45.5230    0.0000 </r>
       <r>   47.2358    0.0000 </r>
      </set>
      <set comment="kpoint 6">
       <r>  -13.9145    1.0000 </r>
       <r>    2.0275    1.0000 </r>
       <r>    2.8433    1.0000 </r>
       <r>    2.8433    1.0000 </r>
       <r>    8.9504    0.0000 </r>
       <r>   16.5123    0.0000 </r>
       <r>   19.2481    0.0000 </r>
       <r>   19.2481    0.0000 </r>
       <r>   21.8099    0.0000 </r>
       <r>   24.9355    0.0000 </r>
       <r>   25.8324    0.0000 </r>
       <r>   28.0165    0.0000 </r>
       <r>   28.0165    0.0000 </r>
       <r>   29.4489    0.0000 </r>
       <r>   39.4986    0.0000 </r>
       <r>   40.6860    0.0000 </r>
       <r>   40.6860    0.0000 </r>
       <r>   44.7679    0.0000 </r>
      </set>
      <set comment="kpoint 7">
       <r>  -13.5749    1.0000 </r>
       <r>    0.7806    1.0000 </r>
       <r>    2.5842    1.0000 </r>
       <r>    2.5909    1.0000 </r>
       <r>   10.2433    0.0000 </r>
       <r>   15.1788    0.0000 </r>
       <r>   19.3271    0.0000 </r>
       <r>   19.7756    0.0000 </r>
       <r>   20.9962    0.0000 </r>
       <r>   24.8636    0.0000 </r>
       <r>   26.9839    0.0000 </r>
       <r>   30.1693    0.0000 </r>
       <r>   30.3174    0.0000 </r>
       <r>   31.2348    0.0000 </r>
       <r>   37.5559    0.0000 </r>
       <r>   39.2866    0.0000 </r>
       <r>   41.2386    0.0000 </r>
       <r>   46.1795    0.0000 </r>
      </set>
      <set comment="kpoint 8">
       <r>  -13.1043    1.0000 </r>
       <r>   -0.5672    1.0000 </r>
       <r>    2.2086    1.0000 </r>
       <r>    2.3722    1.0000 </r>
       <r>   11.2726    0.0000 </r>
       <r>   14.8752    0.0000 </r>
       <r>   18.3653    0.0000 </r>
       <r>   19.8629    0.0000 </r>
       <r>   22.2841    0.0000 </r>
       <r>   25.4691    0.0000 </r>
       <r>   26.4332    0.0000 </r>
       <r>   32.1639    0.0000 </r>
       <r>   33.1153    0.0000 </r>
       <r>   33.2142    0.0000 </r>
       <r>   36.0788    0.0000 </r>
       <r>   38.4201    0.0000 </r>
       <r>   41.3667    0.0000 </r>
       <r>   45.1349    0.0000 </r>
      </set>
      <set comment="kpoint 9">
       <r>  -12.7823    1.0000 </r>
       <r>   -1.3378    1.0000 </r>
       <r>    1.9086    1.0000 </r>
       <r>    2.3022    1.0000 </r>
       <r>   11.5260    0.0000 </r>
       <r>   15.3832    0.0000 </r>
       <r>   17.8477    0.0000 </r>
       <r>   19.6733    0.0000 </r>
       <r>   23.6887    0.0000 </r>
       <r>   25.9279    0.0000 </r>
       <r>   26.1149    0.0000 </r>
       <r>   32.5030    0.0000 </r>
       <r>   33.1160    0.0000 </r>
       <r>   33.4147    0.0000 </r>
       <r>   36.0823    0.0000 </r>
       <r>   37.8029    0.0000 </r>
       <r>   44.5350    0.0000 </r>
       <r>   47.8705    0.0000 </r>
      </set>
      <set comment="kpoint 10">
       <r>  -12.8540    1.0000 </r>
       <r>   -1.1628    1.0000 </r>
       <r>    1.8438    1.0000 </r>
       <r>    2.4150    1.0000 </r>
       <r>   11.5250    0.0000 </r>
       <r>   15.2969    0.0000 </r>
       <r>   17.9524    0.0000 </r>
       <r>   19.7415    0.0000 </r>
       <r>   24.2577    0.0000 </r>
       <r>   24.5231    0.0000 </r>
       <r>   26.1195    0.0000 </r>
       <r>   32.7379    0.0000 </r>
       <r>   33.0543    0.0000 </r>
       <r>   34.3919    0.0000 </r>
       <r>   34.8785    0.0000 </r>
       <r>   38.9176    0.0000 </r>
       <r>   42.5671    0.0000 </r>
       <r>   45.7814    0.0000 </r>
      </set>
      <set comment="kpoint 11">
       <r>  -13.2605    1.0000 </r>
       <r>   -0.1453    1.0000 </r>
       <r>    2.0699    1.0000 </r>
       <r>    2.6562    1.0000 </r>
       <r>   11.0398    0.0000 </r>
       <r>   15.0138    0.0000 </r>
       <r>   18.5696    0.0000 </r>
       <r>   20.1994    0.0000 </r>
       <r>   22.0062    0.0000 </r>
       <r>   24.2844    0.0000 </r>
       <r>   26.5517    0.0000 </r>
       <r>   31.2570    0.0000 </r>
       <r>   32.6112    0.0000 </r>
       <r>   33.3775    0.0000 </r>
       <r>   35.8051    0.0000 </r>
       <r>   39.1851    0.0000 </r>
       <r>   41.7994    0.0000 </r>
       <r>   44.0519    0.0000 </r>
      </set>
      <set comment="kpoint 12">
       <r>  -13.7132    1.0000 </r>
       <r>    1.1801    1.0000 </r>
       <r>    2.5443    1.0000 </r>
       <r>    2.8933    1.0000 </r>
       <r>    9.7306    0.0000 </r>
       <r>   15.8075    0.0000 </r>
       <r>   19.1330    0.0000 </r>
       <r>   19.7695    0.0000 </r>
       <r>   21.8554    0.0000 </r>
       <r>   23.8069    0.0000 </r>
       <r>   26.4643    0.0000 </r>
       <r>   28.7616    0.0000 </r>
       <r>   29.9256    0.0000 </r>
       <r>   30.9906    0.0000 </r>
       <r>   37.5259    0.0000 </r>
       <r>   40.3707    0.0000 </r>
       <r>   41.8753    0.0000 </r>
       <r>   44.7629    0.0000 </r>
      </set>
      <set comment="kpoint 13">
       <r>  -13.3662    1.0000 </r>
       <r>    0.4063    1.0000 </r>
       <r>    2.3305    1.0000 </r>
       <r>    2.3305    1.0000 </r>
       <r>   11.0835    0.0000 </r>
       <r>   14.0525    0.0000 </r>
       <r>   18.4684    0.0000 </r>
       <r>   20.4183    0.0000 </r>
       <r>   20.4183    0.0000 </r>
       <r>   26.3398    0.0000 </r>
       <r>   30.2753    0.0000 </r>
       <r>   30.2753    0.0000 </r>
       <r>   30.7739    0.0000 </r>
       <r>   31.4581    0.0000 </r>
       <r>   38.6037    0.0000 </r>
       <r>   38.8836    0.0000 </r>
       <r>   38.8836    0.0000 </r>
       <r>   44.9495    0.0000 </r>
      </set>
      <set comment="kpoint 14">
       <r>  -13.0051    1.0000 </r>
       <r>   -0.3469    1.0000 </r>
       <r>    1.8636    1.0000 </r>
       <r>    2.1104    1.0000 </r>
       <r>   12.1704    0.0000 </r>
       <r>   13.5640    0.0000 </r>
       <r>   17.1212    0.0000 </r>
       <r>   20.7701    0.0000 </r>
       <r>   21.2282    0.0000 </r>
       <r>   27.0737    0.0000 </r>
       <r>   30.3184    0.0000 </r>
       <r>   30.6804    0.0000 </r>
       <r>   32.5108    0.0000 </r>
       <r>   34.9591    0.0000 </r>
       <r>   36.7227    0.0000 </r>
       <r>   38.1552    0.0000 </r>
       <r>   41.3681    0.0000 </r>
       <r>   43.7565    0.0000 </r>
      </set>
      <set comment="kpoint 15">
       <r>  -12.6940    1.0000 </r>
       <r>   -0.7979    1.0000 </r>
       <r>    1.1277    1.0000 </r>
       <r>    2.0449    1.0000 </r>
       <r>   12.6433    0.0000 </r>
       <r>   14.5464    0.0000 </r>
       <r>   16.2714    0.0000 </r>
       <r>   20.6203    0.0000 </r>
       <r>   21.7568    0.0000 </r>
       <r>   27.4338    0.0000 </r>
       <r>   29.7296    0.0000 </r>
       <r>   31.0476    0.0000 </r>
       <r>   32.3998    0.0000 </r>
       <r>   35.0817    0.0000 </r>
       <r>   37.1117    0.0000 </r>
       <r>   41.3634    0.0000 </r>
       <r>   43.8028    0.0000 </r>
       <r>   45.1984    0.0000 </r>
      </set>
      <set comment="kpoint 16">
       <r>  -12.6443    1.0000 </r>
       <r>   -0.7333    1.0000 </r>
       <r>    0.6570    1.0000 </r>
       <r>    2.1657    1.0000 </r>
       <r>   12.8890    0.0000 </r>
       <r>   15.1261    0.0000 </r>
       <r>   16.1188    0.0000 </r>
       <r>   20.4388    0.0000 </r>
       <r>   22.5024    0.0000 </r>
       <r>   25.4617    0.0000 </r>
       <r>   29.2459    0.0000 </r>
       <r>   31.8305    0.0000 </r>
       <r>   32.2540    0.0000 </r>
       <r>   35.6117    0.0000 </r>
       <r>   37.5485    0.0000 </r>
       <r>   40.4525    0.0000 </r>
       <r>   43.4324    0.0000 </r>
       <r>   46.4991    0.0000 </r>
      </set>
      <set comment="kpoint 17">
       <r>  -12.8914    1.0000 </r>
       <r>   -0.4708    1.0000 </r>
       <r>    1.0424    1.0000 </r>
       <r>    2.4153    1.0000 </r>
       <r>   12.4616    0.0000 </r>
       <r>   14.7241    0.0000 </r>
       <r>   17.0226    0.0000 </r>
       <r>   20.4987    0.0000 </r>
       <r>   22.9060    0.0000 </r>
       <r>   23.9240    0.0000 </r>
       <r>   28.7095    0.0000 </r>
       <r>   31.6218    0.0000 </r>
       <r>   32.7912    0.0000 </r>
       <r>   34.2415    0.0000 </r>
       <r>   36.9791    0.0000 </r>
       <r>   41.4466    0.0000 </r>
       <r>   41.6495    0.0000 </r>
       <r>   43.8129    0.0000 </r>
      </set>
      <set comment="kpoint 18">
       <r>  -12.7939    1.0000 </r>
       <r>   -0.7026    1.0000 </r>
       <r>    1.8817    1.0000 </r>
       <r>    1.8817    1.0000 </r>
       <r>   12.5186    0.0000 </r>
       <r>   12.6947    0.0000 </r>
       <r>   16.3706    0.0000 </r>
       <r>   21.5016    0.0000 </r>
       <r>   21.5016    0.0000 </r>
       <r>   28.4235    0.0000 </r>
       <r>   29.3788    0.0000 </r>
       <r>   33.1191    0.0000 </r>
       <r>   33.1191    0.0000 </r>
       <r>   38.0190    0.0000 </r>
       <r>   38.0190    0.0000 </r>
       <r>   38.2588    0.0000 </r>
       <r>   39.7088    0.0000 </r>
       <r>   40.4454    0.0000 </r>
      </set>
      <set comment="kpoint 19">
       <r>  -12.5946    1.0000 </r>
       <r>   -0.8643    1.0000 </r>
       <r>    1.3275    1.0000 </r>
       <r>    1.8055    1.0000 </r>
       <r>   12.4987    0.0000 </r>
       <r>   13.4474    0.0000 </r>
       <r>   15.9426    0.0000 </r>
       <r>   21.5485    0.0000 </r>
       <r>   21.5554    0.0000 </r>
       <r>   29.1950    0.0000 </r>
       <r>   29.4473    0.0000 </r>
       <r>   32.0473    0.0000 </r>
       <r>   32.8180    0.0000 </r>
       <r>   38.0663    0.0000 </r>
       <r>   38.4500    0.0000 </r>
       <r>   41.3577    0.0000 </r>
       <r>   42.7532    0.0000 </r>
       <r>   43.4641    0.0000 </r>
      </set>
      <set comment="kpoint 20">
       <r>  -12.5334    1.0000 </r>
       <r>   -0.4760    1.0000 </r>
       <r>    0.3241    1.0000 </r>
       <r>    1.9178    1.0000 </r>
       <r>   13.0141    0.0000 </r>
       <r>   14.7845    0.0000 </r>
       <r>   15.4906    0.0000 </r>
       <r>   21.0985    0.0000 </r>
       <r>   21.2513    0.0000 </r>
       <r>   28.0709    0.0000 </r>
       <r>   30.2772    0.0000 </r>
       <r>   31.1806    0.0000 </r>
       <r>   31.5291    0.0000 </r>
       <r>   38.4682    0.0000 </r>
       <r>   39.3996    0.0000 </r>
       <r>   40.6643    0.0000 </r>
       <r>   44.1635    0.0000 </r>
       <r>   45.5443    0.0000 </r>
      </set>
      <set comment="kpoint 21">
       <r>  -12.5502    1.0000 </r>
       <r>   -1.0730    1.0000 </r>
       <r>    1.7110    1.0000 </r>
       <r>    1.7110    1.0000 </r>
       <r>   12.0027    0.0000 </r>
       <r>   12.9742    0.0000 </r>
       <r>   16.0702    0.0000 </r>
       <r>   21.9482    0.0000 </r>
       <r>   21.9482    0.0000 </r>
       <r>   28.3461    0.0000 </r>
       <r>   29.8533    0.0000 </r>
       <r>   33.7524    0.0000 </r>
       <r>   33.7524    0.0000 </r>
       <r>   37.2261    0.0000 </r>
       <r>   40.2029    0.0000 </r>
       <r>   40.2029    0.0000 </r>
       <r>   41.8246    0.0000 </r>
       <r>   44.2308    0.0000 </r>
      </set>
      <set comment="kpoint 22">
       <r>  -13.2213    1.0000 </r>
       <r>    0.0185    1.0000 </r>
       <r>    1.9056    1.0000 </r>
       <r>    2.4537    1.0000 </r>
       <r>   11.4981    0.0000 </r>
       <r>   14.3946    0.0000 </r>
       <r>   18.0605    0.0000 </r>
       <r>   20.5117    0.0000 </r>
       <r>   21.0521    0.0000 </r>
       <r>   25.3969    0.0000 </r>
       <r>   28.7910    0.0000 </r>
       <r>   30.5229    0.0000 </r>
       <r>   31.8613    0.0000 </r>
       <r>   34.1719    0.0000 </r>
       <r>   35.7237    0.0000 </r>
       <r>   39.3829    0.0000 </r>
       <r>   41.1396    0.0000 </r>
       <r>   44.7890    0.0000 </r>
      </set>
      <set comment="kpoint 23">
       <r>  -12.8337    1.0000 </r>
       <r>   -0.6846    1.0000 </r>
       <r>    1.3190    1.0000 </r>
       <r>    2.1974    1.0000 </r>
       <r>   12.4674    0.0000 </r>
       <r>   14.6002    0.0000 </r>
       <r>   16.9073    0.0000 </r>
       <r>   20.1154    0.0000 </r>
       <r>   22.6297    0.0000 </r>
       <r>   25.3588    0.0000 </r>
       <r>   28.9953    0.0000 </r>
       <r>   31.9060    0.0000 </r>
       <r>   32.4080    0.0000 </r>
       <r>   35.1391    0.0000 </r>
       <r>   35.7490    0.0000 </r>
       <r>   41.3135    0.0000 </r>
       <r>   42.6475    0.0000 </r>
       <r>   43.0170    0.0000 </r>
      </set>
      <set comment="kpoint 24">
       <r>  -12.6610    1.0000 </r>
       <r>   -0.9849    1.0000 </r>
       <r>    1.1079    1.0000 </r>
       <r>    2.0763    1.0000 </r>
       <r>   12.6219    0.0000 </r>
       <r>   15.1751    0.0000 </r>
       <r>   16.4762    0.0000 </r>
       <r>   19.8704    0.0000 </r>
       <r>   23.4747    0.0000 </r>
       <r>   25.0283    0.0000 </r>
       <r>   29.1281    0.0000 </r>
       <r>   31.7758    0.0000 </r>
       <r>   32.5709    0.0000 </r>
       <r>   34.5238    0.0000 </r>
       <r>   38.1273    0.0000 </r>
       <r>   38.7055    0.0000 </r>
       <r>   45.7898    0.0000 </r>
       <r>   46.3623    0.0000 </r>
      </set>
      <set comment="kpoint 25">
       <r>  -12.7264    1.0000 </r>
       <r>   -0.6312    1.0000 </r>
       <r>    1.3548    1.0000 </r>
       <r>    1.8153    1.0000 </r>
       <r>   13.2833    0.0000 </r>
       <r>   13.2990    0.0000 </r>
       <r>   16.1554    0.0000 </r>
       <r>   20.4539    0.0000 </r>
       <r>   22.1628    0.0000 </r>
       <r>   27.3887    0.0000 </r>
       <r>   30.3915    0.0000 </r>
       <r>   31.6881    0.0000 </r>
       <r>   32.5622    0.0000 </r>
       <r>   36.6201    0.0000 </r>
       <r>   36.6424    0.0000 </r>
       <r>   40.8530    0.0000 </r>
       <r>   41.6095    0.0000 </r>
       <r>   45.1794    0.0000 </r>
      </set>
      <set comment="kpoint 26">
       <r>  -12.5539    1.0000 </r>
       <r>   -0.4875    1.0000 </r>
       <r>    0.5484    1.0000 </r>
       <r>    1.6802    1.0000 </r>
       <r>   13.5277    0.0000 </r>
       <r>   14.7109    0.0000 </r>
       <r>   15.4902    0.0000 </r>
       <r>   19.5839    0.0000 </r>
       <r>   23.0165    0.0000 </r>
       <r>   26.4574    0.0000 </r>
       <r>   30.1871    0.0000 </r>
       <r>   31.5930    0.0000 </r>
       <r>   32.8209    0.0000 </r>
       <r>   36.5627    0.0000 </r>
       <r>   39.2174    0.0000 </r>
       <r>   41.4852    0.0000 </r>
       <r>   43.1687    0.0000 </r>
       <r>   44.5692    0.0000 </r>
      </set>
      <set comment="kpoint 27">
       <r>  -12.6009    1.0000 </r>
       <r>   -0.3602    1.0000 </r>
       <r>    0.3327    1.0000 </r>
       <r>    1.8755    1.0000 </r>
       <r>   13.7047    0.0000 </r>
       <r>   14.6680    0.0000 </r>
       <r>   15.7394    0.0000 </r>
       <r>   19.6274    0.0000 </r>
       <r>   23.8872    0.0000 </r>
       <r>   24.4722    0.0000 </r>
       <r>   30.8627    0.0000 </r>
       <r>   31.5105    0.0000 </r>
       <r>   32.0842    0.0000 </r>
       <r>   37.0494    0.0000 </r>
       <r>   37.2227    0.0000 </r>
       <r>   42.0520    0.0000 </r>
       <r>   42.6914    0.0000 </r>
       <r>   45.6081    0.0000 </r>
      </set>
      <set comment="kpoint 28">
       <r>  -12.5231    1.0000 </r>
       <r>   -0.7696    1.0000 </r>
       <r>    1.1466    1.0000 </r>
       <r>    1.4907    1.0000 </r>
       <r>   12.9067    0.0000 </r>
       <r>   13.8641    0.0000 </r>
       <r>   15.7217    0.0000 </r>
       <r>   20.3135    0.0000 </r>
       <r>   22.5949    0.0000 </r>
       <r>   29.0468    0.0000 </r>
       <r>   29.2566    0.0000 </r>
       <r>   30.7832    0.0000 </r>
       <r>   34.1101    0.0000 </r>
       <r>   38.7736    0.0000 </r>
       <r>   39.2965    0.0000 </r>
       <r>   41.6115    0.0000 </r>
       <r>   42.3783    0.0000 </r>
       <r>   43.3552    0.0000 </r>
      </set>
      <set comment="kpoint 29">
       <r>  -12.4961    1.0000 </r>
       <r>    0.0705    1.0000 </r>
       <r>    0.0705    1.0000 </r>
       <r>    1.2821    1.0000 </r>
       <r>   14.5898    0.0000 </r>
       <r>   14.5898    0.0000 </r>
       <r>   15.1869    0.0000 </r>
       <r>   18.4922    0.0000 </r>
       <r>   24.9033    0.0000 </r>
       <r>   24.9033    0.0000 </r>
       <r>   29.3525    0.0000 </r>
       <r>   31.9273    0.0000 </r>
       <r>   34.6374    0.0000 </r>
       <r>   37.5147    0.0000 </r>
       <r>   40.5300    0.0000 </r>
       <r>   40.5300    0.0000 </r>
       <r>   42.6127    0.0000 </r>
       <r>   44.0339    0.0000 </r>
      </set>
     </set>
    </set>
   </array>
  </eigenvalues>
  <separator name="orbital magnetization" >
   <v name="MAGDIPOLOUT">      0.00000000      0.00000000      0.00000000</v>
  </separator>
  <dos>
   <i name="efermi">      3.48247770 </i>
   <total>
    <array>
     <dimension dim="1">gridpoints</dimension>
     <dimension dim="2">spin</dimension>
     <field>energy</field>
     <field>total</field>
     <field>integrated</field>
     <set>
      <set comment="spin 1">
       <r>   -17.2350     0.0000     0.0000 </r>
       <r>   -17.0077     0.0000     0.0000 </r>
       <r>   -16.7803     0.0000     0.0000 </r>
       <r>   -16.5530     0.0000     0.0000 </r>
       <r>   -16.3256     0.0000     0.0000 </r>
       <r>   -16.0983     0.0000     0.0000 </r>
       <r>   -15.8709     0.0000     0.0000 </r>
       <r>   -15.6436     0.0000     0.0000 </r>
       <r>   -15.4162     0.0000     0.0000 </r>
       <r>   -15.1889     0.0000     0.0000 </r>
       <r>   -14.9615     0.0000     0.0000 </r>
       <r>   -14.7342     0.0000     0.0000 </r>
       <r>   -14.5068     0.0000     0.0000 </r>
       <r>   -14.2795     0.0004     0.0001 </r>
       <r>   -14.0521     0.0334     0.0077 </r>
       <r>   -13.8247     0.2224     0.0582 </r>
       <r>   -13.5974     0.3771     0.1440 </r>
       <r>   -13.3700     0.4599     0.2485 </r>
       <r>   -13.1427     0.9158     0.4567 </r>
       <r>   -12.9153     1.1279     0.7132 </r>
       <r>   -12.6880     2.6079     1.3061 </r>
       <r>   -12.4606     2.8429     1.9524 </r>
       <r>   -12.2333     0.2092     2.0000 </r>
       <r>   -12.0059     0.0000     2.0000 </r>
       <r>   -11.7786     0.0000     2.0000 </r>
       <r>   -11.5512     0.0000     2.0000 </r>
       <r>   -11.3239     0.0000     2.0000 </r>
       <r>   -11.0965     0.0000     2.0000 </r>
       <r>   -10.8692     0.0000     2.0000 </r>
       <r>   -10.6418     0.0000     2.0000 </r>
       <r>   -10.4145     0.0000     2.0000 </r>
       <r>   -10.1871     0.0000     2.0000 </r>
       <r>    -9.9598     0.0000     2.0000 </r>
       <r>    -9.7324     0.0000     2.0000 </r>
       <r>    -9.5050     0.0000     2.0000 </r>
       <r>    -9.2777     0.0000     2.0000 </r>
       <r>    -9.0503     0.0000     2.0000 </r>
       <r>    -8.8230     0.0000     2.0000 </r>
       <r>    -8.5956     0.0000     2.0000 </r>
       <r>    -8.3683     0.0000     2.0000 </r>
       <r>    -8.1409     0.0000     2.0000 </r>
       <r>    -7.9136     0.0000     2.0000 </r>
       <r>    -7.6862     0.0000     2.0000 </r>
       <r>    -7.4589     0.0000     2.0000 </r>
       <r>    -7.2315     0.0000     2.0000 </r>
       <r>    -7.0042     0.0000     2.0000 </r>
       <r>    -6.7768     0.0000     2.0000 </r>
       <r>    -6.5495     0.0000     2.0000 </r>
       <r>    -6.3221     0.0000     2.0000 </r>
       <r>    -6.0948     0.0000     2.0000 </r>
       <r>    -5.8674     0.0000     2.0000 </r>
       <r>    -5.6401     0.0000     2.0000 </r>
       <r>    -5.4127     0.0000     2.0000 </r>
       <r>    -5.1853     0.0000     2.0000 </r>
       <r>    -4.9580     0.0000     2.0000 </r>
       <r>    -4.7306     0.0000     2.0000 </r>
       <r>    -4.5033     0.0000     2.0000 </r>
       <r>    -4.2759     0.0000     2.0000 </r>
       <r>    -4.0486     0.0000     2.0000 </r>
       <r>    -3.8212     0.0000     2.0000 </r>
       <r>    -3.5939     0.0000     2.0000 </r>
       <r>    -3.3665     0.0000     2.0000 </r>
       <r>    -3.1392     0.0000     2.0000 </r>
       <r>    -2.9118     0.0000     2.0000 </r>
       <r>    -2.6845     0.0000     2.0000 </r>
       <r>    -2.4571     0.0000     2.0000 </r>
       <r>    -2.2298     0.0000     2.0000 </r>
       <r>    -2.0024     0.0000     2.0000 </r>
       <r>    -1.7751     0.0006     2.0001 </r>
       <r>    -1.5477     0.0552     2.0127 </r>
       <r>    -1.3203     0.2646     2.0729 </r>
       <r>    -1.0930     0.5890     2.2068 </r>
       <r>    -0.8656     0.8747     2.4056 </r>
       <r>    -0.6383     2.0753     2.8774 </r>
       <r>    -0.4109     2.0422     3.3417 </r>
       <r>    -0.1836     0.9661     3.5614 </r>
       <r>     0.0438     0.6319     3.7051 </r>
       <r>     0.2711     0.4203     3.8006 </r>
       <r>     0.4985     0.9038     4.0061 </r>
       <r>     0.7258     1.0729     4.2500 </r>
       <r>     0.9532     0.4229     4.3462 </r>
       <r>     1.1805     1.1251     4.6020 </r>
       <r>     1.4079     1.8316     5.0184 </r>
       <r>     1.6352     0.6510     5.1664 </r>
       <r>     1.8626     2.3010     5.6895 </r>
       <r>     2.0899     2.9081     6.3507 </r>
       <r>     2.3173     2.7474     6.9753 </r>
       <r>     2.5446     2.2538     7.4877 </r>
       <r>     2.7720     1.4519     7.8178 </r>
       <r>     2.9994     0.6399     7.9633 </r>
       <r>     3.2267     0.1605     7.9998 </r>
       <r>     3.4541     0.0010     8.0000 </r>
       <r>     3.6814     0.0000     8.0000 </r>
       <r>     3.9088     0.0000     8.0000 </r>
       <r>     4.1361     0.0000     8.0000 </r>
       <r>     4.3635     0.0000     8.0000 </r>
       <r>     4.5908     0.0000     8.0000 </r>
       <r>     4.8182     0.0000     8.0000 </r>
       <r>     5.0455     0.0000     8.0000 </r>
       <r>     5.2729     0.0000     8.0000 </r>
       <r>     5.5002     0.0000     8.0000 </r>
       <r>     5.7276     0.0000     8.0000 </r>
       <r>     5.9549     0.0000     8.0000 </r>
       <r>     6.1823     0.0000     8.0000 </r>
       <r>     6.4096     0.0000     8.0000 </r>
       <r>     6.6370     0.0000     8.0000 </r>
       <r>     6.8643     0.0000     8.0000 </r>
       <r>     7.0917     0.0000     8.0000 </r>
       <r>     7.3191     0.0000     8.0000 </r>
       <r>     7.5464     0.0001     8.0000 </r>
       <r>     7.7738     0.0125     8.0029 </r>
       <r>     8.0011     0.0046     8.0039 </r>
       <r>     8.2285     0.0000     8.0039 </r>
       <r>     8.4558     0.0004     8.0040 </r>
       <r>     8.6832     0.0926     8.0250 </r>
       <r>     8.9105     0.0740     8.0419 </r>
       <r>     9.1379     0.0732     8.0585 </r>
       <r>     9.3652     0.0004     8.0586 </r>
       <r>     9.5926     0.0052     8.0598 </r>
       <r>     9.8199     0.1796     8.1006 </r>
       <r>    10.0473     0.0644     8.1153 </r>
       <r>    10.2746     0.3707     8.1996 </r>
       <r>    10.5020     0.1360     8.2305 </r>
       <r>    10.7293     0.0527     8.2424 </r>
       <r>    10.9567     0.2036     8.2887 </r>
       <r>    11.1841     0.4923     8.4006 </r>
       <r>    11.4114     0.4646     8.5063 </r>
       <r>    11.6388     1.1033     8.7571 </r>
       <r>    11.8661     0.0561     8.7698 </r>
       <r>    12.0935     0.1021     8.7931 </r>
       <r>    12.3208     0.3768     8.8787 </r>
       <r>    12.5482     1.3680     9.1897 </r>
       <r>    12.7755     1.0870     9.4369 </r>
       <r>    13.0029     0.7053     9.5972 </r>
       <r>    13.2302     0.3356     9.6735 </r>
       <r>    13.4576     1.0447     9.9110 </r>
       <r>    13.6849     1.4007    10.2295 </r>
       <r>    13.9123     0.4362    10.3286 </r>
       <r>    14.1396     0.1412    10.3607 </r>
       <r>    14.3670     0.1575    10.3966 </r>
       <r>    14.5943     1.1780    10.6644 </r>
       <r>    14.8217     2.1403    11.1510 </r>
       <r>    15.0490     0.8234    11.3382 </r>
       <r>    15.2764     1.5047    11.6803 </r>
       <r>    15.5038     1.4863    12.0182 </r>
       <r>    15.7311     0.9175    12.2268 </r>
       <r>    15.9585     0.7450    12.3962 </r>
       <r>    16.1858     0.8770    12.5955 </r>
       <r>    16.4132     0.7269    12.7608 </r>
       <r>    16.6405     0.4602    12.8654 </r>
       <r>    16.8679     0.2503    12.9224 </r>
       <r>    17.0952     1.0142    13.1529 </r>
       <r>    17.3226     0.3229    13.2264 </r>
       <r>    17.5499     0.0009    13.2266 </r>
       <r>    17.7773     0.0686    13.2422 </r>
       <r>    18.0046     0.7444    13.4114 </r>
       <r>    18.2320     0.4332    13.5099 </r>
       <r>    18.4593     0.4693    13.6166 </r>
       <r>    18.6867     0.5481    13.7412 </r>
       <r>    18.9140     0.0582    13.7544 </r>
       <r>    19.1414     0.3484    13.8336 </r>
       <r>    19.3687     0.7964    14.0147 </r>
       <r>    19.5961     1.1749    14.2818 </r>
       <r>    19.8235     2.1604    14.7730 </r>
       <r>    20.0508     0.9618    14.9917 </r>
       <r>    20.2782     1.0976    15.2412 </r>
       <r>    20.5055     1.3583    15.5500 </r>
       <r>    20.7329     0.9968    15.7767 </r>
       <r>    20.9602     0.4819    15.8862 </r>
       <r>    21.1876     0.9815    16.1094 </r>
       <r>    21.4149     0.5390    16.2319 </r>
       <r>    21.6423     0.9250    16.4422 </r>
       <r>    21.8696     0.6817    16.5972 </r>
       <r>    22.0970     0.6520    16.7454 </r>
       <r>    22.3243     0.6737    16.8986 </r>
       <r>    22.5517     0.6059    17.0363 </r>
       <r>    22.7790     0.9667    17.2561 </r>
       <r>    23.0064     0.5940    17.3912 </r>
       <r>    23.2337     0.7123    17.5531 </r>
       <r>    23.4611     0.2723    17.6150 </r>
       <r>    23.6885     0.6374    17.7599 </r>
       <r>    23.9158     0.8055    17.9431 </r>
       <r>    24.1432     0.3545    18.0237 </r>
       <r>    24.3705     0.9713    18.2445 </r>
       <r>    24.5979     0.9795    18.4672 </r>
       <r>    24.8252     0.3400    18.5445 </r>
       <r>    25.0526     0.9673    18.7644 </r>
       <r>    25.2799     0.3119    18.8353 </r>
       <r>    25.5073     1.7748    19.2388 </r>
       <r>    25.7346     0.2997    19.3069 </r>
       <r>    25.9620     0.3839    19.3942 </r>
       <r>    26.1893     0.8214    19.5809 </r>
       <r>    26.4167     0.6780    19.7351 </r>
       <r>    26.6440     1.3611    20.0445 </r>
       <r>    26.8714     0.0686    20.0601 </r>
       <r>    27.0987     0.6307    20.2035 </r>
       <r>    27.3261     0.3241    20.2772 </r>
       <r>    27.5534     0.8310    20.4661 </r>
       <r>    27.7808     0.0288    20.4727 </r>
       <r>    28.0082     0.1320    20.5027 </r>
       <r>    28.2355     0.2815    20.5667 </r>
       <r>    28.4629     0.1212    20.5942 </r>
       <r>    28.6902     0.1775    20.6346 </r>
       <r>    28.9176     0.9371    20.8476 </r>
       <r>    29.1449     1.4041    21.1669 </r>
       <r>    29.3723     1.2434    21.4495 </r>
       <r>    29.5996     0.5709    21.5793 </r>
       <r>    29.8270     0.4074    21.6720 </r>
       <r>    30.0543     0.2969    21.7395 </r>
       <r>    30.2817     1.5947    22.1020 </r>
       <r>    30.5090     1.4067    22.4218 </r>
       <r>    30.7364     0.7306    22.5879 </r>
       <r>    30.9637     0.8869    22.7896 </r>
       <r>    31.1911     0.8194    22.9758 </r>
       <r>    31.4184     0.8479    23.1686 </r>
       <r>    31.6458     1.8167    23.5817 </r>
       <r>    31.8731     1.7861    23.9877 </r>
       <r>    32.1005     1.6743    24.3684 </r>
       <r>    32.3279     1.1864    24.6381 </r>
       <r>    32.5552     2.1777    25.1332 </r>
       <r>    32.7826     1.7738    25.5365 </r>
       <r>    33.0099     1.2673    25.8246 </r>
       <r>    33.2373     1.4938    26.1643 </r>
       <r>    33.4646     0.9562    26.3816 </r>
       <r>    33.6920     0.3512    26.4615 </r>
       <r>    33.9193     0.1658    26.4992 </r>
       <r>    34.1467     0.3663    26.5825 </r>
       <r>    34.3740     0.6785    26.7367 </r>
       <r>    34.6014     0.6344    26.8810 </r>
       <r>    34.8287     0.2409    26.9357 </r>
       <r>    35.0561     0.9218    27.1453 </r>
       <r>    35.2834     1.0096    27.3748 </r>
       <r>    35.5108     0.0513    27.3865 </r>
       <r>    35.7381     1.1415    27.6460 </r>
       <r>    35.9655     1.0613    27.8873 </r>
       <r>    36.1929     0.7414    28.0559 </r>
       <r>    36.4202     0.0657    28.0708 </r>
       <r>    36.6476     1.2565    28.3565 </r>
       <r>    36.8749     0.7976    28.5378 </r>
       <r>    37.1023     0.9033    28.7432 </r>
       <r>    37.3296     0.9203    28.9524 </r>
       <r>    37.5570     0.7190    29.1159 </r>
       <r>    37.7843     0.6498    29.2636 </r>
       <r>    38.0117     0.4637    29.3691 </r>
       <r>    38.2390     1.1965    29.6411 </r>
       <r>    38.4664     0.7895    29.8206 </r>
       <r>    38.6937     0.6757    29.9742 </r>
       <r>    38.9211     0.7774    30.1510 </r>
       <r>    39.1484     0.5388    30.2735 </r>
       <r>    39.3758     1.8573    30.6957 </r>
       <r>    39.6031     0.5813    30.8279 </r>
       <r>    39.8305     0.1753    30.8678 </r>
       <r>    40.0578     0.3259    30.9418 </r>
       <r>    40.2852     0.1341    30.9723 </r>
       <r>    40.5126     0.6898    31.1291 </r>
       <r>    40.7399     0.5816    31.2614 </r>
       <r>    40.9673     0.4466    31.3629 </r>
       <r>    41.1946     0.6025    31.4999 </r>
       <r>    41.4220     2.8598    32.1501 </r>
       <r>    41.6493     1.7533    32.5487 </r>
       <r>    41.8767     0.7867    32.7275 </r>
       <r>    42.1040     0.4947    32.8400 </r>
       <r>    42.3314     0.1547    32.8752 </r>
       <r>    42.5587     0.4623    32.9803 </r>
       <r>    42.7861     1.6655    33.3590 </r>
       <r>    43.0134     0.5982    33.4950 </r>
       <r>    43.2408     1.1271    33.7512 </r>
       <r>    43.4681     0.8114    33.9357 </r>
       <r>    43.6955     0.4510    34.0382 </r>
       <r>    43.9228     0.9506    34.2543 </r>
       <r>    44.1502     0.6717    34.4070 </r>
       <r>    44.3775     0.2097    34.4547 </r>
       <r>    44.6049     0.9164    34.6630 </r>
       <r>    44.8323     0.8765    34.8623 </r>
       <r>    45.0596     0.3438    34.9405 </r>
       <r>    45.2870     1.0790    35.1858 </r>
       <r>    45.5143     0.2145    35.2346 </r>
       <r>    45.7417     0.7568    35.4066 </r>
       <r>    45.9690     0.6135    35.5461 </r>
       <r>    46.1964     0.2523    35.6035 </r>
       <r>    46.4237     0.5633    35.7315 </r>
       <r>    46.6511     0.5489    35.8563 </r>
       <r>    46.8784     0.0135    35.8594 </r>
       <r>    47.1058     0.0023    35.8599 </r>
       <r>    47.3331     0.0607    35.8737 </r>
       <r>    47.5605     0.0075    35.8754 </r>
       <r>    47.7878     0.1626    35.9123 </r>
       <r>    48.0152     0.3772    35.9981 </r>
       <r>    48.2425     0.0084    36.0000 </r>
       <r>    48.4699     0.0000    36.0000 </r>
       <r>    48.6973     0.0000    36.0000 </r>
       <r>    48.9246     0.0000    36.0000 </r>
       <r>    49.1520     0.0000    36.0000 </r>
       <r>    49.3793     0.0000    36.0000 </r>
       <r>    49.6067     0.0000    36.0000 </r>
       <r>    49.8340     0.0000    36.0000 </r>
       <r>    50.0614     0.0000    36.0000 </r>
       <r>    50.2887     0.0000    36.0000 </r>
       <r>    50.5161     0.0000    36.0000 </r>
       <r>    50.7434     0.0000    36.0000 </r>
       <r>    50.9708     0.0000    36.0000 </r>
      </set>
     </set>
    </array>
   </total>
  </dos>
 </calculation>
 <structure name="finalpos" >
  <crystal>
   <varray name="basis" >
    <v>       0.00000000       2.10486402       2.10486402 </v>
    <v>       2.10486402       0.00000000       2.10486402 </v>
    <v>       2.10486402       2.10486402       0.00000000 </v>
   </varray>
   <i name="volume">     18.65100018 </i>
   <varray name="rec_basis" >
    <v>      -0.23754504       0.23754504       0.23754504 </v>
    <v>       0.23754504      -0.23754504       0.23754504 </v>
    <v>       0.23754504       0.23754504      -0.23754504 </v>
   </varray>
  </crystal>
  <varray name="positions" >
   <v>       0.00000000       0.00000000       0.00000000 </v>
   <v>       0.50000000       0.50000000       0.50000000 </v>
  </varray>
 </structure>
</modeling>
