       N       E                     dE             d eps       ncg     rms          ort
DAV:   1     0.172002615503E+02    0.17200E+02   -0.18170E+03    36   0.129E+02
DAV:   2     0.111737346016E+02   -0.60265E+01   -0.60265E+01    36   0.105E+01
DAV:   3     0.303406619431E+01   -0.81397E+01   -0.81394E+01    36   0.102E+01
DAV:   4    -0.347684499900E+00   -0.33818E+01   -0.32999E+01    36   0.953E+00
DAV:   5    -0.160383724534E+01   -0.12562E+01   -0.11273E+01    36   0.505E+00
SDA:   6    -0.189407619857E+01   -0.29024E+00   -0.31577E+01    36   0.789E+01 0.000E+00
DMP:   7    -0.352190616218E+01   -0.16278E+01   -0.33648E+00    36   0.509E+00 0.870E+00
DMP:   8    -0.359531767469E+01   -0.73412E-01   -0.17112E+00    36   0.743E+00-0.824E+00
DMP:   9    -0.376241110955E+01   -0.16709E+00   -0.15476E+00    36   0.293E+00 0.246E+00
DMP:  10    -0.384010439658E+01   -0.77693E-01   -0.19348E-01    36   0.412E-01 0.187E-01
DMP:  11    -0.384739895202E+01   -0.72946E-02   -0.16293E-01    36   0.465E-01-0.151E-01
DMP:  12    -0.407242388866E+01   -0.22502E+00   -0.27523E+00    36   0.451E+00 0.620E+00
DMP:  13    -0.429175216331E+01   -0.21933E+00   -0.29609E+00    36   0.553E+00 0.491E+00
DMP:  14    -0.448770358306E+01   -0.19595E+00   -0.76735E-01    36   0.114E+00 0.205E+00
DMP:  15    -0.451190392625E+01   -0.24200E-01   -0.19072E-01    36   0.586E-01-0.286E-01
DMP:  16    -0.452607527348E+01   -0.14171E-01   -0.16888E-01    36   0.331E-01 0.238E-01
DMP:  17    -0.453680120508E+01   -0.10726E-01   -0.34762E-02    36   0.428E-02 0.115E-01
DMP:  18    -0.453827945688E+01   -0.14783E-02   -0.10079E-02    36   0.303E-02-0.135E-02
DMP:  19    -0.453903245272E+01   -0.75300E-03   -0.96986E-03    36   0.196E-02 0.122E-02
DMP:  20    -0.453967954877E+01   -0.64710E-03   -0.24019E-03    36   0.291E-03 0.811E-03
DMP:  21    -0.453979158552E+01   -0.11204E-03   -0.43660E-04    36   0.125E-03-0.404E-04
DMP:  22    -0.453981974674E+01   -0.28161E-04   -0.43869E-04    36   0.983E-04 0.298E-04
   1 F= -.45398197E+01 E0= -.45398197E+01  d E =-.453982E+01  mag=     6.0000
