       N       E                     dE             d eps       ncg     rms          rms(c)
DAV:   1     0.138768253215E+03    0.13877E+03   -0.32431E+03   144   0.186E+02
DAV:   2     0.542637651561E+01   -0.13334E+03   -0.13315E+03   288   0.230E+01
DAV:   3    -0.127667859191E+01   -0.67031E+01   -0.66790E+01   144   0.156E+01
DAV:   4    -0.135666672904E+01   -0.79988E-01   -0.79951E-01   144   0.190E+00
DAV:   5    -0.135773108569E+01   -0.10644E-02   -0.10643E-02   144   0.275E-01    0.491E+00
DAV:   6    -0.828119932412E+00    0.52961E+00   -0.26163E+00   180   0.200E+00    0.414E+00
DAV:   7    -0.814289028224E+00    0.13831E-01   -0.94372E-01   144   0.166E+00    0.322E+00
DAV:   8    -0.100135080773E+01   -0.18706E+00   -0.25422E-01   144   0.103E+00    0.524E+00
DAV:   9    -0.101827413896E+01   -0.16923E-01   -0.22856E+00   144   0.149E+00    0.382E+00
DAV:  10    -0.114194005482E+01   -0.12367E+00   -0.94853E-02   144   0.648E-01    0.331E+00
DAV:  11    -0.115243756847E+01   -0.10498E-01   -0.76999E-02   144   0.555E-01    0.275E+00
DAV:  12    -0.113651819095E+01    0.15919E-01   -0.31726E-02   144   0.310E-01    0.231E+00
DAV:  13    -0.112397281466E+01    0.12545E-01   -0.16216E-02   144   0.232E-01    0.190E+00
DAV:  14    -0.111500645717E+01    0.89664E-02   -0.54191E-03   144   0.125E-01    0.153E+00
DAV:  15    -0.112545477778E+01   -0.10448E-01   -0.45159E-02   180   0.378E-01    0.415E+00
DAV:  16    -0.111329058797E+01    0.12164E-01   -0.99331E-03   144   0.316E-01    0.240E-01
DAV:  17    -0.110941326477E+01    0.38773E-02   -0.19743E-03   144   0.195E-01    0.724E-01
DAV:  18    -0.110925056583E+01    0.16270E-03   -0.28511E-04   144   0.492E-02    0.413E-01
DAV:  19    -0.110999901071E+01   -0.74844E-03   -0.29500E-04   144   0.515E-02    0.748E-01
DAV:  20    -0.110933839491E+01    0.66062E-03   -0.44894E-04   144   0.459E-02    0.640E-02
DAV:  21    -0.110917458743E+01    0.16381E-03   -0.16020E-04   144   0.502E-02    0.291E-02
DAV:  22    -0.110921654950E+01   -0.41962E-04   -0.19791E-05   180   0.130E-02
   1 F= -.11092165E+01 E0= -.10952828E+01  d E =-.110922E+01  mag=     2.0002
