<?xml version="1.0" encoding="ISO-8859-1"?>
<modeling>
 <generator>
  <i name="program" type="string">vasp </i>
  <i name="version" type="string">5.4.4.18Apr17-6-g9f103f2a35  </i>
  <i name="subversion" type="string">(build Nov 08 2019 15:19:53) gamma-only         parallel </i>
  <i name="platform" type="string">LinuxIFC </i>
  <i name="date" type="string">2020 11 30 </i>
  <i name="time" type="string">09:38:42 </i>
 </generator>
 <incar>
  <i type="string" name="PREC">accurate</i>
  <i type="string" name="ALGO"> N</i>
  <i type="int" name="ISPIN">     2</i>
  <i type="int" name="NELM">   300</i>
  <i type="int" name="IBRION">     2</i>
  <i name="EDIFF">      0.00005000</i>
  <i type="int" name="NSW">    99</i>
  <i type="int" name="ISIF">     2</i>
  <i name="ENCUT">    520.00000000</i>
  <v name="MAGMOM">      0.60000000</v>
  <i type="string" name="LREAL"> Auto</i>
  <i type="int" name="ISMEAR">     0</i>
  <i name="SIGMA">      0.05000000</i>
  <i type="logical" name="LWAVE"> F  </i>
  <i type="int" name="LORBIT">    11</i>
  <i type="logical" name="LASPH"> T  </i>
  <v type="int" name="KPOINT_BSE">    -1     0     0     0</v>
  <i type="int" name="NELM">   300</i>
  <i type="logical" name="LASPH"> T  </i>
 </incar>
 <structure name="primitive_cell" >
  <crystal>
   <varray name="basis" >
    <v>      10.00000000       0.00000000       0.00000000 </v>
    <v>       0.00000000      10.00000000       0.00000000 </v>
    <v>       0.00000000       0.00000000      10.00000000 </v>
   </varray>
   <i name="volume">   1000.00000000 </i>
   <varray name="rec_basis" >
    <v>       0.10000000       0.00000000       0.00000000 </v>
    <v>       0.00000000       0.10000000       0.00000000 </v>
    <v>       0.00000000       0.00000000       0.10000000 </v>
   </varray>
  </crystal>
  <varray name="positions" >
   <v>      -0.50000000      -0.50000000      -0.50000000 </v>
  </varray>
 </structure>
 <varray name="primitive_index" >
  <v type="int" >        1 </v>
 </varray>
 <kpoints>
  <generation param="Gamma">
   <v type="int" name="divisions">       1        1        1 </v>
   <v name="usershift">      0.00000000       0.00000000       0.00000000 </v>
   <v name="genvec1">      1.00000000       0.00000000       0.00000000 </v>
   <v name="genvec2">      0.00000000       1.00000000       0.00000000 </v>
   <v name="genvec3">      0.00000000       0.00000000       1.00000000 </v>
   <v name="shift">      0.00000000       0.00000000       0.00000000 </v>
  </generation>
  <varray name="kpointlist" >
   <v>       0.00000000       0.00000000       0.00000000 </v>
  </varray>
  <varray name="weights" >
   <v>       1.00000000 </v>
  </varray>
 </kpoints>
 <parameters>
  <separator name="general" >
   <i type="string" name="SYSTEM">unknown system</i>
   <i type="logical" name="LCOMPAT"> F  </i>
  </separator>
  <separator name="electronic" >
   <i type="string" name="PREC">accura</i>
   <i name="ENMAX">    520.00000000</i>
   <i name="ENAUG">    535.43100000</i>
   <i name="EDIFF">      0.00005000</i>
   <i type="int" name="IALGO">    38</i>
   <i type="int" name="IWAVPR">    11</i>
   <i type="int" name="NBANDS">    36</i>
   <i name="NELECT">     12.00000000</i>
   <i type="int" name="TURBO">     0</i>
   <i type="int" name="IRESTART">     0</i>
   <i type="int" name="NREBOOT">     0</i>
   <i type="int" name="NMIN">     0</i>
   <i name="EREF">      0.00000000</i>
   <separator name="electronic smearing" >
    <i type="int" name="ISMEAR">     0</i>
    <i name="SIGMA">      0.05000000</i>
    <i name="KSPACING">      0.50000000</i>
    <i type="logical" name="KGAMMA"> T  </i>
   </separator>
   <separator name="electronic projectors" >
    <i type="logical" name="LREAL"> T  </i>
    <v name="ROPT">     -0.00025000</v>
    <i type="int" name="LMAXPAW">  -100</i>
    <i type="int" name="LMAXMIX">     2</i>
    <i type="logical" name="NLSPLINE"> F  </i>
   </separator>
   <separator name="electronic startup" >
    <i type="int" name="ISTART">     0</i>
    <i type="int" name="ICHARG">     2</i>
    <i type="int" name="INIWAV">     1</i>
   </separator>
   <separator name="electronic spin" >
    <i type="int" name="ISPIN">     2</i>
    <i type="logical" name="LNONCOLLINEAR"> F  </i>
    <v name="MAGMOM">      0.60000000</v>
    <i name="NUPDOWN">     -1.00000000</i>
    <i type="logical" name="LSORBIT"> F  </i>
    <v name="SAXIS">      0.00000000      0.00000000      1.00000000</v>
    <i type="logical" name="LSPIRAL"> F  </i>
    <v name="QSPIRAL">      0.00000000      0.00000000      0.00000000</v>
    <i type="logical" name="LZEROZ"> F  </i>
   </separator>
   <separator name="electronic exchange-correlation" >
    <i type="logical" name="LASPH"> T  </i>
    <i type="logical" name="LMETAGGA"> F  </i>
   </separator>
   <separator name="electronic convergence" >
    <i type="int" name="NELM">   300</i>
    <i type="int" name="NELMDL">     0</i>
    <i type="int" name="NELMIN">     2</i>
    <i name="ENINI">    520.00000000</i>
    <separator name="electronic convergence detail" >
     <i type="logical" name="LDIAG"> T  </i>
     <i type="logical" name="LSUBROT"> F  </i>
     <i name="WEIMIN">      0.00100000</i>
     <i name="EBREAK">      0.00000035</i>
     <i name="DEPER">      0.30000000</i>
     <i type="int" name="NRMM">     4</i>
     <i name="TIME">      0.40000000</i>
    </separator>
   </separator>
   <separator name="electronic mixer" >
    <i name="AMIX">      0.40000000</i>
    <i name="BMIX">      1.00000000</i>
    <i name="AMIN">      0.10000000</i>
    <i name="AMIX_MAG">      1.60000000</i>
    <i name="BMIX_MAG">      1.00000000</i>
    <separator name="electronic mixer details" >
     <i type="int" name="IMIX">     4</i>
     <i type="logical" name="MIXFIRST"> F  </i>
     <i type="int" name="MAXMIX">   -45</i>
     <i name="WC">    100.00000000</i>
     <i type="int" name="INIMIX">     1</i>
     <i type="int" name="MIXPRE">     1</i>
     <i type="int" name="MREMOVE">     5</i>
    </separator>
   </separator>
   <separator name="electronic dipolcorrection" >
    <i type="logical" name="LDIPOL"> F  </i>
    <i type="logical" name="LMONO"> F  </i>
    <i type="int" name="IDIPOL">     0</i>
    <i name="EPSILON">      1.00000000</i>
    <v name="DIPOL">   -100.00000000   -100.00000000   -100.00000000</v>
    <i name="EFIELD">      0.00000000</i>
   </separator>
  </separator>
  <separator name="grids" >
   <i type="int" name="NGX">    80</i>
   <i type="int" name="NGY">    80</i>
   <i type="int" name="NGZ">    80</i>
   <i type="int" name="NGXF">   160</i>
   <i type="int" name="NGYF">   160</i>
   <i type="int" name="NGZF">   160</i>
   <i type="logical" name="ADDGRID"> F  </i>
  </separator>
  <separator name="ionic" >
   <i type="int" name="NSW">    99</i>
   <i type="int" name="IBRION">     2</i>
   <i type="int" name="MDALGO">     0</i>
   <i type="int" name="ISIF">     2</i>
   <i name="PSTRESS">      0.00000000</i>
   <i name="EDIFFG">      0.00050000</i>
   <i type="int" name="NFREE">     1</i>
   <i name="POTIM">      0.50000000</i>
   <i name="SMASS">     -3.00000000</i>
   <i name="SCALEE">      1.00000000</i>
  </separator>
  <separator name="ionic md" >
   <i name="TEBEG">      0.00010000</i>
   <i name="TEEND">      0.00010000</i>
   <i type="int" name="NBLOCK">     1</i>
   <i type="int" name="KBLOCK">    99</i>
   <i type="int" name="NPACO">   256</i>
   <i name="APACO">     16.00000000</i>
  </separator>
  <separator name="symmetry" >
   <i type="int" name="ISYM">     2</i>
   <i name="SYMPREC">      0.00001000</i>
  </separator>
  <separator name="dos" >
   <i type="int" name="LORBIT">    11</i>
   <v name="RWIGS">     -1.00000000</v>
   <i type="int" name="NEDOS">   301</i>
   <i name="EMIN">     10.00000000</i>
   <i name="EMAX">    -10.00000000</i>
   <i name="EFERMI">      0.00000000</i>
  </separator>
  <separator name="writing" >
   <i type="int" name="NWRITE">     2</i>
   <i type="logical" name="LWAVE"> F  </i>
   <i type="logical" name="LDOWNSAMPLE"> F  </i>
   <i type="logical" name="LCHARG"> T  </i>
   <i type="logical" name="LPARD"> F  </i>
   <i type="logical" name="LVTOT"> F  </i>
   <i type="logical" name="LVHAR"> F  </i>
   <i type="logical" name="LELF"> F  </i>
   <i type="logical" name="LOPTICS"> F  </i>
   <v name="STM">      0.00000000      0.00000000      0.00000000      0.00000000      0.00000000      0.00000000      0.00000000</v>
  </separator>
  <separator name="performance" >
   <i type="int" name="NPAR">    36</i>
   <i type="int" name="NSIM">     4</i>
   <i type="int" name="NBLK">    -1</i>
   <i type="logical" name="LPLANE"> T  </i>
   <i type="logical" name="LSCALAPACK"> T  </i>
   <i type="logical" name="LSCAAWARE"> F  </i>
   <i type="logical" name="LSCALU"> F  </i>
   <i type="logical" name="LASYNC"> F  </i>
   <i type="logical" name="LORBITALREAL"> F  </i>
  </separator>
  <separator name="miscellaneous" >
   <i type="int" name="IDIOT">     3</i>
   <i type="int" name="ISPECIAL">     0</i>
   <i type="logical" name="LMUSIC"> F  </i>
   <v name="POMASS">    232.03900000</v>
   <v name="DARWINR">      0.00000000</v>
   <v name="DARWINV">      1.00000000</v>
   <i type="logical" name="LCORR"> T  </i>
  </separator>
  <i type="logical" name="GGA_COMPAT"> T  </i>
  <i type="logical" name="LBERRY"> F  </i>
  <i type="int" name="ICORELEVEL">     0</i>
  <i type="logical" name="LDAU"> F  </i>
  <i type="int" name="I_CONSTRAINED_M">     0</i>
  <separator name="electronic exchange-correlation" >
   <i type="string" name="GGA">--</i>
   <i type="int" name="VOSKOWN">     0</i>
   <i type="logical" name="LHFCALC"> F  </i>
   <i type="string" name="PRECFOCK"></i>
   <i type="logical" name="LSYMGRAD"> F  </i>
   <i type="logical" name="LHFONE"> F  </i>
   <i type="logical" name="LRHFCALC"> F  </i>
   <i type="logical" name="LTHOMAS"> F  </i>
   <i type="logical" name="LMODELHF"> F  </i>
   <i name="ENCUT4O">     -1.00000000</i>
   <i type="int" name="EXXOEP">     0</i>
   <i type="int" name="FOURORBIT">     0</i>
   <i name="AEXX">      0.00000000</i>
   <i name="HFALPHA">      0.00000000</i>
   <i name="MCALPHA">      0.00000000</i>
   <i name="ALDAX">      1.00000000</i>
   <i name="AGGAX">      1.00000000</i>
   <i name="ALDAC">      1.00000000</i>
   <i name="AGGAC">      1.00000000</i>
   <i type="int" name="NKREDX">     1</i>
   <i type="int" name="NKREDY">     1</i>
   <i type="int" name="NKREDZ">     1</i>
   <i type="logical" name="SHIFTRED"> F  </i>
   <i type="logical" name="ODDONLY"> F  </i>
   <i type="logical" name="EVENONLY"> F  </i>
   <i type="int" name="LMAXFOCK">     0</i>
   <i type="int" name="NMAXFOCKAE">     0</i>
   <i type="logical" name="LFOCKAEDFT"> F  </i>
   <i name="HFSCREEN">      0.00000000</i>
   <i name="HFSCREENC">      0.00000000</i>
   <i type="int" name="NBANDSGWLOW">     0</i>
  </separator>
  <separator name="vdW DFT" >
   <i type="logical" name="LUSE_VDW"> F  </i>
   <i name="Zab_VDW">     -0.84910000</i>
   <i name="PARAM1">      0.12340000</i>
   <i name="PARAM2">      1.00000000</i>
   <i name="PARAM3">      0.00000000</i>
  </separator>
  <separator name="model GW" >
   <i type="int" name="MODEL_GW">     0</i>
   <i name="MODEL_EPS0">    600.00000000</i>
   <i name="MODEL_ALPHA">      1.00000000</i>
  </separator>
  <separator name="linear response parameters" >
   <i type="logical" name="LEPSILON"> F  </i>
   <i type="logical" name="LRPA"> F  </i>
   <i type="logical" name="LNABLA"> F  </i>
   <i type="logical" name="LVEL"> F  </i>
   <i type="int" name="KINTER">     0</i>
   <i name="CSHIFT">      0.10000000</i>
   <i name="OMEGAMAX">     -1.00000000</i>
   <i name="DEG_THRESHOLD">      0.00200000</i>
   <i name="RTIME">     -0.10000000</i>
   <i name="WPLASMAI">      0.00000000</i>
   <v name="DFIELD">      0.00000000      0.00000000      0.00000000</v>
   <v name="WPLASMA">      0.00000000      0.00000000      0.00000000      0.00000000      0.00000000      0.00000000      0.00000000      0.00000000      0.00000000</v>
  </separator>
  <separator name="orbital magnetization" >
   <i type="logical" name="NUCIND"> F  </i>
   <v name="MAGPOS">      0.00000000      0.00000000      0.00000000</v>
   <i type="logical" name="LNICSALL"> T  </i>
   <i type="logical" name="ORBITALMAG"> F  </i>
   <i type="logical" name="LMAGBLOCH"> F  </i>
   <i type="logical" name="LCHIMAG"> F  </i>
   <i type="logical" name="LGAUGE"> T  </i>
   <i type="int" name="MAGATOM">     0</i>
   <v name="MAGDIPOL">      0.00000000      0.00000000      0.00000000</v>
   <v name="AVECCONST">      0.00000000      0.00000000      0.00000000</v>
  </separator>
  <separator name="response functions" >
   <i type="logical" name="LADDER"> F  </i>
   <i type="logical" name="LRPAFORCE"> F  </i>
   <i type="logical" name="LFXC"> F  </i>
   <i type="logical" name="LHARTREE"> T  </i>
   <i type="int" name="IBSE">     0</i>
   <v type="int" name="KPOINT">    -1     0     0     0</v>
   <i type="logical" name="LTCTE"> F  </i>
   <i type="logical" name="LTETE"> F  </i>
   <i type="logical" name="LTRIPLET"> F  </i>
   <i type="logical" name="LFXCEPS"> F  </i>
   <i type="logical" name="LFXHEG"> F  </i>
   <i type="int" name="NATURALO">     2</i>
   <i type="logical" name="L2ORDER"> F  </i>
   <i type="logical" name="LMP2LT"> F  </i>
   <i type="logical" name="LUSEW"> F  </i>
   <i name="ENCUTGW">     -2.00000000</i>
   <i name="ENCUTGWSOFT">     -2.00000000</i>
   <i name="ENCUTLF">     -1.00000000</i>
   <i type="int" name="LMAXMP2">    -1</i>
   <i name="SCISSOR">      0.00000000</i>
   <i type="int" name="NOMEGA">     0</i>
   <i type="int" name="NOMEGAR">     0</i>
   <i type="int" name="NBANDSGW">    -1</i>
   <i type="int" name="NBANDSO">    -1</i>
   <i type="int" name="NBANDSV">    -1</i>
   <i type="int" name="NELM">   300</i>
   <i type="int" name="NELMHF">     1</i>
   <i type="int" name="DIM">     3</i>
   <i type="int" name="ANTIRES">     0</i>
   <i name="OMEGAMAX">    -30.00000000</i>
   <i name="OMEGAMIN">    -30.00000000</i>
   <i name="OMEGATL">   -200.00000000</i>
   <i type="int" name="OMEGAGRID">   140</i>
   <i name="CSHIFT">     -0.10000000</i>
   <i type="logical" name="SELFENERGY"> F  </i>
   <i type="logical" name="LSPECTRAL"> F  </i>
   <i type="logical" name="LSPECTRALGW"> F  </i>
   <i type="logical" name="LSINGLES"> F  </i>
   <i type="logical" name="LFERMIGW"> F  </i>
   <i type="logical" name="ODDONLYGW"> F  </i>
   <i type="logical" name="EVENONLYGW"> F  </i>
   <i type="int" name="NKREDLFX">     1</i>
   <i type="int" name="NKREDLFY">     1</i>
   <i type="int" name="NKREDLFZ">     1</i>
   <i type="int" name="MAXMEM">  2800</i>
   <i type="int" name="TELESCOPE">     0</i>
   <i type="int" name="TAUPAR">     1</i>
   <i type="int" name="OMEGAPAR">    -1</i>
   <i name="LAMBDA">      1.00000000</i>
  </separator>
  <separator name="External order field" >
   <i name="OFIELD_KAPPA">      0.00000000</i>
   <v name="OFIELD_K">      0.00000000      0.00000000      0.00000000</v>
   <i name="OFIELD_Q6_NEAR">      0.00000000</i>
   <i name="OFIELD_Q6_FAR">      0.00000000</i>
   <i name="OFIELD_A">      0.00000000</i>
  </separator>
 </parameters>
 <atominfo>
  <atoms>       1 </atoms>
  <types>       1 </types>
  <array name="atoms" >
   <dimension dim="1">ion</dimension>
   <field type="string">element</field>
   <field type="int">atomtype</field>
   <set>
    <rc><c>Th</c><c>   1</c></rc>
   </set>
  </array>
  <array name="atomtypes" >
   <dimension dim="1">type</dimension>
   <field type="int">atomspertype</field>
   <field type="string">element</field>
   <field>mass</field>
   <field>valence</field>
   <field type="string">pseudopotential</field>
   <set>
    <rc><c>   1</c><c>Th</c><c>    232.03900000</c><c>     12.00000000</c><c>  PAW_PBE Th 07Sep2000                  </c></rc>
   </set>
  </array>
 </atominfo>
 <structure name="initialpos" >
  <crystal>
   <varray name="basis" >
    <v>      10.00000000       0.00000000       0.00000000 </v>
    <v>       0.00000000      10.00000000       0.00000000 </v>
    <v>       0.00000000       0.00000000      10.00000000 </v>
   </varray>
   <i name="volume">   1000.00000000 </i>
   <varray name="rec_basis" >
    <v>       0.10000000       0.00000000       0.00000000 </v>
    <v>       0.00000000       0.10000000       0.00000000 </v>
    <v>       0.00000000       0.00000000       0.10000000 </v>
   </varray>
  </crystal>
  <varray name="positions" >
   <v>       0.50000000       0.50000000       0.50000000 </v>
  </varray>
 </structure>
 <calculation>
  <scstep>
   <time name="dav">    0.23    0.23</time>
   <time name="total">    1.24    1.25</time>
   <energy>
    <i name="alphaZ">      3.06064392 </i>
    <i name="ewald">   -294.16665608 </i>
    <i name="hartreedc">   -503.01562280 </i>
    <i name="XCdc">     10.01981229 </i>
    <i name="pawpsdc">    778.16021875 </i>
    <i name="pawaedc">   -757.83971502 </i>
    <i name="eentropy">     -0.00000185 </i>
    <i name="bandstr">    -82.20477009 </i>
    <i name="atom">    984.75434408 </i>
    <i name="e_fr_energy">    138.76825321 </i>
    <i name="e_wo_entrp">    138.76825506 </i>
    <i name="e_0_energy">    138.76825414 </i>
   </energy>
  </scstep>
  <scstep>
   <time name="dav">    0.44    0.44</time>
   <time name="total">    0.44    0.44</time>
   <energy>
    <i name="e_fr_energy">      5.42637652 </i>
    <i name="e_wo_entrp">      5.45055148 </i>
    <i name="e_0_energy">      5.43846400 </i>
   </energy>
  </scstep>
  <scstep>
   <time name="dav">    0.22    0.22</time>
   <time name="total">    0.22    0.22</time>
   <energy>
    <i name="e_fr_energy">     -1.27667859 </i>
    <i name="e_wo_entrp">     -1.21211679 </i>
    <i name="e_0_energy">     -1.24439769 </i>
   </energy>
  </scstep>
  <scstep>
   <time name="dav">    0.23    0.23</time>
   <time name="total">    0.23    0.23</time>
   <energy>
    <i name="e_fr_energy">     -1.35666673 </i>
    <i name="e_wo_entrp">     -1.29271197 </i>
    <i name="e_0_energy">     -1.32468935 </i>
   </energy>
  </scstep>
  <scstep>
   <time name="dav">    0.22    0.22</time>
   <time name="total">    0.45    0.46</time>
   <energy>
    <i name="e_fr_energy">     -1.35773109 </i>
    <i name="e_wo_entrp">     -1.29378734 </i>
    <i name="e_0_energy">     -1.32575921 </i>
   </energy>
  </scstep>
  <scstep>
   <time name="dav">    0.28    0.28</time>
   <time name="total">    1.48    1.48</time>
   <energy>
    <i name="e_fr_energy">     -0.82811993 </i>
    <i name="e_wo_entrp">     -0.82563454 </i>
    <i name="e_0_energy">     -0.82687724 </i>
   </energy>
  </scstep>
  <scstep>
   <time name="dav">    0.24    0.24</time>
   <time name="total">    1.45    1.45</time>
   <energy>
    <i name="e_fr_energy">     -0.81428903 </i>
    <i name="e_wo_entrp">     -0.80002588 </i>
    <i name="e_0_energy">     -0.80715746 </i>
   </energy>
  </scstep>
  <scstep>
   <time name="dav">    0.22    0.22</time>
   <time name="total">    1.42    1.42</time>
   <energy>
    <i name="e_fr_energy">     -1.00135081 </i>
    <i name="e_wo_entrp">     -0.93756313 </i>
    <i name="e_0_energy">     -0.96945697 </i>
   </energy>
  </scstep>
  <scstep>
   <time name="dav">    0.22    0.22</time>
   <time name="total">    1.42    1.42</time>
   <energy>
    <i name="e_fr_energy">     -1.01827414 </i>
    <i name="e_wo_entrp">     -1.01768203 </i>
    <i name="e_0_energy">     -1.01797809 </i>
   </energy>
  </scstep>
  <scstep>
   <time name="dav">    0.24    0.24</time>
   <time name="total">    1.43    1.43</time>
   <energy>
    <i name="e_fr_energy">     -1.14194005 </i>
    <i name="e_wo_entrp">     -1.14193988 </i>
    <i name="e_0_energy">     -1.14193997 </i>
   </energy>
  </scstep>
  <scstep>
   <time name="dav">    0.22    0.22</time>
   <time name="total">    1.42    1.42</time>
   <energy>
    <i name="e_fr_energy">     -1.15243757 </i>
    <i name="e_wo_entrp">     -1.15243676 </i>
    <i name="e_0_energy">     -1.15243716 </i>
   </energy>
  </scstep>
  <scstep>
   <time name="dav">    0.23    0.23</time>
   <time name="total">    1.42    1.42</time>
   <energy>
    <i name="e_fr_energy">     -1.13651819 </i>
    <i name="e_wo_entrp">     -1.13637950 </i>
    <i name="e_0_energy">     -1.13644884 </i>
   </energy>
  </scstep>
  <scstep>
   <time name="dav">    0.22    0.22</time>
   <time name="total">    1.42    1.42</time>
   <energy>
    <i name="e_fr_energy">     -1.12397281 </i>
    <i name="e_wo_entrp">     -1.12224477 </i>
    <i name="e_0_energy">     -1.12310879 </i>
   </energy>
  </scstep>
  <scstep>
   <time name="dav">    0.22    0.22</time>
   <time name="total">    1.43    1.43</time>
   <energy>
    <i name="e_fr_energy">     -1.11500646 </i>
    <i name="e_wo_entrp">     -1.10834048 </i>
    <i name="e_0_energy">     -1.11167347 </i>
   </energy>
  </scstep>
  <scstep>
   <time name="dav">    0.27    0.27</time>
   <time name="total">    1.47    1.47</time>
   <energy>
    <i name="e_fr_energy">     -1.12545478 </i>
    <i name="e_wo_entrp">     -1.06343624 </i>
    <i name="e_0_energy">     -1.09444551 </i>
   </energy>
  </scstep>
  <scstep>
   <time name="dav">    0.22    0.22</time>
   <time name="total">    1.42    1.42</time>
   <energy>
    <i name="e_fr_energy">     -1.11329059 </i>
    <i name="e_wo_entrp">     -1.08336080 </i>
    <i name="e_0_energy">     -1.09832570 </i>
   </energy>
  </scstep>
  <scstep>
   <time name="dav">    0.23    0.23</time>
   <time name="total">    1.42    1.42</time>
   <energy>
    <i name="e_fr_energy">     -1.10941326 </i>
    <i name="e_wo_entrp">     -1.07342127 </i>
    <i name="e_0_energy">     -1.09141727 </i>
   </energy>
  </scstep>
  <scstep>
   <time name="dav">    0.22    0.22</time>
   <time name="total">    1.42    1.42</time>
   <energy>
    <i name="e_fr_energy">     -1.10925057 </i>
    <i name="e_wo_entrp">     -1.07696701 </i>
    <i name="e_0_energy">     -1.09310879 </i>
   </energy>
  </scstep>
  <scstep>
   <time name="dav">    0.22    0.22</time>
   <time name="total">    1.42    1.42</time>
   <energy>
    <i name="e_fr_energy">     -1.10999901 </i>
    <i name="e_wo_entrp">     -1.07393120 </i>
    <i name="e_0_energy">     -1.09196510 </i>
   </energy>
  </scstep>
  <scstep>
   <time name="dav">    0.22    0.22</time>
   <time name="total">    1.43    1.43</time>
   <energy>
    <i name="e_fr_energy">     -1.10933839 </i>
    <i name="e_wo_entrp">     -1.08132433 </i>
    <i name="e_0_energy">     -1.09533136 </i>
   </energy>
  </scstep>
  <scstep>
   <time name="dav">    0.22    0.22</time>
   <time name="total">    1.43    1.44</time>
   <energy>
    <i name="e_fr_energy">     -1.10917459 </i>
    <i name="e_wo_entrp">     -1.08140860 </i>
    <i name="e_0_energy">     -1.09529159 </i>
   </energy>
  </scstep>
  <scstep>
   <time name="dav">    0.27    0.27</time>
   <time name="total">    1.25    1.26</time>
   <energy>
    <i name="alphaZ">      3.06064392 </i>
    <i name="ewald">   -294.16665608 </i>
    <i name="hartreedc">   -485.68698919 </i>
    <i name="XCdc">      9.93783378 </i>
    <i name="pawpsdc">    805.33824779 </i>
    <i name="pawaedc">   -786.70473728 </i>
    <i name="eentropy">     -0.02786752 </i>
    <i name="bandstr">   -237.61403605 </i>
    <i name="atom">    984.75434408 </i>
    <i name="e_fr_energy">     -1.10921655 </i>
    <i name="e_wo_entrp">     -1.08134903 </i>
    <i name="e_0_energy">     -1.09528279 </i>
   </energy>
  </scstep>
  <structure>
   <crystal>
    <varray name="basis" >
     <v>      10.00000000       0.00000000       0.00000000 </v>
     <v>       0.00000000      10.00000000       0.00000000 </v>
     <v>       0.00000000       0.00000000      10.00000000 </v>
    </varray>
    <i name="volume">   1000.00000000 </i>
    <varray name="rec_basis" >
     <v>       0.10000000       0.00000000       0.00000000 </v>
     <v>       0.00000000       0.10000000       0.00000000 </v>
     <v>       0.00000000       0.00000000       0.10000000 </v>
    </varray>
   </crystal>
   <varray name="positions" >
    <v>       0.50000000       0.50000000       0.50000000 </v>
   </varray>
  </structure>
  <varray name="forces" >
   <v>       0.00000000       0.00000000       0.00000000 </v>
  </varray>
  <varray name="stress" >
   <v>      -0.08475631       0.00000000       0.00000000 </v>
   <v>      -0.00000000      -0.08475631      -0.00000000 </v>
   <v>      -0.00000000       0.00000000      -0.08475631 </v>
  </varray>
  <energy>
   <i name="e_fr_energy">     -1.10921655 </i>
   <i name="e_wo_entrp">     -1.09528279 </i>
   <i name="e_0_energy">     -0.02786752 </i>
  </energy>
  <time name="totalsc">   34.69   34.92</time>
  <eigenvalues>
   <array>
    <dimension dim="1">band</dimension>
    <dimension dim="2">kpoint</dimension>
    <dimension dim="3">spin</dimension>
    <field>eigene</field>
    <field>occ</field>
    <set>
     <set comment="spin 1">
      <set comment="kpoint 1">
       <r>  -44.9641    1.0000 </r>
       <r>  -22.7140    1.0000 </r>
       <r>  -22.7140    1.0000 </r>
       <r>  -22.7140    1.0000 </r>
       <r>   -4.0826    1.0000 </r>
       <r>   -3.0804    0.8910 </r>
       <r>   -3.0804    0.8910 </r>
       <r>   -2.9853    0.0726 </r>
       <r>   -2.9853    0.0726 </r>
       <r>   -2.9853    0.0726 </r>
       <r>   -2.8963    0.0000 </r>
       <r>   -2.8963    0.0000 </r>
       <r>   -2.8963    0.0000 </r>
       <r>   -2.8263    0.0000 </r>
       <r>   -2.5634    0.0000 </r>
       <r>   -2.5634    0.0000 </r>
       <r>   -2.5634    0.0000 </r>
       <r>   -0.7684    0.0000 </r>
       <r>   -0.7684    0.0000 </r>
       <r>   -0.7684    0.0000 </r>
       <r>   -0.0338    0.0000 </r>
       <r>    0.8778    0.0000 </r>
       <r>    0.8778    0.0000 </r>
       <r>    1.7689    0.0000 </r>
       <r>    1.7689    0.0000 </r>
       <r>    1.7689    0.0000 </r>
       <r>    2.0852    0.0000 </r>
       <r>    2.2162    0.0000 </r>
       <r>    2.2162    0.0000 </r>
       <r>    2.2162    0.0000 </r>
       <r>    2.2961    0.0000 </r>
       <r>    2.2961    0.0000 </r>
       <r>    2.2961    0.0000 </r>
       <r>    2.5399    0.0000 </r>
       <r>    2.5399    0.0000 </r>
       <r>    3.3576    0.0000 </r>
      </set>
     </set>
     <set comment="spin 2">
      <set comment="kpoint 1">
       <r>  -44.5669    1.0000 </r>
       <r>  -22.0861    1.0000 </r>
       <r>  -22.0861    1.0000 </r>
       <r>  -22.0861    1.0000 </r>
       <r>   -3.4599    1.0000 </r>
       <r>   -2.7562    0.0000 </r>
       <r>   -2.5578    0.0000 </r>
       <r>   -2.5578    0.0000 </r>
       <r>   -2.5578    0.0000 </r>
       <r>   -2.3520    0.0000 </r>
       <r>   -2.3520    0.0000 </r>
       <r>   -2.3520    0.0000 </r>
       <r>   -2.1541    0.0000 </r>
       <r>   -2.1541    0.0000 </r>
       <r>   -2.1541    0.0000 </r>
       <r>   -1.7570    0.0000 </r>
       <r>   -1.7570    0.0000 </r>
       <r>   -0.4150    0.0000 </r>
       <r>   -0.4150    0.0000 </r>
       <r>   -0.4150    0.0000 </r>
       <r>    0.0416    0.0000 </r>
       <r>    1.0749    0.0000 </r>
       <r>    1.0749    0.0000 </r>
       <r>    1.8683    0.0000 </r>
       <r>    1.8683    0.0000 </r>
       <r>    1.8683    0.0000 </r>
       <r>    2.1522    0.0000 </r>
       <r>    2.2995    0.0000 </r>
       <r>    2.2995    0.0000 </r>
       <r>    2.2995    0.0000 </r>
       <r>    2.3585    0.0000 </r>
       <r>    2.3585    0.0000 </r>
       <r>    2.3585    0.0000 </r>
       <r>    2.6186    0.0000 </r>
       <r>    2.6186    0.0000 </r>
       <r>    3.3456    0.0000 </r>
      </set>
     </set>
    </set>
   </array>
  </eigenvalues>
  <separator name="orbital magnetization" >
   <v name="MAGDIPOLOUT">      0.00000000      0.00000000      0.00000000</v>
  </separator>
  <dos>
   <i name="efermi">     -3.03684725 </i>
   <total>
    <array>
     <dimension dim="1">gridpoints</dimension>
     <dimension dim="2">spin</dimension>
     <field>energy</field>
     <field>total</field>
     <field>integrated</field>
     <set>
      <set comment="spin 1">
       <r>   -47.3802     0.0000     0.0000 </r>
       <r>   -47.2030     0.0000     0.0000 </r>
       <r>   -47.0258     0.0000     0.0000 </r>
       <r>   -46.8486     0.0000     0.0000 </r>
       <r>   -46.6715     0.0000     0.0000 </r>
       <r>   -46.4943     0.0000     0.0000 </r>
       <r>   -46.3171     0.0000     0.0000 </r>
       <r>   -46.1399     0.0000     0.0000 </r>
       <r>   -45.9628     0.0000     0.0000 </r>
       <r>   -45.7856     0.0000     0.0000 </r>
       <r>   -45.6084     0.0000     0.0000 </r>
       <r>   -45.4312     0.0000     0.0000 </r>
       <r>   -45.2540     0.0000     0.0000 </r>
       <r>   -45.0769     0.0040     0.0007 </r>
       <r>   -44.8997     5.4469     0.9658 </r>
       <r>   -44.7225     0.1930     1.0000 </r>
       <r>   -44.5453     0.0000     1.0000 </r>
       <r>   -44.3681     0.0000     1.0000 </r>
       <r>   -44.1910     0.0000     1.0000 </r>
       <r>   -44.0138     0.0000     1.0000 </r>
       <r>   -43.8366     0.0000     1.0000 </r>
       <r>   -43.6594     0.0000     1.0000 </r>
       <r>   -43.4822     0.0000     1.0000 </r>
       <r>   -43.3051     0.0000     1.0000 </r>
       <r>   -43.1279     0.0000     1.0000 </r>
       <r>   -42.9507     0.0000     1.0000 </r>
       <r>   -42.7735     0.0000     1.0000 </r>
       <r>   -42.5963     0.0000     1.0000 </r>
       <r>   -42.4192     0.0000     1.0000 </r>
       <r>   -42.2420     0.0000     1.0000 </r>
       <r>   -42.0648     0.0000     1.0000 </r>
       <r>   -41.8876     0.0000     1.0000 </r>
       <r>   -41.7104     0.0000     1.0000 </r>
       <r>   -41.5333     0.0000     1.0000 </r>
       <r>   -41.3561     0.0000     1.0000 </r>
       <r>   -41.1789     0.0000     1.0000 </r>
       <r>   -41.0017     0.0000     1.0000 </r>
       <r>   -40.8245     0.0000     1.0000 </r>
       <r>   -40.6474     0.0000     1.0000 </r>
       <r>   -40.4702     0.0000     1.0000 </r>
       <r>   -40.2930     0.0000     1.0000 </r>
       <r>   -40.1158     0.0000     1.0000 </r>
       <r>   -39.9386     0.0000     1.0000 </r>
       <r>   -39.7615     0.0000     1.0000 </r>
       <r>   -39.5843     0.0000     1.0000 </r>
       <r>   -39.4071     0.0000     1.0000 </r>
       <r>   -39.2299     0.0000     1.0000 </r>
       <r>   -39.0527     0.0000     1.0000 </r>
       <r>   -38.8756     0.0000     1.0000 </r>
       <r>   -38.6984     0.0000     1.0000 </r>
       <r>   -38.5212     0.0000     1.0000 </r>
       <r>   -38.3440     0.0000     1.0000 </r>
       <r>   -38.1668     0.0000     1.0000 </r>
       <r>   -37.9897     0.0000     1.0000 </r>
       <r>   -37.8125     0.0000     1.0000 </r>
       <r>   -37.6353     0.0000     1.0000 </r>
       <r>   -37.4581     0.0000     1.0000 </r>
       <r>   -37.2810     0.0000     1.0000 </r>
       <r>   -37.1038     0.0000     1.0000 </r>
       <r>   -36.9266     0.0000     1.0000 </r>
       <r>   -36.7494     0.0000     1.0000 </r>
       <r>   -36.5722     0.0000     1.0000 </r>
       <r>   -36.3951     0.0000     1.0000 </r>
       <r>   -36.2179     0.0000     1.0000 </r>
       <r>   -36.0407     0.0000     1.0000 </r>
       <r>   -35.8635     0.0000     1.0000 </r>
       <r>   -35.6863     0.0000     1.0000 </r>
       <r>   -35.5092     0.0000     1.0000 </r>
       <r>   -35.3320     0.0000     1.0000 </r>
       <r>   -35.1548     0.0000     1.0000 </r>
       <r>   -34.9776     0.0000     1.0000 </r>
       <r>   -34.8004     0.0000     1.0000 </r>
       <r>   -34.6233     0.0000     1.0000 </r>
       <r>   -34.4461     0.0000     1.0000 </r>
       <r>   -34.2689     0.0000     1.0000 </r>
       <r>   -34.0917     0.0000     1.0000 </r>
       <r>   -33.9145     0.0000     1.0000 </r>
       <r>   -33.7374     0.0000     1.0000 </r>
       <r>   -33.5602     0.0000     1.0000 </r>
       <r>   -33.3830     0.0000     1.0000 </r>
       <r>   -33.2058     0.0000     1.0000 </r>
       <r>   -33.0286     0.0000     1.0000 </r>
       <r>   -32.8515     0.0000     1.0000 </r>
       <r>   -32.6743     0.0000     1.0000 </r>
       <r>   -32.4971     0.0000     1.0000 </r>
       <r>   -32.3199     0.0000     1.0000 </r>
       <r>   -32.1427     0.0000     1.0000 </r>
       <r>   -31.9656     0.0000     1.0000 </r>
       <r>   -31.7884     0.0000     1.0000 </r>
       <r>   -31.6112     0.0000     1.0000 </r>
       <r>   -31.4340     0.0000     1.0000 </r>
       <r>   -31.2568     0.0000     1.0000 </r>
       <r>   -31.0797     0.0000     1.0000 </r>
       <r>   -30.9025     0.0000     1.0000 </r>
       <r>   -30.7253     0.0000     1.0000 </r>
       <r>   -30.5481     0.0000     1.0000 </r>
       <r>   -30.3709     0.0000     1.0000 </r>
       <r>   -30.1938     0.0000     1.0000 </r>
       <r>   -30.0166     0.0000     1.0000 </r>
       <r>   -29.8394     0.0000     1.0000 </r>
       <r>   -29.6622     0.0000     1.0000 </r>
       <r>   -29.4850     0.0000     1.0000 </r>
       <r>   -29.3079     0.0000     1.0000 </r>
       <r>   -29.1307     0.0000     1.0000 </r>
       <r>   -28.9535     0.0000     1.0000 </r>
       <r>   -28.7763     0.0000     1.0000 </r>
       <r>   -28.5991     0.0000     1.0000 </r>
       <r>   -28.4220     0.0000     1.0000 </r>
       <r>   -28.2448     0.0000     1.0000 </r>
       <r>   -28.0676     0.0000     1.0000 </r>
       <r>   -27.8904     0.0000     1.0000 </r>
       <r>   -27.7133     0.0000     1.0000 </r>
       <r>   -27.5361     0.0000     1.0000 </r>
       <r>   -27.3589     0.0000     1.0000 </r>
       <r>   -27.1817     0.0000     1.0000 </r>
       <r>   -27.0045     0.0000     1.0000 </r>
       <r>   -26.8274     0.0000     1.0000 </r>
       <r>   -26.6502     0.0000     1.0000 </r>
       <r>   -26.4730     0.0000     1.0000 </r>
       <r>   -26.2958     0.0000     1.0000 </r>
       <r>   -26.1186     0.0000     1.0000 </r>
       <r>   -25.9415     0.0000     1.0000 </r>
       <r>   -25.7643     0.0000     1.0000 </r>
       <r>   -25.5871     0.0000     1.0000 </r>
       <r>   -25.4099     0.0000     1.0000 </r>
       <r>   -25.2327     0.0000     1.0000 </r>
       <r>   -25.0556     0.0000     1.0000 </r>
       <r>   -24.8784     0.0000     1.0000 </r>
       <r>   -24.7012     0.0000     1.0000 </r>
       <r>   -24.5240     0.0000     1.0000 </r>
       <r>   -24.3468     0.0000     1.0000 </r>
       <r>   -24.1697     0.0000     1.0000 </r>
       <r>   -23.9925     0.0000     1.0000 </r>
       <r>   -23.8153     0.0000     1.0000 </r>
       <r>   -23.6381     0.0000     1.0000 </r>
       <r>   -23.4609     0.0000     1.0000 </r>
       <r>   -23.2838     0.0000     1.0000 </r>
       <r>   -23.1066     0.0000     1.0000 </r>
       <r>   -22.9294     0.0000     1.0000 </r>
       <r>   -22.7522     2.3668     1.4193 </r>
       <r>   -22.5750    14.5645     3.9999 </r>
       <r>   -22.3979     0.0007     4.0000 </r>
       <r>   -22.2207     0.0000     4.0000 </r>
       <r>   -22.0435     0.0000     4.0000 </r>
       <r>   -21.8663     0.0000     4.0000 </r>
       <r>   -21.6891     0.0000     4.0000 </r>
       <r>   -21.5120     0.0000     4.0000 </r>
       <r>   -21.3348     0.0000     4.0000 </r>
       <r>   -21.1576     0.0000     4.0000 </r>
       <r>   -20.9804     0.0000     4.0000 </r>
       <r>   -20.8032     0.0000     4.0000 </r>
       <r>   -20.6261     0.0000     4.0000 </r>
       <r>   -20.4489     0.0000     4.0000 </r>
       <r>   -20.2717     0.0000     4.0000 </r>
       <r>   -20.0945     0.0000     4.0000 </r>
       <r>   -19.9173     0.0000     4.0000 </r>
       <r>   -19.7402     0.0000     4.0000 </r>
       <r>   -19.5630     0.0000     4.0000 </r>
       <r>   -19.3858     0.0000     4.0000 </r>
       <r>   -19.2086     0.0000     4.0000 </r>
       <r>   -19.0315     0.0000     4.0000 </r>
       <r>   -18.8543     0.0000     4.0000 </r>
       <r>   -18.6771     0.0000     4.0000 </r>
       <r>   -18.4999     0.0000     4.0000 </r>
       <r>   -18.3227     0.0000     4.0000 </r>
       <r>   -18.1456     0.0000     4.0000 </r>
       <r>   -17.9684     0.0000     4.0000 </r>
       <r>   -17.7912     0.0000     4.0000 </r>
       <r>   -17.6140     0.0000     4.0000 </r>
       <r>   -17.4368     0.0000     4.0000 </r>
       <r>   -17.2597     0.0000     4.0000 </r>
       <r>   -17.0825     0.0000     4.0000 </r>
       <r>   -16.9053     0.0000     4.0000 </r>
       <r>   -16.7281     0.0000     4.0000 </r>
       <r>   -16.5509     0.0000     4.0000 </r>
       <r>   -16.3738     0.0000     4.0000 </r>
       <r>   -16.1966     0.0000     4.0000 </r>
       <r>   -16.0194     0.0000     4.0000 </r>
       <r>   -15.8422     0.0000     4.0000 </r>
       <r>   -15.6650     0.0000     4.0000 </r>
       <r>   -15.4879     0.0000     4.0000 </r>
       <r>   -15.3107     0.0000     4.0000 </r>
       <r>   -15.1335     0.0000     4.0000 </r>
       <r>   -14.9563     0.0000     4.0000 </r>
       <r>   -14.7791     0.0000     4.0000 </r>
       <r>   -14.6020     0.0000     4.0000 </r>
       <r>   -14.4248     0.0000     4.0000 </r>
       <r>   -14.2476     0.0000     4.0000 </r>
       <r>   -14.0704     0.0000     4.0000 </r>
       <r>   -13.8932     0.0000     4.0000 </r>
       <r>   -13.7161     0.0000     4.0000 </r>
       <r>   -13.5389     0.0000     4.0000 </r>
       <r>   -13.3617     0.0000     4.0000 </r>
       <r>   -13.1845     0.0000     4.0000 </r>
       <r>   -13.0073     0.0000     4.0000 </r>
       <r>   -12.8302     0.0000     4.0000 </r>
       <r>   -12.6530     0.0000     4.0000 </r>
       <r>   -12.4758     0.0000     4.0000 </r>
       <r>   -12.2986     0.0000     4.0000 </r>
       <r>   -12.1214     0.0000     4.0000 </r>
       <r>   -11.9443     0.0000     4.0000 </r>
       <r>   -11.7671     0.0000     4.0000 </r>
       <r>   -11.5899     0.0000     4.0000 </r>
       <r>   -11.4127     0.0000     4.0000 </r>
       <r>   -11.2355     0.0000     4.0000 </r>
       <r>   -11.0584     0.0000     4.0000 </r>
       <r>   -10.8812     0.0000     4.0000 </r>
       <r>   -10.7040     0.0000     4.0000 </r>
       <r>   -10.5268     0.0000     4.0000 </r>
       <r>   -10.3497     0.0000     4.0000 </r>
       <r>   -10.1725     0.0000     4.0000 </r>
       <r>    -9.9953     0.0000     4.0000 </r>
       <r>    -9.8181     0.0000     4.0000 </r>
       <r>    -9.6409     0.0000     4.0000 </r>
       <r>    -9.4638     0.0000     4.0000 </r>
       <r>    -9.2866     0.0000     4.0000 </r>
       <r>    -9.1094     0.0000     4.0000 </r>
       <r>    -8.9322     0.0000     4.0000 </r>
       <r>    -8.7550     0.0000     4.0000 </r>
       <r>    -8.5779     0.0000     4.0000 </r>
       <r>    -8.4007     0.0000     4.0000 </r>
       <r>    -8.2235     0.0000     4.0000 </r>
       <r>    -8.0463     0.0000     4.0000 </r>
       <r>    -7.8691     0.0000     4.0000 </r>
       <r>    -7.6920     0.0000     4.0000 </r>
       <r>    -7.5148     0.0000     4.0000 </r>
       <r>    -7.3376     0.0000     4.0000 </r>
       <r>    -7.1604     0.0000     4.0000 </r>
       <r>    -6.9832     0.0000     4.0000 </r>
       <r>    -6.8061     0.0000     4.0000 </r>
       <r>    -6.6289     0.0000     4.0000 </r>
       <r>    -6.4517     0.0000     4.0000 </r>
       <r>    -6.2745     0.0000     4.0000 </r>
       <r>    -6.0973     0.0000     4.0000 </r>
       <r>    -5.9202     0.0000     4.0000 </r>
       <r>    -5.7430     0.0000     4.0000 </r>
       <r>    -5.5658     0.0000     4.0000 </r>
       <r>    -5.3886     0.0000     4.0000 </r>
       <r>    -5.2114     0.0000     4.0000 </r>
       <r>    -5.0343     0.0000     4.0000 </r>
       <r>    -4.8571     0.0000     4.0000 </r>
       <r>    -4.6799     0.0000     4.0000 </r>
       <r>    -4.5027     0.0000     4.0000 </r>
       <r>    -4.3255     0.0000     4.0000 </r>
       <r>    -4.1484     0.1777     4.0315 </r>
       <r>    -3.9712     5.4617     4.9992 </r>
       <r>    -3.7940     0.0046     5.0000 </r>
       <r>    -3.6168     0.0000     5.0000 </r>
       <r>    -3.4396     0.0000     5.0000 </r>
       <r>    -3.2625     0.0000     5.0000 </r>
       <r>    -3.0853     5.0643     5.8973 </r>
       <r>    -2.9081    29.2289    11.0761 </r>
       <r>    -2.7309    16.4830    13.9965 </r>
       <r>    -2.5537    10.3128    15.8237 </r>
       <r>    -2.3766     6.6388    17.0000 </r>
       <r>    -2.1994     0.0000    17.0000 </r>
       <r>    -2.0222     0.0000    17.0000 </r>
       <r>    -1.8450     0.0000    17.0000 </r>
       <r>    -1.6679     0.0000    17.0000 </r>
       <r>    -1.4907     0.0000    17.0000 </r>
       <r>    -1.3135     0.0000    17.0000 </r>
       <r>    -1.1363     0.0000    17.0000 </r>
       <r>    -0.9591     0.0000    17.0000 </r>
       <r>    -0.7820     5.9372    18.0519 </r>
       <r>    -0.6048    10.9948    20.0000 </r>
       <r>    -0.4276     0.0000    20.0000 </r>
       <r>    -0.2504     0.0000    20.0000 </r>
       <r>    -0.0732     0.7467    20.1323 </r>
       <r>     0.1039     4.8970    21.0000 </r>
       <r>     0.2811     0.0003    21.0000 </r>
       <r>     0.4583     0.0000    21.0000 </r>
       <r>     0.6355     0.0000    21.0000 </r>
       <r>     0.8127     0.3698    21.0655 </r>
       <r>     0.9898    10.9096    22.9985 </r>
       <r>     1.1670     0.0086    23.0000 </r>
       <r>     1.3442     0.0000    23.0000 </r>
       <r>     1.5214     0.0000    23.0000 </r>
       <r>     1.6986     0.3936    23.0697 </r>
       <r>     1.8757    16.5170    25.9962 </r>
       <r>     2.0529     1.0425    26.1809 </r>
       <r>     2.2301    16.1984    29.0509 </r>
       <r>     2.4073    22.2754    32.9977 </r>
       <r>     2.5845    10.1283    34.7922 </r>
       <r>     2.7616     1.1727    35.0000 </r>
       <r>     2.9388     0.0000    35.0000 </r>
       <r>     3.1160     0.0000    35.0000 </r>
       <r>     3.2932     0.1930    35.0342 </r>
       <r>     3.4704     5.4469    35.9993 </r>
       <r>     3.6475     0.0040    36.0000 </r>
       <r>     3.8247     0.0000    36.0000 </r>
       <r>     4.0019     0.0000    36.0000 </r>
       <r>     4.1791     0.0000    36.0000 </r>
       <r>     4.3563     0.0000    36.0000 </r>
       <r>     4.5334     0.0000    36.0000 </r>
       <r>     4.7106     0.0000    36.0000 </r>
       <r>     4.8878     0.0000    36.0000 </r>
       <r>     5.0650     0.0000    36.0000 </r>
       <r>     5.2422     0.0000    36.0000 </r>
       <r>     5.4193     0.0000    36.0000 </r>
       <r>     5.5965     0.0000    36.0000 </r>
       <r>     5.7737     0.0000    36.0000 </r>
      </set>
      <set comment="spin 2">
       <r>   -47.3802     0.0000     0.0000 </r>
       <r>   -47.2030     0.0000     0.0000 </r>
       <r>   -47.0258     0.0000     0.0000 </r>
       <r>   -46.8486     0.0000     0.0000 </r>
       <r>   -46.6715     0.0000     0.0000 </r>
       <r>   -46.4943     0.0000     0.0000 </r>
       <r>   -46.3171     0.0000     0.0000 </r>
       <r>   -46.1399     0.0000     0.0000 </r>
       <r>   -45.9628     0.0000     0.0000 </r>
       <r>   -45.7856     0.0000     0.0000 </r>
       <r>   -45.6084     0.0000     0.0000 </r>
       <r>   -45.4312     0.0000     0.0000 </r>
       <r>   -45.2540     0.0000     0.0000 </r>
       <r>   -45.0769     0.0000     0.0000 </r>
       <r>   -44.8997     0.0000     0.0000 </r>
       <r>   -44.7225     0.0000     0.0000 </r>
       <r>   -44.5453     4.1165     0.7294 </r>
       <r>   -44.3681     1.5275     1.0000 </r>
       <r>   -44.1910     0.0000     1.0000 </r>
       <r>   -44.0138     0.0000     1.0000 </r>
       <r>   -43.8366     0.0000     1.0000 </r>
       <r>   -43.6594     0.0000     1.0000 </r>
       <r>   -43.4822     0.0000     1.0000 </r>
       <r>   -43.3051     0.0000     1.0000 </r>
       <r>   -43.1279     0.0000     1.0000 </r>
       <r>   -42.9507     0.0000     1.0000 </r>
       <r>   -42.7735     0.0000     1.0000 </r>
       <r>   -42.5963     0.0000     1.0000 </r>
       <r>   -42.4192     0.0000     1.0000 </r>
       <r>   -42.2420     0.0000     1.0000 </r>
       <r>   -42.0648     0.0000     1.0000 </r>
       <r>   -41.8876     0.0000     1.0000 </r>
       <r>   -41.7104     0.0000     1.0000 </r>
       <r>   -41.5333     0.0000     1.0000 </r>
       <r>   -41.3561     0.0000     1.0000 </r>
       <r>   -41.1789     0.0000     1.0000 </r>
       <r>   -41.0017     0.0000     1.0000 </r>
       <r>   -40.8245     0.0000     1.0000 </r>
       <r>   -40.6474     0.0000     1.0000 </r>
       <r>   -40.4702     0.0000     1.0000 </r>
       <r>   -40.2930     0.0000     1.0000 </r>
       <r>   -40.1158     0.0000     1.0000 </r>
       <r>   -39.9386     0.0000     1.0000 </r>
       <r>   -39.7615     0.0000     1.0000 </r>
       <r>   -39.5843     0.0000     1.0000 </r>
       <r>   -39.4071     0.0000     1.0000 </r>
       <r>   -39.2299     0.0000     1.0000 </r>
       <r>   -39.0527     0.0000     1.0000 </r>
       <r>   -38.8756     0.0000     1.0000 </r>
       <r>   -38.6984     0.0000     1.0000 </r>
       <r>   -38.5212     0.0000     1.0000 </r>
       <r>   -38.3440     0.0000     1.0000 </r>
       <r>   -38.1668     0.0000     1.0000 </r>
       <r>   -37.9897     0.0000     1.0000 </r>
       <r>   -37.8125     0.0000     1.0000 </r>
       <r>   -37.6353     0.0000     1.0000 </r>
       <r>   -37.4581     0.0000     1.0000 </r>
       <r>   -37.2810     0.0000     1.0000 </r>
       <r>   -37.1038     0.0000     1.0000 </r>
       <r>   -36.9266     0.0000     1.0000 </r>
       <r>   -36.7494     0.0000     1.0000 </r>
       <r>   -36.5722     0.0000     1.0000 </r>
       <r>   -36.3951     0.0000     1.0000 </r>
       <r>   -36.2179     0.0000     1.0000 </r>
       <r>   -36.0407     0.0000     1.0000 </r>
       <r>   -35.8635     0.0000     1.0000 </r>
       <r>   -35.6863     0.0000     1.0000 </r>
       <r>   -35.5092     0.0000     1.0000 </r>
       <r>   -35.3320     0.0000     1.0000 </r>
       <r>   -35.1548     0.0000     1.0000 </r>
       <r>   -34.9776     0.0000     1.0000 </r>
       <r>   -34.8004     0.0000     1.0000 </r>
       <r>   -34.6233     0.0000     1.0000 </r>
       <r>   -34.4461     0.0000     1.0000 </r>
       <r>   -34.2689     0.0000     1.0000 </r>
       <r>   -34.0917     0.0000     1.0000 </r>
       <r>   -33.9145     0.0000     1.0000 </r>
       <r>   -33.7374     0.0000     1.0000 </r>
       <r>   -33.5602     0.0000     1.0000 </r>
       <r>   -33.3830     0.0000     1.0000 </r>
       <r>   -33.2058     0.0000     1.0000 </r>
       <r>   -33.0286     0.0000     1.0000 </r>
       <r>   -32.8515     0.0000     1.0000 </r>
       <r>   -32.6743     0.0000     1.0000 </r>
       <r>   -32.4971     0.0000     1.0000 </r>
       <r>   -32.3199     0.0000     1.0000 </r>
       <r>   -32.1427     0.0000     1.0000 </r>
       <r>   -31.9656     0.0000     1.0000 </r>
       <r>   -31.7884     0.0000     1.0000 </r>
       <r>   -31.6112     0.0000     1.0000 </r>
       <r>   -31.4340     0.0000     1.0000 </r>
       <r>   -31.2568     0.0000     1.0000 </r>
       <r>   -31.0797     0.0000     1.0000 </r>
       <r>   -30.9025     0.0000     1.0000 </r>
       <r>   -30.7253     0.0000     1.0000 </r>
       <r>   -30.5481     0.0000     1.0000 </r>
       <r>   -30.3709     0.0000     1.0000 </r>
       <r>   -30.1938     0.0000     1.0000 </r>
       <r>   -30.0166     0.0000     1.0000 </r>
       <r>   -29.8394     0.0000     1.0000 </r>
       <r>   -29.6622     0.0000     1.0000 </r>
       <r>   -29.4850     0.0000     1.0000 </r>
       <r>   -29.3079     0.0000     1.0000 </r>
       <r>   -29.1307     0.0000     1.0000 </r>
       <r>   -28.9535     0.0000     1.0000 </r>
       <r>   -28.7763     0.0000     1.0000 </r>
       <r>   -28.5991     0.0000     1.0000 </r>
       <r>   -28.4220     0.0000     1.0000 </r>
       <r>   -28.2448     0.0000     1.0000 </r>
       <r>   -28.0676     0.0000     1.0000 </r>
       <r>   -27.8904     0.0000     1.0000 </r>
       <r>   -27.7133     0.0000     1.0000 </r>
       <r>   -27.5361     0.0000     1.0000 </r>
       <r>   -27.3589     0.0000     1.0000 </r>
       <r>   -27.1817     0.0000     1.0000 </r>
       <r>   -27.0045     0.0000     1.0000 </r>
       <r>   -26.8274     0.0000     1.0000 </r>
       <r>   -26.6502     0.0000     1.0000 </r>
       <r>   -26.4730     0.0000     1.0000 </r>
       <r>   -26.2958     0.0000     1.0000 </r>
       <r>   -26.1186     0.0000     1.0000 </r>
       <r>   -25.9415     0.0000     1.0000 </r>
       <r>   -25.7643     0.0000     1.0000 </r>
       <r>   -25.5871     0.0000     1.0000 </r>
       <r>   -25.4099     0.0000     1.0000 </r>
       <r>   -25.2327     0.0000     1.0000 </r>
       <r>   -25.0556     0.0000     1.0000 </r>
       <r>   -24.8784     0.0000     1.0000 </r>
       <r>   -24.7012     0.0000     1.0000 </r>
       <r>   -24.5240     0.0000     1.0000 </r>
       <r>   -24.3468     0.0000     1.0000 </r>
       <r>   -24.1697     0.0000     1.0000 </r>
       <r>   -23.9925     0.0000     1.0000 </r>
       <r>   -23.8153     0.0000     1.0000 </r>
       <r>   -23.6381     0.0000     1.0000 </r>
       <r>   -23.4609     0.0000     1.0000 </r>
       <r>   -23.2838     0.0000     1.0000 </r>
       <r>   -23.1066     0.0000     1.0000 </r>
       <r>   -22.9294     0.0000     1.0000 </r>
       <r>   -22.7522     0.0000     1.0000 </r>
       <r>   -22.5750     0.0000     1.0000 </r>
       <r>   -22.3979     0.0000     1.0000 </r>
       <r>   -22.2207     0.0012     1.0002 </r>
       <r>   -22.0435    15.0015     3.6582 </r>
       <r>   -21.8663     1.9293     4.0000 </r>
       <r>   -21.6891     0.0000     4.0000 </r>
       <r>   -21.5120     0.0000     4.0000 </r>
       <r>   -21.3348     0.0000     4.0000 </r>
       <r>   -21.1576     0.0000     4.0000 </r>
       <r>   -20.9804     0.0000     4.0000 </r>
       <r>   -20.8032     0.0000     4.0000 </r>
       <r>   -20.6261     0.0000     4.0000 </r>
       <r>   -20.4489     0.0000     4.0000 </r>
       <r>   -20.2717     0.0000     4.0000 </r>
       <r>   -20.0945     0.0000     4.0000 </r>
       <r>   -19.9173     0.0000     4.0000 </r>
       <r>   -19.7402     0.0000     4.0000 </r>
       <r>   -19.5630     0.0000     4.0000 </r>
       <r>   -19.3858     0.0000     4.0000 </r>
       <r>   -19.2086     0.0000     4.0000 </r>
       <r>   -19.0315     0.0000     4.0000 </r>
       <r>   -18.8543     0.0000     4.0000 </r>
       <r>   -18.6771     0.0000     4.0000 </r>
       <r>   -18.4999     0.0000     4.0000 </r>
       <r>   -18.3227     0.0000     4.0000 </r>
       <r>   -18.1456     0.0000     4.0000 </r>
       <r>   -17.9684     0.0000     4.0000 </r>
       <r>   -17.7912     0.0000     4.0000 </r>
       <r>   -17.6140     0.0000     4.0000 </r>
       <r>   -17.4368     0.0000     4.0000 </r>
       <r>   -17.2597     0.0000     4.0000 </r>
       <r>   -17.0825     0.0000     4.0000 </r>
       <r>   -16.9053     0.0000     4.0000 </r>
       <r>   -16.7281     0.0000     4.0000 </r>
       <r>   -16.5509     0.0000     4.0000 </r>
       <r>   -16.3738     0.0000     4.0000 </r>
       <r>   -16.1966     0.0000     4.0000 </r>
       <r>   -16.0194     0.0000     4.0000 </r>
       <r>   -15.8422     0.0000     4.0000 </r>
       <r>   -15.6650     0.0000     4.0000 </r>
       <r>   -15.4879     0.0000     4.0000 </r>
       <r>   -15.3107     0.0000     4.0000 </r>
       <r>   -15.1335     0.0000     4.0000 </r>
       <r>   -14.9563     0.0000     4.0000 </r>
       <r>   -14.7791     0.0000     4.0000 </r>
       <r>   -14.6020     0.0000     4.0000 </r>
       <r>   -14.4248     0.0000     4.0000 </r>
       <r>   -14.2476     0.0000     4.0000 </r>
       <r>   -14.0704     0.0000     4.0000 </r>
       <r>   -13.8932     0.0000     4.0000 </r>
       <r>   -13.7161     0.0000     4.0000 </r>
       <r>   -13.5389     0.0000     4.0000 </r>
       <r>   -13.3617     0.0000     4.0000 </r>
       <r>   -13.1845     0.0000     4.0000 </r>
       <r>   -13.0073     0.0000     4.0000 </r>
       <r>   -12.8302     0.0000     4.0000 </r>
       <r>   -12.6530     0.0000     4.0000 </r>
       <r>   -12.4758     0.0000     4.0000 </r>
       <r>   -12.2986     0.0000     4.0000 </r>
       <r>   -12.1214     0.0000     4.0000 </r>
       <r>   -11.9443     0.0000     4.0000 </r>
       <r>   -11.7671     0.0000     4.0000 </r>
       <r>   -11.5899     0.0000     4.0000 </r>
       <r>   -11.4127     0.0000     4.0000 </r>
       <r>   -11.2355     0.0000     4.0000 </r>
       <r>   -11.0584     0.0000     4.0000 </r>
       <r>   -10.8812     0.0000     4.0000 </r>
       <r>   -10.7040     0.0000     4.0000 </r>
       <r>   -10.5268     0.0000     4.0000 </r>
       <r>   -10.3497     0.0000     4.0000 </r>
       <r>   -10.1725     0.0000     4.0000 </r>
       <r>    -9.9953     0.0000     4.0000 </r>
       <r>    -9.8181     0.0000     4.0000 </r>
       <r>    -9.6409     0.0000     4.0000 </r>
       <r>    -9.4638     0.0000     4.0000 </r>
       <r>    -9.2866     0.0000     4.0000 </r>
       <r>    -9.1094     0.0000     4.0000 </r>
       <r>    -8.9322     0.0000     4.0000 </r>
       <r>    -8.7550     0.0000     4.0000 </r>
       <r>    -8.5779     0.0000     4.0000 </r>
       <r>    -8.4007     0.0000     4.0000 </r>
       <r>    -8.2235     0.0000     4.0000 </r>
       <r>    -8.0463     0.0000     4.0000 </r>
       <r>    -7.8691     0.0000     4.0000 </r>
       <r>    -7.6920     0.0000     4.0000 </r>
       <r>    -7.5148     0.0000     4.0000 </r>
       <r>    -7.3376     0.0000     4.0000 </r>
       <r>    -7.1604     0.0000     4.0000 </r>
       <r>    -6.9832     0.0000     4.0000 </r>
       <r>    -6.8061     0.0000     4.0000 </r>
       <r>    -6.6289     0.0000     4.0000 </r>
       <r>    -6.4517     0.0000     4.0000 </r>
       <r>    -6.2745     0.0000     4.0000 </r>
       <r>    -6.0973     0.0000     4.0000 </r>
       <r>    -5.9202     0.0000     4.0000 </r>
       <r>    -5.7430     0.0000     4.0000 </r>
       <r>    -5.5658     0.0000     4.0000 </r>
       <r>    -5.3886     0.0000     4.0000 </r>
       <r>    -5.2114     0.0000     4.0000 </r>
       <r>    -5.0343     0.0000     4.0000 </r>
       <r>    -4.8571     0.0000     4.0000 </r>
       <r>    -4.6799     0.0000     4.0000 </r>
       <r>    -4.5027     0.0000     4.0000 </r>
       <r>    -4.3255     0.0000     4.0000 </r>
       <r>    -4.1484     0.0000     4.0000 </r>
       <r>    -3.9712     0.0000     4.0000 </r>
       <r>    -3.7940     0.0000     4.0000 </r>
       <r>    -3.6168     0.0000     4.0000 </r>
       <r>    -3.4396     4.0456     4.7168 </r>
       <r>    -3.2625     1.5983     5.0000 </r>
       <r>    -3.0853     0.0000     5.0000 </r>
       <r>    -2.9081     0.0000     5.0000 </r>
       <r>    -2.7309     4.3019     5.7622 </r>
       <r>    -2.5537    10.5837     7.6374 </r>
       <r>    -2.3766    11.8214     9.7319 </r>
       <r>    -2.1994    14.4969    12.3005 </r>
       <r>    -2.0222    15.2344    14.9997 </r>
       <r>    -1.8450     0.0739    15.0128 </r>
       <r>    -1.6679    11.1499    16.9883 </r>
       <r>    -1.4907     0.0658    17.0000 </r>
       <r>    -1.3135     0.0000    17.0000 </r>
       <r>    -1.1363     0.0000    17.0000 </r>
       <r>    -0.9591     0.0000    17.0000 </r>
       <r>    -0.7820     0.0000    17.0000 </r>
       <r>    -0.6048     0.0000    17.0000 </r>
       <r>    -0.4276     6.1029    18.0813 </r>
       <r>    -0.2504    10.8290    20.0000 </r>
       <r>    -0.0732     0.0033    20.0006 </r>
       <r>     0.1039     5.4217    20.9612 </r>
       <r>     0.2811     0.2190    21.0000 </r>
       <r>     0.4583     0.0000    21.0000 </r>
       <r>     0.6355     0.0000    21.0000 </r>
       <r>     0.8127     0.0000    21.0000 </r>
       <r>     0.9898     0.0912    21.0162 </r>
       <r>     1.1670    11.1451    22.9908 </r>
       <r>     1.3442     0.0517    23.0000 </r>
       <r>     1.5214     0.0000    23.0000 </r>
       <r>     1.6986     0.0000    23.0000 </r>
       <r>     1.8757     9.8712    24.7490 </r>
       <r>     2.0529     7.0748    26.0025 </r>
       <r>     2.2301     5.9743    27.0610 </r>
       <r>     2.4073    32.0804    32.7450 </r>
       <r>     2.5845     3.3296    33.3349 </r>
       <r>     2.7616     9.3973    34.9999 </r>
       <r>     2.9388     0.0003    35.0000 </r>
       <r>     3.1160     0.0000    35.0000 </r>
       <r>     3.2932     0.3893    35.0690 </r>
       <r>     3.4704     5.2536    35.9998 </r>
       <r>     3.6475     0.0012    36.0000 </r>
       <r>     3.8247     0.0000    36.0000 </r>
       <r>     4.0019     0.0000    36.0000 </r>
       <r>     4.1791     0.0000    36.0000 </r>
       <r>     4.3563     0.0000    36.0000 </r>
       <r>     4.5334     0.0000    36.0000 </r>
       <r>     4.7106     0.0000    36.0000 </r>
       <r>     4.8878     0.0000    36.0000 </r>
       <r>     5.0650     0.0000    36.0000 </r>
       <r>     5.2422     0.0000    36.0000 </r>
       <r>     5.4193     0.0000    36.0000 </r>
       <r>     5.5965     0.0000    36.0000 </r>
       <r>     5.7737     0.0000    36.0000 </r>
      </set>
     </set>
    </array>
   </total>
   <partial>
    <array>
     <dimension dim="1">gridpoints</dimension>
     <dimension dim="2">spin</dimension>
     <dimension dim="3">ion</dimension>
     <field>energy</field>
     <field>    s</field>
     <field>   py</field>
     <field>   pz</field>
     <field>   px</field>
     <field>  dxy</field>
     <field>  dyz</field>
     <field>  dz2</field>
     <field>  dxz</field>
     <field>x2-y2</field>
     <field>fy3x2</field>
     <field> fxyz</field>
     <field> fyz2</field>
     <field>  fz3</field>
     <field> fxz2</field>
     <field> fzx2</field>
     <field>  fx3</field>
     <set>
      <set comment="ion 1">
       <set comment="spin 1">
        <r>   -47.3802     0.0000     0.0000     0.0000     0.0000     0.0000     0.0000     0.0000     0.0000     0.0000     0.0000     0.0000     0.0000     0.0000     0.0000     0.0000     0.0000 </r>
        <r>   -47.2030     0.0000     0.0000     0.0000     0.0000     0.0000     0.0000     0.0000     0.0000     0.0000     0.0000     0.0000     0.0000     0.0000     0.0000     0.0000     0.0000 </r>
        <r>   -47.0258     0.0000     0.0000     0.0000     0.0000     0.0000     0.0000     0.0000     0.0000     0.0000     0.0000     0.0000     0.0000     0.0000     0.0000     0.0000     0.0000 </r>
        <r>   -46.8486     0.0000     0.0000     0.0000     0.0000     0.0000     0.0000     0.0000     0.0000     0.0000     0.0000     0.0000     0.0000     0.0000     0.0000     0.0000     0.0000 </r>
        <r>   -46.6715     0.0000     0.0000     0.0000     0.0000     0.0000     0.0000     0.0000     0.0000     0.0000     0.0000     0.0000     0.0000     0.0000     0.0000     0.0000     0.0000 </r>
        <r>   -46.4943     0.0000     0.0000     0.0000     0.0000     0.0000     0.0000     0.0000     0.0000     0.0000     0.0000     0.0000     0.0000     0.0000     0.0000     0.0000     0.0000 </r>
        <r>   -46.3171     0.0000     0.0000     0.0000     0.0000     0.0000     0.0000     0.0000     0.0000     0.0000     0.0000     0.0000     0.0000     0.0000     0.0000     0.0000     0.0000 </r>
        <r>   -46.1399     0.0000     0.0000     0.0000     0.0000     0.0000     0.0000     0.0000     0.0000     0.0000     0.0000     0.0000     0.0000     0.0000     0.0000     0.0000     0.0000 </r>
        <r>   -45.9628     0.0000     0.0000     0.0000     0.0000     0.0000     0.0000     0.0000     0.0000     0.0000     0.0000     0.0000     0.0000     0.0000     0.0000     0.0000     0.0000 </r>
        <r>   -45.7856     0.0000     0.0000     0.0000     0.0000     0.0000     0.0000     0.0000     0.0000     0.0000     0.0000     0.0000     0.0000     0.0000     0.0000     0.0000     0.0000 </r>
        <r>   -45.6084     0.0000     0.0000     0.0000     0.0000     0.0000     0.0000     0.0000     0.0000     0.0000     0.0000     0.0000     0.0000     0.0000     0.0000     0.0000     0.0000 </r>
        <r>   -45.4312     0.0000     0.0000     0.0000     0.0000     0.0000     0.0000     0.0000     0.0000     0.0000     0.0000     0.0000     0.0000     0.0000     0.0000     0.0000     0.0000 </r>
        <r>   -45.2540     0.0000     0.0000     0.0000     0.0000     0.0000     0.0000     0.0000     0.0000     0.0000     0.0000     0.0000     0.0000     0.0000     0.0000     0.0000     0.0000 </r>
        <r>   -45.0769     0.0040     0.0000     0.0000     0.0000     0.0000     0.0000     0.0000     0.0000     0.0000     0.0000     0.0000     0.0000     0.0000     0.0000     0.0000     0.0000 </r>
        <r>   -44.8997     5.3610     0.0000     0.0000     0.0000     0.0000     0.0000     0.0000     0.0000     0.0000     0.0000     0.0000     0.0000     0.0000     0.0000     0.0000     0.0000 </r>
        <r>   -44.7225     0.1900     0.0000     0.0000     0.0000     0.0000     0.0000     0.0000     0.0000     0.0000     0.0000     0.0000     0.0000     0.0000     0.0000     0.0000     0.0000 </r>
        <r>   -44.5453     0.0000     0.0000     0.0000     0.0000     0.0000     0.0000     0.0000     0.0000     0.0000     0.0000     0.0000     0.0000     0.0000     0.0000     0.0000     0.0000 </r>
        <r>   -44.3681     0.0000     0.0000     0.0000     0.0000     0.0000     0.0000     0.0000     0.0000     0.0000     0.0000     0.0000     0.0000     0.0000     0.0000     0.0000     0.0000 </r>
        <r>   -44.1910     0.0000     0.0000     0.0000     0.0000     0.0000     0.0000     0.0000     0.0000     0.0000     0.0000     0.0000     0.0000     0.0000     0.0000     0.0000     0.0000 </r>
        <r>   -44.0138     0.0000     0.0000     0.0000     0.0000     0.0000     0.0000     0.0000     0.0000     0.0000     0.0000     0.0000     0.0000     0.0000     0.0000     0.0000     0.0000 </r>
        <r>   -43.8366     0.0000     0.0000     0.0000     0.0000     0.0000     0.0000     0.0000     0.0000     0.0000     0.0000     0.0000     0.0000     0.0000     0.0000     0.0000     0.0000 </r>
        <r>   -43.6594     0.0000     0.0000     0.0000     0.0000     0.0000     0.0000     0.0000     0.0000     0.0000     0.0000     0.0000     0.0000     0.0000     0.0000     0.0000     0.0000 </r>
        <r>   -43.4822     0.0000     0.0000     0.0000     0.0000     0.0000     0.0000     0.0000     0.0000     0.0000     0.0000     0.0000     0.0000     0.0000     0.0000     0.0000     0.0000 </r>
        <r>   -43.3051     0.0000     0.0000     0.0000     0.0000     0.0000     0.0000     0.0000     0.0000     0.0000     0.0000     0.0000     0.0000     0.0000     0.0000     0.0000     0.0000 </r>
        <r>   -43.1279     0.0000     0.0000     0.0000     0.0000     0.0000     0.0000     0.0000     0.0000     0.0000     0.0000     0.0000     0.0000     0.0000     0.0000     0.0000     0.0000 </r>
        <r>   -42.9507     0.0000     0.0000     0.0000     0.0000     0.0000     0.0000     0.0000     0.0000     0.0000     0.0000     0.0000     0.0000     0.0000     0.0000     0.0000     0.0000 </r>
        <r>   -42.7735     0.0000     0.0000     0.0000     0.0000     0.0000     0.0000     0.0000     0.0000     0.0000     0.0000     0.0000     0.0000     0.0000     0.0000     0.0000     0.0000 </r>
        <r>   -42.5963     0.0000     0.0000     0.0000     0.0000     0.0000     0.0000     0.0000     0.0000     0.0000     0.0000     0.0000     0.0000     0.0000     0.0000     0.0000     0.0000 </r>
        <r>   -42.4192     0.0000     0.0000     0.0000     0.0000     0.0000     0.0000     0.0000     0.0000     0.0000     0.0000     0.0000     0.0000     0.0000     0.0000     0.0000     0.0000 </r>
        <r>   -42.2420     0.0000     0.0000     0.0000     0.0000     0.0000     0.0000     0.0000     0.0000     0.0000     0.0000     0.0000     0.0000     0.0000     0.0000     0.0000     0.0000 </r>
        <r>   -42.0648     0.0000     0.0000     0.0000     0.0000     0.0000     0.0000     0.0000     0.0000     0.0000     0.0000     0.0000     0.0000     0.0000     0.0000     0.0000     0.0000 </r>
        <r>   -41.8876     0.0000     0.0000     0.0000     0.0000     0.0000     0.0000     0.0000     0.0000     0.0000     0.0000     0.0000     0.0000     0.0000     0.0000     0.0000     0.0000 </r>
        <r>   -41.7104     0.0000     0.0000     0.0000     0.0000     0.0000     0.0000     0.0000     0.0000     0.0000     0.0000     0.0000     0.0000     0.0000     0.0000     0.0000     0.0000 </r>
        <r>   -41.5333     0.0000     0.0000     0.0000     0.0000     0.0000     0.0000     0.0000     0.0000     0.0000     0.0000     0.0000     0.0000     0.0000     0.0000     0.0000     0.0000 </r>
        <r>   -41.3561     0.0000     0.0000     0.0000     0.0000     0.0000     0.0000     0.0000     0.0000     0.0000     0.0000     0.0000     0.0000     0.0000     0.0000     0.0000     0.0000 </r>
        <r>   -41.1789     0.0000     0.0000     0.0000     0.0000     0.0000     0.0000     0.0000     0.0000     0.0000     0.0000     0.0000     0.0000     0.0000     0.0000     0.0000     0.0000 </r>
        <r>   -41.0017     0.0000     0.0000     0.0000     0.0000     0.0000     0.0000     0.0000     0.0000     0.0000     0.0000     0.0000     0.0000     0.0000     0.0000     0.0000     0.0000 </r>
        <r>   -40.8245     0.0000     0.0000     0.0000     0.0000     0.0000     0.0000     0.0000     0.0000     0.0000     0.0000     0.0000     0.0000     0.0000     0.0000     0.0000     0.0000 </r>
        <r>   -40.6474     0.0000     0.0000     0.0000     0.0000     0.0000     0.0000     0.0000     0.0000     0.0000     0.0000     0.0000     0.0000     0.0000     0.0000     0.0000     0.0000 </r>
        <r>   -40.4702     0.0000     0.0000     0.0000     0.0000     0.0000     0.0000     0.0000     0.0000     0.0000     0.0000     0.0000     0.0000     0.0000     0.0000     0.0000     0.0000 </r>
        <r>   -40.2930     0.0000     0.0000     0.0000     0.0000     0.0000     0.0000     0.0000     0.0000     0.0000     0.0000     0.0000     0.0000     0.0000     0.0000     0.0000     0.0000 </r>
        <r>   -40.1158     0.0000     0.0000     0.0000     0.0000     0.0000     0.0000     0.0000     0.0000     0.0000     0.0000     0.0000     0.0000     0.0000     0.0000     0.0000     0.0000 </r>
        <r>   -39.9386     0.0000     0.0000     0.0000     0.0000     0.0000     0.0000     0.0000     0.0000     0.0000     0.0000     0.0000     0.0000     0.0000     0.0000     0.0000     0.0000 </r>
        <r>   -39.7615     0.0000     0.0000     0.0000     0.0000     0.0000     0.0000     0.0000     0.0000     0.0000     0.0000     0.0000     0.0000     0.0000     0.0000     0.0000     0.0000 </r>
        <r>   -39.5843     0.0000     0.0000     0.0000     0.0000     0.0000     0.0000     0.0000     0.0000     0.0000     0.0000     0.0000     0.0000     0.0000     0.0000     0.0000     0.0000 </r>
        <r>   -39.4071     0.0000     0.0000     0.0000     0.0000     0.0000     0.0000     0.0000     0.0000     0.0000     0.0000     0.0000     0.0000     0.0000     0.0000     0.0000     0.0000 </r>
        <r>   -39.2299     0.0000     0.0000     0.0000     0.0000     0.0000     0.0000     0.0000     0.0000     0.0000     0.0000     0.0000     0.0000     0.0000     0.0000     0.0000     0.0000 </r>
        <r>   -39.0527     0.0000     0.0000     0.0000     0.0000     0.0000     0.0000     0.0000     0.0000     0.0000     0.0000     0.0000     0.0000     0.0000     0.0000     0.0000     0.0000 </r>
        <r>   -38.8756     0.0000     0.0000     0.0000     0.0000     0.0000     0.0000     0.0000     0.0000     0.0000     0.0000     0.0000     0.0000     0.0000     0.0000     0.0000     0.0000 </r>
        <r>   -38.6984     0.0000     0.0000     0.0000     0.0000     0.0000     0.0000     0.0000     0.0000     0.0000     0.0000     0.0000     0.0000     0.0000     0.0000     0.0000     0.0000 </r>
        <r>   -38.5212     0.0000     0.0000     0.0000     0.0000     0.0000     0.0000     0.0000     0.0000     0.0000     0.0000     0.0000     0.0000     0.0000     0.0000     0.0000     0.0000 </r>
        <r>   -38.3440     0.0000     0.0000     0.0000     0.0000     0.0000     0.0000     0.0000     0.0000     0.0000     0.0000     0.0000     0.0000     0.0000     0.0000     0.0000     0.0000 </r>
        <r>   -38.1668     0.0000     0.0000     0.0000     0.0000     0.0000     0.0000     0.0000     0.0000     0.0000     0.0000     0.0000     0.0000     0.0000     0.0000     0.0000     0.0000 </r>
        <r>   -37.9897     0.0000     0.0000     0.0000     0.0000     0.0000     0.0000     0.0000     0.0000     0.0000     0.0000     0.0000     0.0000     0.0000     0.0000     0.0000     0.0000 </r>
        <r>   -37.8125     0.0000     0.0000     0.0000     0.0000     0.0000     0.0000     0.0000     0.0000     0.0000     0.0000     0.0000     0.0000     0.0000     0.0000     0.0000     0.0000 </r>
        <r>   -37.6353     0.0000     0.0000     0.0000     0.0000     0.0000     0.0000     0.0000     0.0000     0.0000     0.0000     0.0000     0.0000     0.0000     0.0000     0.0000     0.0000 </r>
        <r>   -37.4581     0.0000     0.0000     0.0000     0.0000     0.0000     0.0000     0.0000     0.0000     0.0000     0.0000     0.0000     0.0000     0.0000     0.0000     0.0000     0.0000 </r>
        <r>   -37.2810     0.0000     0.0000     0.0000     0.0000     0.0000     0.0000     0.0000     0.0000     0.0000     0.0000     0.0000     0.0000     0.0000     0.0000     0.0000     0.0000 </r>
        <r>   -37.1038     0.0000     0.0000     0.0000     0.0000     0.0000     0.0000     0.0000     0.0000     0.0000     0.0000     0.0000     0.0000     0.0000     0.0000     0.0000     0.0000 </r>
        <r>   -36.9266     0.0000     0.0000     0.0000     0.0000     0.0000     0.0000     0.0000     0.0000     0.0000     0.0000     0.0000     0.0000     0.0000     0.0000     0.0000     0.0000 </r>
        <r>   -36.7494     0.0000     0.0000     0.0000     0.0000     0.0000     0.0000     0.0000     0.0000     0.0000     0.0000     0.0000     0.0000     0.0000     0.0000     0.0000     0.0000 </r>
        <r>   -36.5722     0.0000     0.0000     0.0000     0.0000     0.0000     0.0000     0.0000     0.0000     0.0000     0.0000     0.0000     0.0000     0.0000     0.0000     0.0000     0.0000 </r>
        <r>   -36.3951     0.0000     0.0000     0.0000     0.0000     0.0000     0.0000     0.0000     0.0000     0.0000     0.0000     0.0000     0.0000     0.0000     0.0000     0.0000     0.0000 </r>
        <r>   -36.2179     0.0000     0.0000     0.0000     0.0000     0.0000     0.0000     0.0000     0.0000     0.0000     0.0000     0.0000     0.0000     0.0000     0.0000     0.0000     0.0000 </r>
        <r>   -36.0407     0.0000     0.0000     0.0000     0.0000     0.0000     0.0000     0.0000     0.0000     0.0000     0.0000     0.0000     0.0000     0.0000     0.0000     0.0000     0.0000 </r>
        <r>   -35.8635     0.0000     0.0000     0.0000     0.0000     0.0000     0.0000     0.0000     0.0000     0.0000     0.0000     0.0000     0.0000     0.0000     0.0000     0.0000     0.0000 </r>
        <r>   -35.6863     0.0000     0.0000     0.0000     0.0000     0.0000     0.0000     0.0000     0.0000     0.0000     0.0000     0.0000     0.0000     0.0000     0.0000     0.0000     0.0000 </r>
        <r>   -35.5092     0.0000     0.0000     0.0000     0.0000     0.0000     0.0000     0.0000     0.0000     0.0000     0.0000     0.0000     0.0000     0.0000     0.0000     0.0000     0.0000 </r>
        <r>   -35.3320     0.0000     0.0000     0.0000     0.0000     0.0000     0.0000     0.0000     0.0000     0.0000     0.0000     0.0000     0.0000     0.0000     0.0000     0.0000     0.0000 </r>
        <r>   -35.1548     0.0000     0.0000     0.0000     0.0000     0.0000     0.0000     0.0000     0.0000     0.0000     0.0000     0.0000     0.0000     0.0000     0.0000     0.0000     0.0000 </r>
        <r>   -34.9776     0.0000     0.0000     0.0000     0.0000     0.0000     0.0000     0.0000     0.0000     0.0000     0.0000     0.0000     0.0000     0.0000     0.0000     0.0000     0.0000 </r>
        <r>   -34.8004     0.0000     0.0000     0.0000     0.0000     0.0000     0.0000     0.0000     0.0000     0.0000     0.0000     0.0000     0.0000     0.0000     0.0000     0.0000     0.0000 </r>
        <r>   -34.6233     0.0000     0.0000     0.0000     0.0000     0.0000     0.0000     0.0000     0.0000     0.0000     0.0000     0.0000     0.0000     0.0000     0.0000     0.0000     0.0000 </r>
        <r>   -34.4461     0.0000     0.0000     0.0000     0.0000     0.0000     0.0000     0.0000     0.0000     0.0000     0.0000     0.0000     0.0000     0.0000     0.0000     0.0000     0.0000 </r>
        <r>   -34.2689     0.0000     0.0000     0.0000     0.0000     0.0000     0.0000     0.0000     0.0000     0.0000     0.0000     0.0000     0.0000     0.0000     0.0000     0.0000     0.0000 </r>
        <r>   -34.0917     0.0000     0.0000     0.0000     0.0000     0.0000     0.0000     0.0000     0.0000     0.0000     0.0000     0.0000     0.0000     0.0000     0.0000     0.0000     0.0000 </r>
        <r>   -33.9145     0.0000     0.0000     0.0000     0.0000     0.0000     0.0000     0.0000     0.0000     0.0000     0.0000     0.0000     0.0000     0.0000     0.0000     0.0000     0.0000 </r>
        <r>   -33.7374     0.0000     0.0000     0.0000     0.0000     0.0000     0.0000     0.0000     0.0000     0.0000     0.0000     0.0000     0.0000     0.0000     0.0000     0.0000     0.0000 </r>
        <r>   -33.5602     0.0000     0.0000     0.0000     0.0000     0.0000     0.0000     0.0000     0.0000     0.0000     0.0000     0.0000     0.0000     0.0000     0.0000     0.0000     0.0000 </r>
        <r>   -33.3830     0.0000     0.0000     0.0000     0.0000     0.0000     0.0000     0.0000     0.0000     0.0000     0.0000     0.0000     0.0000     0.0000     0.0000     0.0000     0.0000 </r>
        <r>   -33.2058     0.0000     0.0000     0.0000     0.0000     0.0000     0.0000     0.0000     0.0000     0.0000     0.0000     0.0000     0.0000     0.0000     0.0000     0.0000     0.0000 </r>
        <r>   -33.0286     0.0000     0.0000     0.0000     0.0000     0.0000     0.0000     0.0000     0.0000     0.0000     0.0000     0.0000     0.0000     0.0000     0.0000     0.0000     0.0000 </r>
        <r>   -32.8515     0.0000     0.0000     0.0000     0.0000     0.0000     0.0000     0.0000     0.0000     0.0000     0.0000     0.0000     0.0000     0.0000     0.0000     0.0000     0.0000 </r>
        <r>   -32.6743     0.0000     0.0000     0.0000     0.0000     0.0000     0.0000     0.0000     0.0000     0.0000     0.0000     0.0000     0.0000     0.0000     0.0000     0.0000     0.0000 </r>
        <r>   -32.4971     0.0000     0.0000     0.0000     0.0000     0.0000     0.0000     0.0000     0.0000     0.0000     0.0000     0.0000     0.0000     0.0000     0.0000     0.0000     0.0000 </r>
        <r>   -32.3199     0.0000     0.0000     0.0000     0.0000     0.0000     0.0000     0.0000     0.0000     0.0000     0.0000     0.0000     0.0000     0.0000     0.0000     0.0000     0.0000 </r>
        <r>   -32.1427     0.0000     0.0000     0.0000     0.0000     0.0000     0.0000     0.0000     0.0000     0.0000     0.0000     0.0000     0.0000     0.0000     0.0000     0.0000     0.0000 </r>
        <r>   -31.9656     0.0000     0.0000     0.0000     0.0000     0.0000     0.0000     0.0000     0.0000     0.0000     0.0000     0.0000     0.0000     0.0000     0.0000     0.0000     0.0000 </r>
        <r>   -31.7884     0.0000     0.0000     0.0000     0.0000     0.0000     0.0000     0.0000     0.0000     0.0000     0.0000     0.0000     0.0000     0.0000     0.0000     0.0000     0.0000 </r>
        <r>   -31.6112     0.0000     0.0000     0.0000     0.0000     0.0000     0.0000     0.0000     0.0000     0.0000     0.0000     0.0000     0.0000     0.0000     0.0000     0.0000     0.0000 </r>
        <r>   -31.4340     0.0000     0.0000     0.0000     0.0000     0.0000     0.0000     0.0000     0.0000     0.0000     0.0000     0.0000     0.0000     0.0000     0.0000     0.0000     0.0000 </r>
        <r>   -31.2568     0.0000     0.0000     0.0000     0.0000     0.0000     0.0000     0.0000     0.0000     0.0000     0.0000     0.0000     0.0000     0.0000     0.0000     0.0000     0.0000 </r>
        <r>   -31.0797     0.0000     0.0000     0.0000     0.0000     0.0000     0.0000     0.0000     0.0000     0.0000     0.0000     0.0000     0.0000     0.0000     0.0000     0.0000     0.0000 </r>
        <r>   -30.9025     0.0000     0.0000     0.0000     0.0000     0.0000     0.0000     0.0000     0.0000     0.0000     0.0000     0.0000     0.0000     0.0000     0.0000     0.0000     0.0000 </r>
        <r>   -30.7253     0.0000     0.0000     0.0000     0.0000     0.0000     0.0000     0.0000     0.0000     0.0000     0.0000     0.0000     0.0000     0.0000     0.0000     0.0000     0.0000 </r>
        <r>   -30.5481     0.0000     0.0000     0.0000     0.0000     0.0000     0.0000     0.0000     0.0000     0.0000     0.0000     0.0000     0.0000     0.0000     0.0000     0.0000     0.0000 </r>
        <r>   -30.3709     0.0000     0.0000     0.0000     0.0000     0.0000     0.0000     0.0000     0.0000     0.0000     0.0000     0.0000     0.0000     0.0000     0.0000     0.0000     0.0000 </r>
        <r>   -30.1938     0.0000     0.0000     0.0000     0.0000     0.0000     0.0000     0.0000     0.0000     0.0000     0.0000     0.0000     0.0000     0.0000     0.0000     0.0000     0.0000 </r>
        <r>   -30.0166     0.0000     0.0000     0.0000     0.0000     0.0000     0.0000     0.0000     0.0000     0.0000     0.0000     0.0000     0.0000     0.0000     0.0000     0.0000     0.0000 </r>
        <r>   -29.8394     0.0000     0.0000     0.0000     0.0000     0.0000     0.0000     0.0000     0.0000     0.0000     0.0000     0.0000     0.0000     0.0000     0.0000     0.0000     0.0000 </r>
        <r>   -29.6622     0.0000     0.0000     0.0000     0.0000     0.0000     0.0000     0.0000     0.0000     0.0000     0.0000     0.0000     0.0000     0.0000     0.0000     0.0000     0.0000 </r>
        <r>   -29.4850     0.0000     0.0000     0.0000     0.0000     0.0000     0.0000     0.0000     0.0000     0.0000     0.0000     0.0000     0.0000     0.0000     0.0000     0.0000     0.0000 </r>
        <r>   -29.3079     0.0000     0.0000     0.0000     0.0000     0.0000     0.0000     0.0000     0.0000     0.0000     0.0000     0.0000     0.0000     0.0000     0.0000     0.0000     0.0000 </r>
        <r>   -29.1307     0.0000     0.0000     0.0000     0.0000     0.0000     0.0000     0.0000     0.0000     0.0000     0.0000     0.0000     0.0000     0.0000     0.0000     0.0000     0.0000 </r>
        <r>   -28.9535     0.0000     0.0000     0.0000     0.0000     0.0000     0.0000     0.0000     0.0000     0.0000     0.0000     0.0000     0.0000     0.0000     0.0000     0.0000     0.0000 </r>
[...]
        <r>     4.5334     0.0000     0.0000     0.0000     0.0000     0.0000     0.0000     0.0000     0.0000     0.0000     0.0000     0.0000     0.0000     0.0000     0.0000     0.0000     0.0000 </r>
        <r>     4.7106     0.0000     0.0000     0.0000     0.0000     0.0000     0.0000     0.0000     0.0000     0.0000     0.0000     0.0000     0.0000     0.0000     0.0000     0.0000     0.0000 </r>
        <r>     4.8878     0.0000     0.0000     0.0000     0.0000     0.0000     0.0000     0.0000     0.0000     0.0000     0.0000     0.0000     0.0000     0.0000     0.0000     0.0000     0.0000 </r>
        <r>     5.0650     0.0000     0.0000     0.0000     0.0000     0.0000     0.0000     0.0000     0.0000     0.0000     0.0000     0.0000     0.0000     0.0000     0.0000     0.0000     0.0000 </r>
        <r>     5.2422     0.0000     0.0000     0.0000     0.0000     0.0000     0.0000     0.0000     0.0000     0.0000     0.0000     0.0000     0.0000     0.0000     0.0000     0.0000     0.0000 </r>
        <r>     5.4193     0.0000     0.0000     0.0000     0.0000     0.0000     0.0000     0.0000     0.0000     0.0000     0.0000     0.0000     0.0000     0.0000     0.0000     0.0000     0.0000 </r>
        <r>     5.5965     0.0000     0.0000     0.0000     0.0000     0.0000     0.0000     0.0000     0.0000     0.0000     0.0000     0.0000     0.0000     0.0000     0.0000     0.0000     0.0000 </r>
        <r>     5.7737     0.0000     0.0000     0.0000     0.0000     0.0000     0.0000     0.0000     0.0000     0.0000     0.0000     0.0000     0.0000     0.0000     0.0000     0.0000     0.0000 </r>
       </set>
      </set>
     </set>
    </array>
   </partial>
  </dos>
  <projected>
   <eigenvalues>
    <array>
     <dimension dim="1">band</dimension>
     <dimension dim="2">kpoint</dimension>
     <dimension dim="3">spin</dimension>
     <field>eigene</field>
     <field>occ</field>
     <set>
      <set comment="spin 1">
       <set comment="kpoint 1">
        <r>  -44.9641    1.0000 </r>
        <r>  -22.7140    1.0000 </r>
        <r>  -22.7140    1.0000 </r>
        <r>  -22.7140    1.0000 </r>
        <r>   -4.0826    1.0000 </r>
        <r>   -3.0804    0.8910 </r>
        <r>   -3.0804    0.8910 </r>
        <r>   -2.9853    0.0726 </r>
        <r>   -2.9853    0.0726 </r>
        <r>   -2.9853    0.0726 </r>
        <r>   -2.8963    0.0000 </r>
        <r>   -2.8963    0.0000 </r>
        <r>   -2.8963    0.0000 </r>
        <r>   -2.8263    0.0000 </r>
        <r>   -2.5634    0.0000 </r>
        <r>   -2.5634    0.0000 </r>
        <r>   -2.5634    0.0000 </r>
        <r>   -0.7684    0.0000 </r>
        <r>   -0.7684    0.0000 </r>
        <r>   -0.7684    0.0000 </r>
        <r>   -0.0338    0.0000 </r>
        <r>    0.8778    0.0000 </r>
        <r>    0.8778    0.0000 </r>
        <r>    1.7689    0.0000 </r>
        <r>    1.7689    0.0000 </r>
        <r>    1.7689    0.0000 </r>
        <r>    2.0852    0.0000 </r>
        <r>    2.2162    0.0000 </r>
        <r>    2.2162    0.0000 </r>
        <r>    2.2162    0.0000 </r>
        <r>    2.2961    0.0000 </r>
        <r>    2.2961    0.0000 </r>
        <r>    2.2961    0.0000 </r>
        <r>    2.5399    0.0000 </r>
        <r>    2.5399    0.0000 </r>
        <r>    3.3576    0.0000 </r>
       </set>
      </set>
      <set comment="spin 2">
       <set comment="kpoint 1">
        <r>  -44.5669    1.0000 </r>
        <r>  -22.0861    1.0000 </r>
        <r>  -22.0861    1.0000 </r>
        <r>  -22.0861    1.0000 </r>
        <r>   -3.4599    1.0000 </r>
        <r>   -2.7562    0.0000 </r>
        <r>   -2.5578    0.0000 </r>
        <r>   -2.5578    0.0000 </r>
        <r>   -2.5578    0.0000 </r>
        <r>   -2.3520    0.0000 </r>
        <r>   -2.3520    0.0000 </r>
        <r>   -2.3520    0.0000 </r>
        <r>   -2.1541    0.0000 </r>
        <r>   -2.1541    0.0000 </r>
        <r>   -2.1541    0.0000 </r>
        <r>   -1.7570    0.0000 </r>
        <r>   -1.7570    0.0000 </r>
        <r>   -0.4150    0.0000 </r>
        <r>   -0.4150    0.0000 </r>
        <r>   -0.4150    0.0000 </r>
        <r>    0.0416    0.0000 </r>
        <r>    1.0749    0.0000 </r>
        <r>    1.0749    0.0000 </r>
        <r>    1.8683    0.0000 </r>
        <r>    1.8683    0.0000 </r>
        <r>    1.8683    0.0000 </r>
        <r>    2.1522    0.0000 </r>
        <r>    2.2995    0.0000 </r>
        <r>    2.2995    0.0000 </r>
        <r>    2.2995    0.0000 </r>
        <r>    2.3585    0.0000 </r>
        <r>    2.3585    0.0000 </r>
        <r>    2.3585    0.0000 </r>
        <r>    2.6186    0.0000 </r>
        <r>    2.6186    0.0000 </r>
        <r>    3.3456    0.0000 </r>
       </set>
      </set>
     </set>
    </array>
   </eigenvalues>
   <array>
    <dimension dim="1">ion</dimension>
    <dimension dim="2">band</dimension>
    <dimension dim="3">kpoint</dimension>
    <dimension dim="4">spin</dimension>
    <field>    s</field>
    <field>   py</field>
    <field>   pz</field>
    <field>   px</field>
    <field>  dxy</field>
    <field>  dyz</field>
    <field>  dz2</field>
    <field>  dxz</field>
    <field>x2-y2</field>
    <field>fy3x2</field>
    <field> fxyz</field>
    <field> fyz2</field>
    <field>  fz3</field>
    <field> fxz2</field>
    <field> fzx2</field>
    <field>  fx3</field>
    <set>
     <set comment="spin1">
      <set comment="kpoint 1">
       <set comment="band 1">
        <r>  0.9842  0.0000  0.0000  0.0000  0.0000  0.0000  0.0000  0.0000  0.0000  0.0000  0.0000  0.0000  0.0000  0.0000  0.0000  0.0000 </r>
       </set>
       <set comment="band 2">
        <r>  0.0000  0.5965  0.0000  0.3390  0.0000  0.0000  0.0000  0.0000  0.0000  0.0000  0.0000  0.0000  0.0000  0.0000  0.0000  0.0000 </r>
       </set>
       <set comment="band 3">
        <r>  0.0000  0.3390  0.0000  0.5965  0.0000  0.0000  0.0000  0.0000  0.0000  0.0000  0.0000  0.0000  0.0000  0.0000  0.0000  0.0000 </r>
       </set>
       <set comment="band 4">
        <r>  0.0000  0.0000  0.9355  0.0000  0.0000  0.0000  0.0000  0.0000  0.0000  0.0000  0.0000  0.0000  0.0001  0.0000  0.0000  0.0000 </r>
       </set>
       <set comment="band 5">
        <r>  0.1981  0.0000  0.0000  0.0000  0.0000  0.0000  0.0000  0.0000  0.0000  0.0000  0.0000  0.0000  0.0000  0.0000  0.0000  0.0000 </r>
       </set>
       <set comment="band 6">
        <r>  0.0000  0.0000  0.0000  0.0000  0.0000  0.0000  0.0000  0.0000  0.4952  0.0000  0.0000  0.0000  0.0000  0.0000  0.0000  0.0000 </r>
       </set>
       <set comment="band 7">
        <r>  0.0000  0.0000  0.0000  0.0000  0.0000  0.0000  0.4952  0.0000  0.0000  0.0000  0.0000  0.0000  0.0000  0.0000  0.0000  0.0000 </r>
       </set>
       <set comment="band 8">
        <r>  0.0000  0.0000  0.0004  0.0000  0.0000  0.0000  0.0000  0.0000  0.0000  0.0000  0.0000  0.0000  0.9158  0.0000  0.0000  0.0000 </r>
       </set>
       <set comment="band 9">
        <r>  0.0000  0.0002  0.0000  0.0001  0.0000  0.0000  0.0000  0.0000  0.0000  0.3748  0.0000  0.2249  0.0000  0.1185  0.0000  0.1976 </r>
       </set>
       <set comment="band 10">
        <r>  0.0000  0.0001  0.0000  0.0002  0.0000  0.0000  0.0000  0.0000  0.0000  0.1976  0.0000  0.1185  0.0000  0.2249  0.0000  0.3748 </r>
       </set>
       <set comment="band 11">
        <r>  0.0000  0.0000  0.0000  0.0000  0.0000  0.0000  0.0000  0.0000  0.0000  0.0000  0.0000  0.0000  0.0000  0.0000  0.9184  0.0000 </r>
       </set>
       <set comment="band 12">
        <r>  0.0000  0.0000  0.0000  0.0000  0.0000  0.0000  0.0000  0.0000  0.0000  0.0181  0.0000  0.0303  0.0000  0.5437  0.0000  0.3262 </r>
       </set>
       <set comment="band 13">
        <r>  0.0000  0.0000  0.0000  0.0000  0.0000  0.0000  0.0000  0.0000  0.0000  0.3262  0.0000  0.5437  0.0000  0.0303  0.0000  0.0181 </r>
       </set>
       <set comment="band 14">
        <r>  0.0000  0.0000  0.0000  0.0000  0.0000  0.0000  0.0000  0.0000  0.0000  0.0000  0.9231  0.0000  0.0000  0.0000  0.0000  0.0000 </r>
       </set>
       <set comment="band 15">
        <r>  0.0000  0.0000  0.0000  0.0000  0.4935  0.0000  0.0000  0.0000  0.0000  0.0000  0.0000  0.0000  0.0000  0.0000  0.0000  0.0000 </r>
       </set>
       <set comment="band 16">
        <r>  0.0000  0.0000  0.0000  0.0000  0.0000  0.4862  0.0000  0.0073  0.0000  0.0000  0.0000  0.0000  0.0000  0.0000  0.0000  0.0000 </r>
       </set>
       <set comment="band 17">
        <r>  0.0000  0.0000  0.0000  0.0000  0.0000  0.0073  0.0000  0.4862  0.0000  0.0000  0.0000  0.0000  0.0000  0.0000  0.0000  0.0000 </r>
       </set>
       <set comment="band 18">
        <r>  0.0000  0.0386  0.0000  0.0310  0.0000  0.0000  0.0000  0.0000  0.0000  0.0003  0.0000  0.0002  0.0000  0.0001  0.0000  0.0002 </r>
       </set>
       <set comment="band 19">
        <r>  0.0000  0.0310  0.0000  0.0386  0.0000  0.0000  0.0000  0.0000  0.0000  0.0002  0.0000  0.0001  0.0000  0.0002  0.0000  0.0003 </r>
       </set>
       <set comment="band 20">
        <r>  0.0000  0.0000  0.0696  0.0000  0.0000  0.0000  0.0000  0.0000  0.0000  0.0000  0.0000  0.0000  0.0008  0.0000  0.0000  0.0000 </r>
       </set>
       <set comment="band 21">
        <r>  0.0389  0.0000  0.0000  0.0000  0.0000  0.0000  0.0000  0.0000  0.0000  0.0000  0.0000  0.0000  0.0000  0.0000  0.0000  0.0000 </r>
       </set>
       <set comment="band 22">
        <r>  0.0000  0.0000  0.0000  0.0000  0.0000  0.0000  0.0000  0.0000  0.0484  0.0000  0.0000  0.0000  0.0000  0.0000  0.0000  0.0000 </r>
       </set>
       <set comment="band 23">
        <r>  0.0000  0.0000  0.0000  0.0000  0.0000  0.0000  0.0484  0.0000  0.0000  0.0000  0.0000  0.0000  0.0000  0.0000  0.0000  0.0000 </r>
       </set>
       <set comment="band 24">
        <r>  0.0000  0.0140  0.0000  0.0068  0.0000  0.0000  0.0000  0.0000  0.0000  0.0015  0.0000  0.0009  0.0000  0.0004  0.0000  0.0007 </r>
       </set>
       <set comment="band 25">
        <r>  0.0000  0.0068  0.0000  0.0140  0.0000  0.0000  0.0000  0.0000  0.0000  0.0007  0.0000  0.0004  0.0000  0.0009  0.0000  0.0015 </r>
       </set>
       <set comment="band 26">
        <r>  0.0000  0.0000  0.0208  0.0000  0.0000  0.0000  0.0000  0.0000  0.0000  0.0000  0.0000  0.0000  0.0037  0.0000  0.0000  0.0000 </r>
       </set>
       <set comment="band 27">
        <r>  0.0335  0.0000  0.0000  0.0000  0.0000  0.0000  0.0000  0.0000  0.0000  0.0000  0.0000  0.0000  0.0000  0.0000  0.0000  0.0000 </r>
       </set>
       <set comment="band 28">
        <r>  0.0000  0.0000  0.0000  0.0000  0.0000  0.0000  0.0000  0.0000  0.0000  0.0000  0.0000  0.0000  0.0000  0.0000  0.0072  0.0000 </r>
       </set>
       <set comment="band 29">
        <r>  0.0000  0.0000  0.0000  0.0000  0.0000  0.0000  0.0000  0.0000  0.0000  0.0024  0.0000  0.0041  0.0000  0.0004  0.0000  0.0003 </r>
       </set>
       <set comment="band 30">
        <r>  0.0000  0.0000  0.0000  0.0000  0.0000  0.0000  0.0000  0.0000  0.0000  0.0003  0.0000  0.0004  0.0000  0.0041  0.0000  0.0024 </r>
       </set>
       <set comment="band 31">
        <r>  0.0000  0.0000  0.0000  0.0000  0.0000  0.0749  0.0000  0.0005  0.0000  0.0000  0.0000  0.0000  0.0000  0.0000  0.0000  0.0000 </r>
       </set>
       <set comment="band 32">
        <r>  0.0000  0.0000  0.0000  0.0000  0.0000  0.0005  0.0000  0.0749  0.0000  0.0000  0.0000  0.0000  0.0000  0.0000  0.0000  0.0000 </r>
       </set>
       <set comment="band 33">
        <r>  0.0000  0.0000  0.0000  0.0000  0.0754  0.0000  0.0000  0.0000  0.0000  0.0000  0.0000  0.0000  0.0000  0.0000  0.0000  0.0000 </r>
       </set>
       <set comment="band 34">
        <r>  0.0000  0.0000  0.0000  0.0000  0.0000  0.0000  0.0000  0.0000  0.0153  0.0000  0.0000  0.0000  0.0000  0.0000  0.0000  0.0000 </r>
       </set>
       <set comment="band 35">
        <r>  0.0000  0.0000  0.0000  0.0000  0.0000  0.0000  0.0153  0.0000  0.0000  0.0000  0.0000  0.0000  0.0000  0.0000  0.0000  0.0000 </r>
       </set>
       <set comment="band 36">
        <r>  0.0000  0.0000  0.0000  0.0000  0.0000  0.0000  0.0000  0.0000  0.0000  0.0000  0.0136  0.0000  0.0000  0.0000  0.0000  0.0000 </r>
       </set>
      </set>
     </set>
     <set comment="spin2">
      <set comment="kpoint 1">
       <set comment="band 1">
        <r>  0.9833  0.0000  0.0000  0.0000  0.0000  0.0000  0.0000  0.0000  0.0000  0.0000  0.0000  0.0000  0.0000  0.0000  0.0000  0.0000 </r>
       </set>
       <set comment="band 2">
        <r>  0.0000  0.0729  0.0000  0.8621  0.0000  0.0000  0.0000  0.0000  0.0000  0.0000  0.0000  0.0000  0.0000  0.0001  0.0000  0.0001 </r>
       </set>
       <set comment="band 3">
        <r>  0.0000  0.8621  0.0000  0.0729  0.0000  0.0000  0.0000  0.0000  0.0000  0.0001  0.0000  0.0001  0.0000  0.0000  0.0000  0.0000 </r>
       </set>
       <set comment="band 4">
        <r>  0.0000  0.0000  0.9351  0.0000  0.0000  0.0000  0.0000  0.0000  0.0000  0.0000  0.0000  0.0000  0.0002  0.0000  0.0000  0.0000 </r>
       </set>
       <set comment="band 5">
        <r>  0.1832  0.0000  0.0000  0.0000  0.0000  0.0000  0.0000  0.0000  0.0000  0.0000  0.0000  0.0000  0.0000  0.0000  0.0000  0.0000 </r>
       </set>
       <set comment="band 6">
        <r>  0.0000  0.0000  0.0000  0.0000  0.0000  0.0000  0.0000  0.0000  0.0000  0.0000  0.9219  0.0000  0.0000  0.0000  0.0000  0.0000 </r>
       </set>
       <set comment="band 7">
        <r>  0.0000  0.0000  0.0000  0.0000  0.0000  0.0000  0.0000  0.0000  0.0000  0.0000  0.0000  0.0000  0.0000  0.0000  0.9216  0.0000 </r>
       </set>
       <set comment="band 8">
        <r>  0.0000  0.0000  0.0000  0.0000  0.0000  0.0000  0.0000  0.0000  0.0000  0.3452  0.0000  0.5753  0.0000  0.0008  0.0000  0.0005 </r>
       </set>
       <set comment="band 9">
        <r>  0.0000  0.0000  0.0000  0.0000  0.0000  0.0000  0.0000  0.0000  0.0000  0.0005  0.0000  0.0008  0.0000  0.5753  0.0000  0.3452 </r>
       </set>
       <set comment="band 10">
        <r>  0.0000  0.0000  0.0002  0.0000  0.0000  0.0000  0.0000  0.0000  0.0000  0.0000  0.0000  0.0000  0.9210  0.0000  0.0000  0.0000 </r>
       </set>
       <set comment="band 11">
        <r>  0.0000  0.0000  0.0000  0.0002  0.0000  0.0000  0.0000  0.0000  0.0000  0.0000  0.0000  0.0000  0.0000  0.3454  0.0000  0.5756 </r>
       </set>
       <set comment="band 12">
        <r>  0.0000  0.0002  0.0000  0.0000  0.0000  0.0000  0.0000  0.0000  0.0000  0.5756  0.0000  0.3454  0.0000  0.0000  0.0000  0.0000 </r>
       </set>
       <set comment="band 13">
        <r>  0.0000  0.0000  0.0000  0.0000  0.0000  0.0092  0.0000  0.4706  0.0000  0.0000  0.0000  0.0000  0.0000  0.0000  0.0000  0.0000 </r>
       </set>
       <set comment="band 14">
        <r>  0.0000  0.0000  0.0000  0.0000  0.0000  0.4706  0.0000  0.0092  0.0000  0.0000  0.0000  0.0000  0.0000  0.0000  0.0000  0.0000 </r>
       </set>
       <set comment="band 15">
        <r>  0.0000  0.0000  0.0000  0.0000  0.4799  0.0000  0.0000  0.0000  0.0000  0.0000  0.0000  0.0000  0.0000  0.0000  0.0000  0.0000 </r>
       </set>
       <set comment="band 16">
        <r>  0.0000  0.0000  0.0000  0.0000  0.0000  0.0000  0.0000  0.0000  0.4506  0.0000  0.0000  0.0000  0.0000  0.0000  0.0000  0.0000 </r>
       </set>
       <set comment="band 17">
        <r>  0.0000  0.0000  0.0000  0.0000  0.0000  0.0000  0.4506  0.0000  0.0000  0.0000  0.0000  0.0000  0.0000  0.0000  0.0000  0.0000 </r>
       </set>
       <set comment="band 18">
        <r>  0.0000  0.0012  0.0000  0.0577  0.0000  0.0000  0.0000  0.0000  0.0000  0.0000  0.0000  0.0000  0.0000  0.0001  0.0000  0.0002 </r>
       </set>
       <set comment="band 19">
        <r>  0.0000  0.0577  0.0000  0.0012  0.0000  0.0000  0.0000  0.0000  0.0000  0.0002  0.0000  0.0001  0.0000  0.0000  0.0000  0.0000 </r>
       </set>
       <set comment="band 20">
        <r>  0.0000  0.0000  0.0589  0.0000  0.0000  0.0000  0.0000  0.0000  0.0000  0.0000  0.0000  0.0000  0.0003  0.0000  0.0000  0.0000 </r>
       </set>
       <set comment="band 21">
        <r>  0.0379  0.0000  0.0000  0.0000  0.0000  0.0000  0.0000  0.0000  0.0000  0.0000  0.0000  0.0000  0.0000  0.0000  0.0000  0.0000 </r>
       </set>
       <set comment="band 22">
        <r>  0.0000  0.0000  0.0000  0.0000  0.0000  0.0000  0.0000  0.0000  0.0600  0.0000  0.0000  0.0000  0.0000  0.0000  0.0000  0.0000 </r>
       </set>
       <set comment="band 23">
        <r>  0.0000  0.0000  0.0000  0.0000  0.0000  0.0000  0.0600  0.0000  0.0000  0.0000  0.0000  0.0000  0.0000  0.0000  0.0000  0.0000 </r>
       </set>
       <set comment="band 24">
        <r>  0.0000  0.0064  0.0000  0.0167  0.0000  0.0000  0.0000  0.0000  0.0000  0.0002  0.0000  0.0001  0.0000  0.0004  0.0000  0.0006 </r>
       </set>
       <set comment="band 25">
        <r>  0.0000  0.0167  0.0000  0.0064  0.0000  0.0000  0.0000  0.0000  0.0000  0.0006  0.0000  0.0004  0.0000  0.0001  0.0000  0.0002 </r>
       </set>
       <set comment="band 26">
        <r>  0.0000  0.0000  0.0231  0.0000  0.0000  0.0000  0.0000  0.0000  0.0000  0.0000  0.0000  0.0000  0.0014  0.0000  0.0000  0.0000 </r>
       </set>
       <set comment="band 27">
        <r>  0.0346  0.0000  0.0000  0.0000  0.0000  0.0000  0.0000  0.0000  0.0000  0.0000  0.0000  0.0000  0.0000  0.0000  0.0000  0.0000 </r>
       </set>
       <set comment="band 28">
        <r>  0.0000  0.0000  0.0000  0.0000  0.0000  0.0000  0.0000  0.0000  0.0000  0.0000  0.0000  0.0000  0.0000  0.0000  0.0060  0.0000 </r>
       </set>
       <set comment="band 29">
        <r>  0.0000  0.0000  0.0000  0.0000  0.0000  0.0000  0.0000  0.0000  0.0000  0.0020  0.0000  0.0034  0.0000  0.0004  0.0000  0.0002 </r>
       </set>
       <set comment="band 30">
        <r>  0.0000  0.0000  0.0000  0.0000  0.0000  0.0000  0.0000  0.0000  0.0000  0.0002  0.0000  0.0004  0.0000  0.0034  0.0000  0.0020 </r>
       </set>
       <set comment="band 31">
        <r>  0.0000  0.0000  0.0000  0.0000  0.0000  0.0629  0.0000  0.0116  0.0000  0.0000  0.0000  0.0000  0.0000  0.0000  0.0000  0.0000 </r>
       </set>
       <set comment="band 32">
        <r>  0.0000  0.0000  0.0000  0.0000  0.0000  0.0116  0.0000  0.0629  0.0000  0.0000  0.0000  0.0000  0.0000  0.0000  0.0000  0.0000 </r>
       </set>
       <set comment="band 33">
        <r>  0.0000  0.0000  0.0000  0.0000  0.0746  0.0000  0.0000  0.0000  0.0000  0.0000  0.0000  0.0000  0.0000  0.0000  0.0000  0.0000 </r>
       </set>
       <set comment="band 34">
        <r>  0.0000  0.0000  0.0000  0.0000  0.0000  0.0000  0.0000  0.0000  0.0206  0.0000  0.0000  0.0000  0.0000  0.0000  0.0000  0.0000 </r>
       </set>
       <set comment="band 35">
        <r>  0.0000  0.0000  0.0000  0.0000  0.0000  0.0000  0.0206  0.0000  0.0000  0.0000  0.0000  0.0000  0.0000  0.0000  0.0000  0.0000 </r>
       </set>
       <set comment="band 36">
        <r>  0.0000  0.0000  0.0000  0.0000  0.0000  0.0000  0.0000  0.0000  0.0000  0.0000  0.0137  0.0000  0.0000  0.0000  0.0000  0.0000 </r>
       </set>
      </set>
     </set>
    </set>
   </array>
  </projected>
 </calculation>
 <structure name="finalpos" >
  <crystal>
   <varray name="basis" >
    <v>      10.00000000       0.00000000       0.00000000 </v>
    <v>       0.00000000      10.00000000       0.00000000 </v>
    <v>       0.00000000       0.00000000      10.00000000 </v>
   </varray>
   <i name="volume">   1000.00000000 </i>
   <varray name="rec_basis" >
    <v>       0.10000000       0.00000000       0.00000000 </v>
    <v>       0.00000000       0.10000000       0.00000000 </v>
    <v>       0.00000000       0.00000000       0.10000000 </v>
   </varray>
  </crystal>
  <varray name="positions" >
   <v>       0.50000000       0.50000000       0.50000000 </v>
  </varray>
 </structure>
</modeling>
