       N       E                     dE             d eps       ncg     rms          ort
DAV:   1     0.320861407586E+02    0.32086E+02   -0.15235E+03    36   0.107E+02
DAV:   2     0.219498198868E+02   -0.10136E+02   -0.10130E+02    36   0.183E+01
DAV:   3     0.164502129915E+02   -0.54996E+01   -0.51959E+01    36   0.361E+00
DAV:   4     0.441377092637E+01   -0.12036E+02   -0.12034E+02    36   0.142E+01
DAV:   5     0.824113986555E+00   -0.35897E+01   -0.35143E+01    36   0.661E+00
SDA:   6    -0.371692899801E+00   -0.11958E+01   -0.69579E+01    36   0.174E+02 0.000E+00
DMP:   7    -0.277967754086E+01   -0.24080E+01   -0.39166E+00    36   0.710E+00 0.706E+00
DMP:   8    -0.287995133131E+01   -0.10027E+00   -0.29370E+00    36   0.973E+00-0.624E+00
DMP:   9    -0.306636006297E+01   -0.18641E+00   -0.10755E+00    36   0.201E+00 0.177E+00
DMP:  10    -0.309914917122E+01   -0.32789E-01   -0.88785E-02    36   0.632E-01-0.107E+00
DMP:  11    -0.310336925784E+01   -0.42201E-02   -0.25143E-01    36   0.641E-01-0.335E-02
DMP:  12    -0.311991388087E+01   -0.16545E-01   -0.66029E-02    36   0.903E-02 0.196E-01
DMP:  13    -0.312249631450E+01   -0.25824E-02   -0.97425E-03    36   0.382E-02-0.363E-02
DMP:  14    -0.312304533471E+01   -0.54902E-03   -0.12254E-02    36   0.296E-02 0.284E-03
DMP:  15    -0.312382726385E+01   -0.78193E-03   -0.34034E-03    36   0.529E-03 0.843E-03
DMP:  16    -0.312397983456E+01   -0.15257E-03   -0.83464E-04    36   0.243E-03-0.891E-04
DMP:  17    -0.312403534563E+01   -0.55511E-04   -0.78471E-04    36   0.170E-03 0.675E-04
DMP:  18    -0.312408969255E+01   -0.54347E-04   -0.26387E-04    36   0.372E-04 0.754E-04
DMP:  19    -0.312410392197E+01   -0.14229E-04   -0.45676E-05    36   0.938E-05 0.534E-05
   1 F= -.31241039E+01 E0= -.31241039E+01  d E =-.312410E+01  mag=     3.0000
