       N       E                     dE             d eps       ncg     rms          ort
DAV:   1     0.128890205539E+03    0.12889E+03   -0.27482E+03    36   0.195E+02
DAV:   2     0.681734124043E+02   -0.60717E+02   -0.60694E+02    36   0.219E+01
DAV:   3     0.772580148573E+01   -0.60448E+02   -0.60446E+02    36   0.511E+01
DAV:   4     0.699326717424E+00   -0.70265E+01   -0.70255E+01    36   0.214E+01
DAV:   5     0.107286689760E-01   -0.68860E+00   -0.68802E+00    36   0.653E+00
SDA:   6    -0.903454748786E-01   -0.10107E+00   -0.19385E+00    36   0.485E+00 0.000E+00
DMP:   7    -0.182344669718E+00   -0.91999E-01   -0.92853E-01    36   0.245E+00-0.344E-01
DMP:   8    -0.235717516663E+00   -0.53373E-01   -0.37498E-01    36   0.785E-01 0.399E-01
DMP:   9    -0.245911524346E+00   -0.10194E-01   -0.77514E-02    36   0.265E-01-0.185E-01
DMP:  10    -0.251289410284E+00   -0.53779E-02   -0.39915E-02    36   0.725E-02 0.715E-02
DMP:  11    -0.253621416836E+00   -0.23320E-02   -0.17139E-02    36   0.369E-02 0.155E-02
DMP:  12    -0.254872778190E+00   -0.12514E-02   -0.87731E-03    36   0.146E-02 0.191E-02
DMP:  13    -0.255467251797E+00   -0.59447E-03   -0.33107E-03    36   0.543E-03 0.747E-03
DMP:  14    -0.255731597427E+00   -0.26435E-03   -0.20436E-03    36   0.329E-03 0.477E-03
DMP:  15    -0.255890093626E+00   -0.15850E-03   -0.92845E-04    36   0.128E-03 0.272E-03
DMP:  16    -0.255967259145E+00   -0.77166E-04   -0.55580E-04    36   0.827E-04 0.147E-03
DMP:  17    -0.256015249367E+00   -0.47990E-04   -0.31955E-04    36   0.435E-04 0.953E-04
   1 F= -.25601525E+00 E0= -.25601525E+00  d E =-.256015E+00  mag=     1.0000
