<?xml version="1.0" encoding="ISO-8859-1"?>
<modeling>
 <generator>
  <i name="program" type="string">vasp </i>
  <i name="version" type="string">5.4.4.18Apr17-6-g9f103f2a35  </i>
  <i name="subversion" type="string">(build Apr 25 2017 10:43:04) complex            parallel </i>
  <i name="platform" type="string">LinuxIFC </i>
  <i name="date" type="string">2019 10 28 </i>
  <i name="time" type="string">21:34:32 </i>
 </generator>
 <incar>
  <i type="string" name="PREC">n</i>
  <i type="string" name="ALGO">  N</i>
  <i type="int" name="ISPIN">     1</i>
  <i type="int" name="NELM">   100</i>
  <i type="int" name="IBRION">     2</i>
  <i name="EDIFF">      0.00000010</i>
  <i name="EDIFFG">     -0.00500000</i>
  <i type="int" name="NSW">    50</i>
  <i type="int" name="ISIF">     3</i>
  <i name="ENCUT">    520.00000000</i>
  <i type="logical" name="LREAL"> F  </i>
  <i type="int" name="ISMEAR">     0</i>
  <i name="SIGMA">      0.10000000</i>
  <i type="logical" name="LWAVE"> F  </i>
  <i type="logical" name="LCHARG"> F  </i>
  <i type="int" name="LORBIT">    12</i>
  <i type="logical" name="LASPH"> T  </i>
  <v type="int" name="KPOINT_BSE">    -1     0     0     0</v>
  <i type="int" name="NELM">   100</i>
  <i type="logical" name="LASPH"> T  </i>
 </incar>
 <structure name="primitive_cell" >
  <crystal>
   <varray name="basis" >
    <v>       0.00000000       2.12337500       2.12337500 </v>
    <v>       2.12337500       0.00000000       2.12337500 </v>
    <v>       2.12337500       2.12337500       0.00000000 </v>
   </varray>
   <i name="volume">     19.14741257 </i>
   <varray name="rec_basis" >
    <v>      -0.23547419       0.23547419       0.23547419 </v>
    <v>       0.23547419      -0.23547419       0.23547419 </v>
    <v>       0.23547419       0.23547419      -0.23547419 </v>
   </varray>
  </crystal>
  <varray name="positions" >
   <v>       0.00000000       0.00000000       0.00000000 </v>
   <v>      -0.50000000      -0.50000000      -0.50000000 </v>
  </varray>
 </structure>
 <varray name="primitive_index" >
  <v type="int" >        1 </v>
  <v type="int" >        2 </v>
 </varray>
 <kpoints>
  <generation param="Gamma">
   <v type="int" name="divisions">       8        8        8 </v>
   <v name="usershift">      0.00000000       0.00000000       0.00000000 </v>
   <v name="genvec1">      0.12500000       0.00000000       0.00000000 </v>
   <v name="genvec2">      0.00000000       0.12500000       0.00000000 </v>
   <v name="genvec3">      0.00000000       0.00000000       0.12500000 </v>
   <v name="shift">      0.00000000       0.00000000       0.00000000 </v>
  </generation>
  <varray name="kpointlist" >
   <v>       0.00000000       0.00000000       0.00000000 </v>
   <v>       0.12500000       0.00000000       0.00000000 </v>
   <v>       0.25000000       0.00000000       0.00000000 </v>
   <v>       0.37500000       0.00000000       0.00000000 </v>
   <v>       0.50000000       0.00000000       0.00000000 </v>
   <v>       0.12500000       0.12500000       0.00000000 </v>
   <v>       0.25000000       0.12500000       0.00000000 </v>
   <v>       0.37500000       0.12500000       0.00000000 </v>
   <v>       0.50000000       0.12500000       0.00000000 </v>
   <v>      -0.37500000       0.12500000       0.00000000 </v>
   <v>      -0.25000000       0.12500000       0.00000000 </v>
   <v>      -0.12500000       0.12500000       0.00000000 </v>
   <v>       0.25000000       0.25000000       0.00000000 </v>
   <v>       0.37500000       0.25000000       0.00000000 </v>
   <v>       0.50000000       0.25000000       0.00000000 </v>
   <v>      -0.37500000       0.25000000       0.00000000 </v>
   <v>      -0.25000000       0.25000000       0.00000000 </v>
   <v>       0.37500000       0.37500000       0.00000000 </v>
   <v>       0.50000000       0.37500000       0.00000000 </v>
   <v>      -0.37500000       0.37500000       0.00000000 </v>
   <v>       0.50000000       0.50000000       0.00000000 </v>
   <v>       0.37500000       0.25000000       0.12500000 </v>
   <v>       0.50000000       0.25000000       0.12500000 </v>
   <v>      -0.37500000       0.25000000       0.12500000 </v>
   <v>       0.50000000       0.37500000       0.12500000 </v>
   <v>      -0.37500000       0.37500000       0.12500000 </v>
   <v>      -0.25000000       0.37500000       0.12500000 </v>
   <v>      -0.37500000       0.50000000       0.12500000 </v>
   <v>      -0.25000000       0.50000000       0.25000000 </v>
  </varray>
  <varray name="weights" >
   <v>       0.00195312 </v>
   <v>       0.01562500 </v>
   <v>       0.01562500 </v>
   <v>       0.01562500 </v>
   <v>       0.00781250 </v>
   <v>       0.01171875 </v>
   <v>       0.04687500 </v>
   <v>       0.04687500 </v>
   <v>       0.04687500 </v>
   <v>       0.04687500 </v>
   <v>       0.04687500 </v>
   <v>       0.02343750 </v>
   <v>       0.01171875 </v>
   <v>       0.04687500 </v>
   <v>       0.04687500 </v>
   <v>       0.04687500 </v>
   <v>       0.02343750 </v>
   <v>       0.01171875 </v>
   <v>       0.04687500 </v>
   <v>       0.02343750 </v>
   <v>       0.00585938 </v>
   <v>       0.04687500 </v>
   <v>       0.09375000 </v>
   <v>       0.04687500 </v>
   <v>       0.04687500 </v>
   <v>       0.09375000 </v>
   <v>       0.04687500 </v>
   <v>       0.02343750 </v>
   <v>       0.01171875 </v>
  </varray>
 </kpoints>
 <parameters>
  <separator name="general" >
   <i type="string" name="SYSTEM">unknown system</i>
   <i type="logical" name="LCOMPAT"> F  </i>
  </separator>
  <separator name="electronic" >
   <i type="string" name="PREC">n</i>
   <i name="ENMAX">    520.00000000</i>
   <i name="ENAUG">    605.39200000</i>
   <i name="EDIFF">      0.00000010</i>
   <i type="int" name="IALGO">    38</i>
   <i type="int" name="IWAVPR">    11</i>
   <i type="int" name="NBANDS">    18</i>
   <i name="NELECT">      8.00000000</i>
   <i type="int" name="TURBO">     0</i>
   <i type="int" name="IRESTART">     0</i>
   <i type="int" name="NREBOOT">     0</i>
   <i type="int" name="NMIN">     0</i>
   <i name="EREF">      0.00000000</i>
   <separator name="electronic smearing" >
    <i type="int" name="ISMEAR">     0</i>
    <i name="SIGMA">      0.10000000</i>
    <i name="KSPACING">      0.50000000</i>
    <i type="logical" name="KGAMMA"> T  </i>
   </separator>
   <separator name="electronic projectors" >
    <i type="logical" name="LREAL"> F  </i>
    <v name="ROPT">      0.00000000      0.00000000</v>
    <i type="int" name="LMAXPAW">  -100</i>
    <i type="int" name="LMAXMIX">     2</i>
    <i type="logical" name="NLSPLINE"> F  </i>
   </separator>
   <separator name="electronic startup" >
    <i type="int" name="ISTART">     0</i>
    <i type="int" name="ICHARG">     2</i>
    <i type="int" name="INIWAV">     1</i>
   </separator>
   <separator name="electronic spin" >
    <i type="int" name="ISPIN">     1</i>
    <i type="logical" name="LNONCOLLINEAR"> F  </i>
    <v name="MAGMOM">      1.00000000      1.00000000</v>
    <i name="NUPDOWN">     -1.00000000</i>
    <i type="logical" name="LSORBIT"> F  </i>
    <v name="SAXIS">      0.00000000      0.00000000      1.00000000</v>
    <i type="logical" name="LSPIRAL"> F  </i>
    <v name="QSPIRAL">      0.00000000      0.00000000      0.00000000</v>
    <i type="logical" name="LZEROZ"> F  </i>
   </separator>
   <separator name="electronic exchange-correlation" >
    <i type="logical" name="LASPH"> T  </i>
    <i type="logical" name="LMETAGGA"> F  </i>
   </separator>
   <separator name="electronic convergence" >
    <i type="int" name="NELM">   100</i>
    <i type="int" name="NELMDL">    -5</i>
    <i type="int" name="NELMIN">     2</i>
    <i name="ENINI">    520.00000000</i>
    <separator name="electronic convergence detail" >
     <i type="logical" name="LDIAG"> T  </i>
     <i type="logical" name="LSUBROT"> F  </i>
     <i name="WEIMIN">      0.00100000</i>
     <i name="EBREAK">      0.00000000</i>
     <i name="DEPER">      0.30000000</i>
     <i type="int" name="NRMM">     4</i>
     <i name="TIME">      0.40000000</i>
    </separator>
   </separator>
   <separator name="electronic mixer" >
    <i name="AMIX">      0.40000000</i>
    <i name="BMIX">      1.00000000</i>
    <i name="AMIN">      0.10000000</i>
    <i name="AMIX_MAG">      1.60000000</i>
    <i name="BMIX_MAG">      1.00000000</i>
    <separator name="electronic mixer details" >
     <i type="int" name="IMIX">     4</i>
     <i type="logical" name="MIXFIRST"> F  </i>
     <i type="int" name="MAXMIX">   -45</i>
     <i name="WC">    100.00000000</i>
     <i type="int" name="INIMIX">     1</i>
     <i type="int" name="MIXPRE">     1</i>
     <i type="int" name="MREMOVE">     5</i>
    </separator>
   </separator>
   <separator name="electronic dipolcorrection" >
    <i type="logical" name="LDIPOL"> F  </i>
    <i type="logical" name="LMONO"> F  </i>
    <i type="int" name="IDIPOL">     0</i>
    <i name="EPSILON">      1.00000000</i>
    <v name="DIPOL">   -100.00000000   -100.00000000   -100.00000000</v>
    <i name="EFIELD">      0.00000000</i>
   </separator>
  </separator>
  <separator name="grids" >
   <i type="int" name="NGX">    18</i>
   <i type="int" name="NGY">    18</i>
   <i type="int" name="NGZ">    18</i>
   <i type="int" name="NGXF">    36</i>
   <i type="int" name="NGYF">    36</i>
   <i type="int" name="NGZF">    36</i>
   <i type="logical" name="ADDGRID"> F  </i>
  </separator>
  <separator name="ionic" >
   <i type="int" name="NSW">    50</i>
   <i type="int" name="IBRION">     2</i>
   <i type="int" name="MDALGO">     0</i>
   <i type="int" name="ISIF">     3</i>
   <i name="PSTRESS">      0.00000000</i>
   <i name="EDIFFG">     -0.00500000</i>
   <i type="int" name="NFREE">     1</i>
   <i name="POTIM">      0.50000000</i>
   <i name="SMASS">     -3.00000000</i>
   <i name="SCALEE">      1.00000000</i>
  </separator>
  <separator name="ionic md" >
   <i name="TEBEG">      0.00010000</i>
   <i name="TEEND">      0.00010000</i>
   <i type="int" name="NBLOCK">     1</i>
   <i type="int" name="KBLOCK">    50</i>
   <i type="int" name="NPACO">   256</i>
   <i name="APACO">     16.00000000</i>
  </separator>
  <separator name="symmetry" >
   <i type="int" name="ISYM">     2</i>
   <i name="SYMPREC">      0.00001000</i>
  </separator>
  <separator name="dos" >
   <i type="int" name="LORBIT">    12</i>
   <v name="RWIGS">     -1.00000000     -1.00000000</v>
   <i type="int" name="NEDOS">   301</i>
   <i name="EMIN">     10.00000000</i>
   <i name="EMAX">    -10.00000000</i>
   <i name="EFERMI">      0.00000000</i>
  </separator>
  <separator name="writing" >
   <i type="int" name="NWRITE">     2</i>
   <i type="logical" name="LWAVE"> F  </i>
   <i type="logical" name="LDOWNSAMPLE"> F  </i>
   <i type="logical" name="LCHARG"> F  </i>
   <i type="logical" name="LPARD"> F  </i>
   <i type="logical" name="LVTOT"> F  </i>
   <i type="logical" name="LVHAR"> F  </i>
   <i type="logical" name="LELF"> F  </i>
   <i type="logical" name="LOPTICS"> F  </i>
   <v name="STM">      0.00000000      0.00000000      0.00000000      0.00000000      0.00000000      0.00000000      0.00000000</v>
  </separator>
  <separator name="performance" >
   <i type="int" name="NPAR">    18</i>
   <i type="int" name="NSIM">     4</i>
   <i type="int" name="NBLK">    -1</i>
   <i type="logical" name="LPLANE"> T  </i>
   <i type="logical" name="LSCALAPACK"> T  </i>
   <i type="logical" name="LSCAAWARE"> F  </i>
   <i type="logical" name="LSCALU"> F  </i>
   <i type="logical" name="LASYNC"> F  </i>
   <i type="logical" name="LORBITALREAL"> F  </i>
  </separator>
  <separator name="miscellaneous" >
   <i type="int" name="IDIOT">     3</i>
   <i type="int" name="ISPECIAL">     0</i>
   <i type="logical" name="LMUSIC"> F  </i>
   <v name="POMASS">     24.30500000     16.00000000</v>
   <v name="DARWINR">      0.00000000      0.00000000</v>
   <v name="DARWINV">      1.00000000      1.00000000</v>
   <i type="logical" name="LCORR"> T  </i>
  </separator>
  <i type="logical" name="GGA_COMPAT"> T  </i>
  <i type="logical" name="LBERRY"> F  </i>
  <i type="int" name="ICORELEVEL">     0</i>
  <i type="logical" name="LDAU"> F  </i>
  <i type="int" name="I_CONSTRAINED_M">     0</i>
  <separator name="electronic exchange-correlation" >
   <i type="string" name="GGA">--</i>
   <i type="int" name="VOSKOWN">     0</i>
   <i type="logical" name="LHFCALC"> F  </i>
   <i type="string" name="PRECFOCK"></i>
   <i type="logical" name="LSYMGRAD"> F  </i>
   <i type="logical" name="LHFONE"> F  </i>
   <i type="logical" name="LRHFCALC"> F  </i>
   <i type="logical" name="LTHOMAS"> F  </i>
   <i type="logical" name="LMODELHF"> F  </i>
   <i name="ENCUT4O">     -1.00000000</i>
   <i type="int" name="EXXOEP">     0</i>
   <i type="int" name="FOURORBIT">     0</i>
   <i name="AEXX">      0.00000000</i>
   <i name="HFALPHA">      0.00000000</i>
   <i name="MCALPHA">      0.00000000</i>
   <i name="ALDAX">      1.00000000</i>
   <i name="AGGAX">      1.00000000</i>
   <i name="ALDAC">      1.00000000</i>
   <i name="AGGAC">      1.00000000</i>
   <i type="int" name="NKREDX">     1</i>
   <i type="int" name="NKREDY">     1</i>
   <i type="int" name="NKREDZ">     1</i>
   <i type="logical" name="SHIFTRED"> F  </i>
   <i type="logical" name="ODDONLY"> F  </i>
   <i type="logical" name="EVENONLY"> F  </i>
   <i type="int" name="LMAXFOCK">     0</i>
   <i type="int" name="NMAXFOCKAE">     0</i>
   <i type="logical" name="LFOCKAEDFT"> F  </i>
   <i name="HFSCREEN">      0.00000000</i>
   <i name="HFSCREENC">      0.00000000</i>
   <i type="int" name="NBANDSGWLOW">     0</i>
  </separator>
  <separator name="vdW DFT" >
   <i type="logical" name="LUSE_VDW"> F  </i>
   <i name="Zab_VDW">     -0.84910000</i>
   <i name="PARAM1">      0.12340000</i>
   <i name="PARAM2">      1.00000000</i>
   <i name="PARAM3">      0.00000000</i>
  </separator>
  <separator name="model GW" >
   <i type="int" name="MODEL_GW">     0</i>
   <i name="MODEL_EPS0">      5.74422377</i>
   <i name="MODEL_ALPHA">      1.00000000</i>
  </separator>
  <separator name="linear response parameters" >
   <i type="logical" name="LEPSILON"> F  </i>
   <i type="logical" name="LRPA"> F  </i>
   <i type="logical" name="LNABLA"> F  </i>
   <i type="logical" name="LVEL"> F  </i>
   <i type="int" name="KINTER">     0</i>
   <i name="CSHIFT">      0.10000000</i>
   <i name="OMEGAMAX">     -1.00000000</i>
   <i name="DEG_THRESHOLD">      0.00200000</i>
   <i name="RTIME">     -0.10000000</i>
   <i name="WPLASMAI">      0.00000000</i>
   <v name="DFIELD">      0.00000000      0.00000000      0.00000000</v>
   <v name="WPLASMA">      0.00000000      0.00000000      0.00000000      0.00000000      0.00000000      0.00000000      0.00000000      0.00000000      0.00000000</v>
  </separator>
  <separator name="orbital magnetization" >
   <i type="logical" name="NUCIND"> F  </i>
   <v name="MAGPOS">      0.00000000      0.00000000      0.00000000</v>
   <i type="logical" name="LNICSALL"> T  </i>
   <i type="logical" name="ORBITALMAG"> F  </i>
   <i type="logical" name="LMAGBLOCH"> F  </i>
   <i type="logical" name="LCHIMAG"> F  </i>
   <i type="logical" name="LGAUGE"> T  </i>
   <i type="int" name="MAGATOM">     0</i>
   <v name="MAGDIPOL">      0.00000000      0.00000000      0.00000000</v>
   <v name="AVECCONST">      0.00000000      0.00000000      0.00000000</v>
  </separator>
  <separator name="response functions" >
   <i type="logical" name="LADDER"> F  </i>
   <i type="logical" name="LRPAFORCE"> F  </i>
   <i type="logical" name="LFXC"> F  </i>
   <i type="logical" name="LHARTREE"> T  </i>
   <i type="int" name="IBSE">     0</i>
   <v type="int" name="KPOINT">    -1     0     0     0</v>
   <i type="logical" name="LTCTE"> F  </i>
   <i type="logical" name="LTETE"> F  </i>
   <i type="logical" name="LTRIPLET"> F  </i>
   <i type="logical" name="LFXCEPS"> F  </i>
   <i type="logical" name="LFXHEG"> F  </i>
   <i type="int" name="NATURALO">     2</i>
   <i type="logical" name="L2ORDER"> F  </i>
   <i type="logical" name="LMP2LT"> F  </i>
   <i type="logical" name="LUSEW"> F  </i>
   <i name="ENCUTGW">     -2.00000000</i>
   <i name="ENCUTGWSOFT">     -2.00000000</i>
   <i name="ENCUTLF">     -1.00000000</i>
   <i type="int" name="LMAXMP2">    -1</i>
   <i name="SCISSOR">      0.00000000</i>
   <i type="int" name="NOMEGA">     0</i>
   <i type="int" name="NOMEGAR">     0</i>
   <i type="int" name="NBANDSGW">    -1</i>
   <i type="int" name="NBANDSO">    -1</i>
   <i type="int" name="NBANDSV">    -1</i>
   <i type="int" name="NELM">   100</i>
   <i type="int" name="NELMHF">     1</i>
   <i type="int" name="DIM">     3</i>
   <i type="int" name="ANTIRES">     0</i>
   <i name="OMEGAMAX">    -30.00000000</i>
   <i name="OMEGAMIN">    -30.00000000</i>
   <i name="OMEGATL">   -200.00000000</i>
   <i type="int" name="OMEGAGRID">   140</i>
   <i name="CSHIFT">     -0.10000000</i>
   <i type="logical" name="SELFENERGY"> F  </i>
   <i type="logical" name="LSPECTRAL"> F  </i>
   <i type="logical" name="LSPECTRALGW"> F  </i>
   <i type="logical" name="LSINGLES"> F  </i>
   <i type="logical" name="LFERMIGW"> F  </i>
   <i type="logical" name="ODDONLYGW"> F  </i>
   <i type="logical" name="EVENONLYGW"> F  </i>
   <i type="int" name="NKREDLFX">     1</i>
   <i type="int" name="NKREDLFY">     1</i>
   <i type="int" name="NKREDLFZ">     1</i>
   <i type="int" name="MAXMEM">  2800</i>
   <i type="int" name="TELESCOPE">     0</i>
   <i type="int" name="TAUPAR">     1</i>
   <i type="int" name="OMEGAPAR">    -1</i>
   <i name="LAMBDA">      1.00000000</i>
  </separator>
  <separator name="External order field" >
   <i name="OFIELD_KAPPA">      0.00000000</i>
   <v name="OFIELD_K">      0.00000000      0.00000000      0.00000000</v>
   <i name="OFIELD_Q6_NEAR">      0.00000000</i>
   <i name="OFIELD_Q6_FAR">      0.00000000</i>
   <i name="OFIELD_A">      0.00000000</i>
  </separator>
 </parameters>
 <atominfo>
  <atoms>       2 </atoms>
  <types>       2 </types>
  <array name="atoms" >
   <dimension dim="1">ion</dimension>
   <field type="string">element</field>
   <field type="int">atomtype</field>
   <set>
    <rc><c>Mg</c><c>   1</c></rc>
    <rc><c>O </c><c>   2</c></rc>
   </set>
  </array>
  <array name="atomtypes" >
   <dimension dim="1">type</dimension>
   <field type="int">atomspertype</field>
   <field type="string">element</field>
   <field>mass</field>
   <field>valence</field>
   <field type="string">pseudopotential</field>
   <set>
    <rc><c>   1</c><c>Mg</c><c>     24.30500000</c><c>      2.00000000</c><c>  PAW_PBE Mg 13Apr2007                  </c></rc>
    <rc><c>   1</c><c>O </c><c>     16.00000000</c><c>      6.00000000</c><c>  PAW_PBE O 08Apr2002                   </c></rc>
   </set>
  </array>
 </atominfo>
 <structure name="initialpos" >
  <crystal>
   <varray name="basis" >
    <v>       0.00000000       2.12337500       2.12337500 </v>
    <v>       2.12337500       0.00000000       2.12337500 </v>
    <v>       2.12337500       2.12337500       0.00000000 </v>
   </varray>
   <i name="volume">     19.14741257 </i>
   <varray name="rec_basis" >
    <v>      -0.23547419       0.23547419       0.23547419 </v>
    <v>       0.23547419      -0.23547419       0.23547419 </v>
    <v>       0.23547419       0.23547419      -0.23547419 </v>
   </varray>
  </crystal>
  <varray name="positions" >
   <v>       0.00000000       0.00000000       0.00000000 </v>
   <v>       0.50000000       0.50000000       0.50000000 </v>
  </varray>
 </structure>
 <calculation>
  <scstep>
   <time name="dav">    0.06    0.06</time>
   <time name="total">    0.16    0.17</time>
   <energy>
    <i name="alphaZ">     19.07805803 </i>
    <i name="ewald">   -355.26551564 </i>
    <i name="hartreedc">   -122.44930271 </i>
    <i name="XCdc">    -20.50704350 </i>
    <i name="pawpsdc">    411.85617216 </i>
    <i name="pawaedc">   -361.79210629 </i>
    <i name="eentropy">     -0.00000000 </i>
    <i name="bandstr">    -26.43383149 </i>
    <i name="atom">    455.39485029 </i>
    <i name="e_fr_energy">     -0.11871915 </i>
    <i name="e_wo_entrp">     -0.11871915 </i>
    <i name="e_0_energy">     -0.11871915 </i>
   </energy>
  </scstep>
  <scstep>
   <time name="dav">    0.09    0.10</time>
   <time name="total">    0.09    0.10</time>
   <energy>
    <i name="e_fr_energy">    -13.44612012 </i>
    <i name="e_wo_entrp">    -13.44612012 </i>
    <i name="e_0_energy">    -13.44612012 </i>
   </energy>
  </scstep>
  <scstep>
   <time name="dav">    0.06    0.06</time>
   <time name="total">    0.06    0.06</time>
   <energy>
    <i name="e_fr_energy">    -13.46883001 </i>
    <i name="e_wo_entrp">    -13.46883001 </i>
    <i name="e_0_energy">    -13.46883001 </i>
   </energy>
  </scstep>
  <scstep>
   <time name="dav">    0.15    0.16</time>
   <time name="total">    0.15    0.16</time>
   <energy>
    <i name="e_fr_energy">    -13.46884255 </i>
    <i name="e_wo_entrp">    -13.46884255 </i>
    <i name="e_0_energy">    -13.46884255 </i>
   </energy>
  </scstep>
  <scstep>
   <time name="dav">    0.06    0.06</time>
   <time name="total">    0.06    0.07</time>
   <energy>
    <i name="e_fr_energy">    -13.46884255 </i>
    <i name="e_wo_entrp">    -13.46884255 </i>
    <i name="e_0_energy">    -13.46884255 </i>
   </energy>
  </scstep>
  <scstep>
   <time name="dav">    0.06    0.06</time>
   <time name="total">    0.16    0.16</time>
   <energy>
    <i name="e_fr_energy">    -11.93195778 </i>
    <i name="e_wo_entrp">    -11.93195778 </i>
    <i name="e_0_energy">    -11.93195778 </i>
   </energy>
  </scstep>
  <scstep>
   <time name="dav">    0.09    0.09</time>
   <time name="total">    0.20    0.20</time>
   <energy>
    <i name="e_fr_energy">    -11.91799441 </i>
    <i name="e_wo_entrp">    -11.91799441 </i>
    <i name="e_0_energy">    -11.91799441 </i>
   </energy>
  </scstep>
  <scstep>
   <time name="dav">    0.08    0.08</time>
   <time name="total">    0.19    0.19</time>
   <energy>
    <i name="e_fr_energy">    -11.91182513 </i>
    <i name="e_wo_entrp">    -11.91182513 </i>
    <i name="e_0_energy">    -11.91182513 </i>
   </energy>
  </scstep>
  <scstep>
   <time name="dav">    0.09    0.09</time>
   <time name="total">    0.20    0.20</time>
   <energy>
    <i name="e_fr_energy">    -11.91170764 </i>
    <i name="e_wo_entrp">    -11.91170764 </i>
    <i name="e_0_energy">    -11.91170764 </i>
   </energy>
  </scstep>
  <scstep>
   <time name="dav">    0.10    0.10</time>
   <time name="total">    0.21    0.21</time>
   <energy>
    <i name="e_fr_energy">    -11.91175969 </i>
    <i name="e_wo_entrp">    -11.91175969 </i>
    <i name="e_0_energy">    -11.91175969 </i>
   </energy>
  </scstep>
  <scstep>
   <time name="dav">    0.08    0.08</time>
   <time name="total">    0.18    0.18</time>
   <energy>
    <i name="e_fr_energy">    -11.91175976 </i>
    <i name="e_wo_entrp">    -11.91175976 </i>
    <i name="e_0_energy">    -11.91175976 </i>
   </energy>
  </scstep>
  <scstep>
   <time name="dav">    0.09    0.09</time>
   <time name="total">    0.19    0.19</time>
   <energy>
    <i name="alphaZ">     19.07805803 </i>
    <i name="ewald">   -355.26551564 </i>
    <i name="hartreedc">   -142.47370327 </i>
    <i name="XCdc">    -18.96263440 </i>
    <i name="pawpsdc">    543.04901995 </i>
    <i name="pawaedc">   -493.27605015 </i>
    <i name="eentropy">     -0.00000000 </i>
    <i name="bandstr">    -19.45578454 </i>
    <i name="atom">    455.39485029 </i>
    <i name="e_fr_energy">    -11.91175974 </i>
    <i name="e_wo_entrp">    -11.91175974 </i>
    <i name="e_0_energy">    -11.91175974 </i>
   </energy>
  </scstep>
  <structure>
   <crystal>
    <varray name="basis" >
     <v>       0.00000000       2.12337500       2.12337500 </v>
     <v>       2.12337500       0.00000000       2.12337500 </v>
     <v>       2.12337500       2.12337500       0.00000000 </v>
    </varray>
    <i name="volume">     19.14741257 </i>
    <varray name="rec_basis" >
     <v>      -0.23547419       0.23547419       0.23547419 </v>
     <v>       0.23547419      -0.23547419       0.23547419 </v>
     <v>       0.23547419       0.23547419      -0.23547419 </v>
    </varray>
   </crystal>
   <varray name="positions" >
    <v>       0.00000000       0.00000000       0.00000000 </v>
    <v>       0.50000000       0.50000000       0.50000000 </v>
   </varray>
  </structure>
  <varray name="forces" >
   <v>      -0.00000000      -0.00000000      -0.00000000 </v>
   <v>       0.00000000       0.00000000       0.00000000 </v>
  </varray>
  <varray name="stress" >
   <v>       0.18325620       0.00000000       0.00000000 </v>
   <v>       0.00000000       0.18325620      -0.00000000 </v>
   <v>       0.00000000       0.00000000       0.18325620 </v>
  </varray>
  <energy>
   <i name="e_fr_energy">    -11.91175974 </i>
   <i name="e_wo_entrp">    -11.91175974 </i>
   <i name="e_0_energy">     -0.00000000 </i>
  </energy>
  <time name="totalsc">    2.14    2.17</time>
  <eigenvalues>
   <array>
    <dimension dim="1">band</dimension>
    <dimension dim="2">kpoint</dimension>
    <dimension dim="3">spin</dimension>
    <field>eigene</field>
    <field>occ</field>
    <set>
     <set comment="spin 1">
      <set comment="kpoint 1">
       <r>  -14.1344    1.0000 </r>
       <r>    3.0047    1.0000 </r>
       <r>    3.0047    1.0000 </r>
       <r>    3.0047    1.0000 </r>
       <r>    7.4954    0.0000 </r>
       <r>   18.6648    0.0000 </r>
       <r>   18.6648    0.0000 </r>
       <r>   18.6648    0.0000 </r>
       <r>   22.5173    0.0000 </r>
       <r>   24.2631    0.0000 </r>
       <r>   24.2631    0.0000 </r>
       <r>   26.7815    0.0000 </r>
       <r>   26.7815    0.0000 </r>
       <r>   26.7816    0.0000 </r>
       <r>   40.7836    0.0000 </r>
       <r>   40.7836    0.0000 </r>
       <r>   40.7838    0.0000 </r>
       <r>   41.1884    0.0000 </r>
      </set>
      <set comment="kpoint 2">
       <r>  -13.9782    1.0000 </r>
       <r>    2.0591    1.0000 </r>
       <r>    2.9060    1.0000 </r>
       <r>    2.9060    1.0000 </r>
       <r>    8.4128    0.0000 </r>
       <r>   16.9934    0.0000 </r>
       <r>   19.0087    0.0000 </r>
       <r>   19.0087    0.0000 </r>
       <r>   23.2542    0.0000 </r>
       <r>   23.2542    0.0000 </r>
       <r>   24.5920    0.0000 </r>
       <r>   27.0236    0.0000 </r>
       <r>   28.4545    0.0000 </r>
       <r>   28.4545    0.0000 </r>
       <r>   38.7209    0.0000 </r>
       <r>   40.6280    0.0000 </r>
       <r>   40.6281    0.0000 </r>
       <r>   43.0699    0.0000 </r>
      </set>
      <set comment="kpoint 3">
       <r>  -13.5730    1.0000 </r>
       <r>    0.3918    1.0000 </r>
       <r>    2.6784    1.0000 </r>
       <r>    2.6784    1.0000 </r>
       <r>    9.8695    0.0000 </r>
       <r>   15.4224    0.0000 </r>
       <r>   19.4530    0.0000 </r>
       <r>   19.4530    0.0000 </r>
       <r>   22.8684    0.0000 </r>
       <r>   22.8684    0.0000 </r>
       <r>   24.5923    0.0000 </r>
       <r>   30.4727    0.0000 </r>
       <r>   31.0382    0.0000 </r>
       <r>   31.0383    0.0000 </r>
       <r>   36.7244    0.0000 </r>
       <r>   39.4331    0.0000 </r>
       <r>   39.4331    0.0000 </r>
       <r>   45.6328    0.0000 </r>
      </set>
      <set comment="kpoint 4">
       <r>  -13.1183    1.0000 </r>
       <r>   -0.9740    1.0000 </r>
       <r>    2.4640    1.0000 </r>
       <r>    2.4640    1.0000 </r>
       <r>   10.6276    0.0000 </r>
       <r>   15.1471    0.0000 </r>
       <r>   19.2398    0.0000 </r>
       <r>   19.2398    0.0000 </r>
       <r>   23.8237    0.0000 </r>
       <r>   24.1696    0.0000 </r>
       <r>   24.1696    0.0000 </r>
       <r>   31.6770    0.0000 </r>
       <r>   33.0001    0.0000 </r>
       <r>   33.0002    0.0000 </r>
       <r>   36.6160    0.0000 </r>
       <r>   36.6160    0.0000 </r>
       <r>   39.3359    0.0000 </r>
       <r>   47.0452    0.0000 </r>
      </set>
      <set comment="kpoint 5">
       <r>  -12.9111    1.0000 </r>
       <r>   -1.5049    1.0000 </r>
       <r>    2.3786    1.0000 </r>
       <r>    2.3786    1.0000 </r>
       <r>   10.7463    0.0000 </r>
       <r>   15.3330    0.0000 </r>
       <r>   19.0624    0.0000 </r>
       <r>   19.0625    0.0000 </r>
       <r>   23.5279    0.0000 </r>
       <r>   25.1973    0.0000 </r>
       <r>   25.1973    0.0000 </r>
       <r>   31.1119    0.0000 </r>
       <r>   33.4757    0.0000 </r>
       <r>   33.4757    0.0000 </r>
       <r>   35.1927    0.0000 </r>
       <r>   35.1927    0.0000 </r>
       <r>   44.9431    0.0000 </r>
       <r>   46.5923    0.0000 </r>
      </set>
      <set comment="kpoint 6">
       <r>  -13.9283    1.0000 </r>
       <r>    1.9800    1.0000 </r>
       <r>    2.7794    1.0000 </r>
       <r>    2.7794    1.0000 </r>
       <r>    8.7079    0.0000 </r>
       <r>   16.5159    0.0000 </r>
       <r>   19.1444    0.0000 </r>
       <r>   19.1444    0.0000 </r>
       <r>   21.5503    0.0000 </r>
       <r>   24.7352    0.0000 </r>
       <r>   25.7034    0.0000 </r>
       <r>   27.5485    0.0000 </r>
       <r>   27.5485    0.0000 </r>
       <r>   28.9999    0.0000 </r>
       <r>   38.8659    0.0000 </r>
       <r>   40.0984    0.0000 </r>
       <r>   40.0985    0.0000 </r>
       <r>   43.9027    0.0000 </r>
      </set>
      <set comment="kpoint 7">
       <r>  -13.6114    1.0000 </r>
       <r>    0.7766    1.0000 </r>
       <r>    2.5356    1.0000 </r>
       <r>    2.5394    1.0000 </r>
       <r>   10.0015    0.0000 </r>
       <r>   15.1738    0.0000 </r>
       <r>   19.1332    0.0000 </r>
       <r>   19.6151    0.0000 </r>
       <r>   20.7891    0.0000 </r>
       <r>   24.6345    0.0000 </r>
       <r>   26.6280    0.0000 </r>
       <r>   29.7250    0.0000 </r>
       <r>   30.0121    0.0000 </r>
       <r>   30.7647    0.0000 </r>
       <r>   36.9877    0.0000 </r>
       <r>   38.7559    0.0000 </r>
       <r>   40.6583    0.0000 </r>
       <r>   45.3772    0.0000 </r>
      </set>
      <set comment="kpoint 8">
       <r>  -13.1752    1.0000 </r>
       <r>   -0.5131    1.0000 </r>
       <r>    2.1807    1.0000 </r>
       <r>    2.3329    1.0000 </r>
       <r>   11.0947    0.0000 </r>
       <r>   14.7568    0.0000 </r>
       <r>   18.1390    0.0000 </r>
       <r>   19.6511    0.0000 </r>
       <r>   22.0703    0.0000 </r>
       <r>   25.2290    0.0000 </r>
       <r>   26.0771    0.0000 </r>
       <r>   31.6612    0.0000 </r>
       <r>   32.7169    0.0000 </r>
       <r>   32.7452    0.0000 </r>
       <r>   35.6401    0.0000 </r>
       <r>   37.9337    0.0000 </r>
       <r>   40.8248    0.0000 </r>
       <r>   44.4511    0.0000 </r>
      </set>
      <set comment="kpoint 9">
       <r>  -12.8794    1.0000 </r>
       <r>   -1.2441    1.0000 </r>
       <r>    1.8941    1.0000 </r>
       <r>    2.2688    1.0000 </r>
       <r>   11.4178    0.0000 </r>
       <r>   15.1413    0.0000 </r>
       <r>   17.6278    0.0000 </r>
       <r>   19.4435    0.0000 </r>
       <r>   23.4332    0.0000 </r>
       <r>   25.6841    0.0000 </r>
       <r>   25.7750    0.0000 </r>
       <r>   32.0591    0.0000 </r>
       <r>   32.6565    0.0000 </r>
       <r>   33.0049    0.0000 </r>
       <r>   35.5820    0.0000 </r>
       <r>   37.2926    0.0000 </r>
       <r>   43.9765    0.0000 </r>
       <r>   47.1686    0.0000 </r>
      </set>
      <set comment="kpoint 10">
       <r>  -12.9452    1.0000 </r>
       <r>   -1.0784    1.0000 </r>
       <r>    1.8304    1.0000 </r>
       <r>    2.3783    1.0000 </r>
       <r>   11.3994    0.0000 </r>
       <r>   15.0822    0.0000 </r>
       <r>   17.7217    0.0000 </r>
       <r>   19.5133    0.0000 </r>
       <r>   24.0594    0.0000 </r>
       <r>   24.2690    0.0000 </r>
       <r>   25.7558    0.0000 </r>
       <r>   32.3055    0.0000 </r>
       <r>   32.5785    0.0000 </r>
       <r>   33.9533    0.0000 </r>
       <r>   34.3937    0.0000 </r>
       <r>   38.4148    0.0000 </r>
       <r>   42.0418    0.0000 </r>
       <r>   45.1241    0.0000 </r>
      </set>
      <set comment="kpoint 11">
       <r>  -13.3198    1.0000 </r>
       <r>   -0.1116    1.0000 </r>
       <r>    2.0450    1.0000 </r>
       <r>    2.6082    1.0000 </r>
       <r>   10.8293    0.0000 </r>
       <r>   14.9322    0.0000 </r>
       <r>   18.3385    0.0000 </r>
       <r>   20.0064    0.0000 </r>
       <r>   21.8280    0.0000 </r>
       <r>   24.0580    0.0000 </r>
       <r>   26.1700    0.0000 </r>
       <r>   30.8319    0.0000 </r>
       <r>   32.1078    0.0000 </r>
       <r>   32.9799    0.0000 </r>
       <r>   35.3531    0.0000 </r>
       <r>   38.6499    0.0000 </r>
       <r>   41.2698    0.0000 </r>
       <r>   43.3978    0.0000 </r>
      </set>
      <set comment="kpoint 12">
       <r>  -13.7404    1.0000 </r>
       <r>    1.1597    1.0000 </r>
       <r>    2.4959    1.0000 </r>
       <r>    2.8317    1.0000 </r>
       <r>    9.4893    0.0000 </r>
       <r>   15.7849    0.0000 </r>
       <r>   18.9654    0.0000 </r>
       <r>   19.6945    0.0000 </r>
       <r>   21.5978    0.0000 </r>
       <r>   23.5774    0.0000 </r>
       <r>   26.1535    0.0000 </r>
       <r>   28.3484    0.0000 </r>
       <r>   29.5842    0.0000 </r>
       <r>   30.5149    0.0000 </r>
       <r>   36.9570    0.0000 </r>
       <r>   39.7947    0.0000 </r>
       <r>   41.3045    0.0000 </r>
       <r>   43.9574    0.0000 </r>
      </set>
      <set comment="kpoint 13">
       <r>  -13.4170    1.0000 </r>
       <r>    0.4204    1.0000 </r>
       <r>    2.2881    1.0000 </r>
       <r>    2.2881    1.0000 </r>
       <r>   10.8249    0.0000 </r>
       <r>   14.1056    0.0000 </r>
       <r>   18.2173    0.0000 </r>
       <r>   20.2067    0.0000 </r>
       <r>   20.2067    0.0000 </r>
       <r>   26.1088    0.0000 </r>
       <r>   29.8440    0.0000 </r>
       <r>   29.8440    0.0000 </r>
       <r>   30.2604    0.0000 </r>
       <r>   31.2231    0.0000 </r>
       <r>   38.0184    0.0000 </r>
       <r>   38.3501    0.0000 </r>
       <r>   38.3501    0.0000 </r>
       <r>   44.4417    0.0000 </r>
      </set>
      <set comment="kpoint 14">
       <r>  -13.0820    1.0000 </r>
       <r>   -0.2976    1.0000 </r>
       <r>    1.8446    1.0000 </r>
       <r>    2.0776    1.0000 </r>
       <r>   11.9316    0.0000 </r>
       <r>   13.5785    0.0000 </r>
       <r>   16.8823    0.0000 </r>
       <r>   20.5120    0.0000 </r>
       <r>   20.9692    0.0000 </r>
       <r>   26.8153    0.0000 </r>
       <r>   29.9147    0.0000 </r>
       <r>   30.1838    0.0000 </r>
       <r>   32.0971    0.0000 </r>
       <r>   34.5901    0.0000 </r>
       <r>   36.2490    0.0000 </r>
       <r>   37.6606    0.0000 </r>
       <r>   40.7723    0.0000 </r>
       <r>   43.2346    0.0000 </r>
      </set>
      <set comment="kpoint 15">
       <r>  -12.7960    1.0000 </r>
       <r>   -0.7218    1.0000 </r>
       <r>    1.1423    1.0000 </r>
       <r>    2.0174    1.0000 </r>
       <r>   12.5306    0.0000 </r>
       <r>   14.3659    0.0000 </r>
       <r>   16.0472    0.0000 </r>
       <r>   20.3447    0.0000 </r>
       <r>   21.4797    0.0000 </r>
       <r>   27.1722    0.0000 </r>
       <r>   29.3338    0.0000 </r>
       <r>   30.5811    0.0000 </r>
       <r>   32.0261    0.0000 </r>
       <r>   34.6340    0.0000 </r>
       <r>   36.6047    0.0000 </r>
       <r>   40.7800    0.0000 </r>
       <r>   43.2643    0.0000 </r>
       <r>   44.5439    0.0000 </r>
      </set>
      <set comment="kpoint 16">
       <r>  -12.7509    1.0000 </r>
       <r>   -0.6576    1.0000 </r>
       <r>    0.6903    1.0000 </r>
       <r>    2.1367    1.0000 </r>
       <r>   12.7706    0.0000 </r>
       <r>   14.9443    0.0000 </r>
       <r>   15.8457    0.0000 </r>
       <r>   20.1603    0.0000 </r>
       <r>   22.2438    0.0000 </r>
       <r>   25.2705    0.0000 </r>
       <r>   28.8427    0.0000 </r>
       <r>   31.3883    0.0000 </r>
       <r>   31.8127    0.0000 </r>
       <r>   35.1485    0.0000 </r>
       <r>   37.0309    0.0000 </r>
       <r>   39.9085    0.0000 </r>
       <r>   42.8319    0.0000 </r>
       <r>   45.9136    0.0000 </r>
      </set>
      <set comment="kpoint 17">
       <r>  -12.9785    1.0000 </r>
       <r>   -0.4172    1.0000 </r>
       <r>    1.0627    1.0000 </r>
       <r>    2.3781    1.0000 </r>
       <r>   12.2581    0.0000 </r>
       <r>   14.6404    0.0000 </r>
       <r>   16.7392    0.0000 </r>
       <r>   20.2219    0.0000 </r>
       <r>   22.7741    0.0000 </r>
       <r>   23.6747    0.0000 </r>
       <r>   28.2992    0.0000 </r>
       <r>   31.2023    0.0000 </r>
       <r>   32.3008    0.0000 </r>
       <r>   33.7690    0.0000 </r>
       <r>   36.5521    0.0000 </r>
       <r>   40.8443    0.0000 </r>
       <r>   41.1319    0.0000 </r>
       <r>   43.2020    0.0000 </r>
      </set>
      <set comment="kpoint 18">
       <r>  -12.8863    1.0000 </r>
       <r>   -0.6317    1.0000 </r>
       <r>    1.8557    1.0000 </r>
       <r>    1.8557    1.0000 </r>
       <r>   12.4243    0.0000 </r>
       <r>   12.6007    0.0000 </r>
       <r>   16.1427    0.0000 </r>
       <r>   21.1958    0.0000 </r>
       <r>   21.1959    0.0000 </r>
       <r>   28.1417    0.0000 </r>
       <r>   28.8615    0.0000 </r>
       <r>   32.7258    0.0000 </r>
       <r>   32.7258    0.0000 </r>
       <r>   37.5048    0.0000 </r>
       <r>   37.5048    0.0000 </r>
       <r>   37.9007    0.0000 </r>
       <r>   39.3095    0.0000 </r>
       <r>   39.8269    0.0000 </r>
      </set>
      <set comment="kpoint 19">
       <r>  -12.7031    1.0000 </r>
       <r>   -0.7798    1.0000 </r>
       <r>    1.3264    1.0000 </r>
       <r>    1.7831    1.0000 </r>
       <r>   12.5247    0.0000 </r>
       <r>   13.2011    0.0000 </r>
       <r>   15.7278    0.0000 </r>
       <r>   21.2213    0.0000 </r>
       <r>   21.2328    0.0000 </r>
       <r>   28.6959    0.0000 </r>
       <r>   29.1347    0.0000 </r>
       <r>   31.7153    0.0000 </r>
       <r>   32.4270    0.0000 </r>
       <r>   37.5808    0.0000 </r>
       <r>   37.9576    0.0000 </r>
       <r>   40.8891    0.0000 </r>
       <r>   42.1202    0.0000 </r>
       <r>   42.9684    0.0000 </r>
      </set>
      <set comment="kpoint 20">
       <r>  -12.6474    1.0000 </r>
       <r>   -0.4004    1.0000 </r>
       <r>    0.3630    1.0000 </r>
       <r>    1.8944    1.0000 </r>
       <r>   12.9717    0.0000 </r>
       <r>   14.4977    0.0000 </r>
       <r>   15.3122    0.0000 </r>
       <r>   20.7880    0.0000 </r>
       <r>   20.9533    0.0000 </r>
       <r>   27.8422    0.0000 </r>
       <r>   29.8031    0.0000 </r>
       <r>   30.7864    0.0000 </r>
       <r>   31.1222    0.0000 </r>
       <r>   37.9928    0.0000 </r>
       <r>   38.8334    0.0000 </r>
       <r>   40.1239    0.0000 </r>
       <r>   43.5620    0.0000 </r>
       <r>   45.0155    0.0000 </r>
      </set>
      <set comment="kpoint 21">
       <r>  -12.6620    1.0000 </r>
       <r>   -0.9790    1.0000 </r>
       <r>    1.6905    1.0000 </r>
       <r>    1.6905    1.0000 </r>
       <r>   12.0943    0.0000 </r>
       <r>   12.7083    0.0000 </r>
       <r>   15.8443    0.0000 </r>
       <r>   21.6045    0.0000 </r>
       <r>   21.6045    0.0000 </r>
       <r>   27.8386    0.0000 </r>
       <r>   29.5253    0.0000 </r>
       <r>   33.3800    0.0000 </r>
       <r>   33.3800    0.0000 </r>
       <r>   36.8909    0.0000 </r>
       <r>   39.6713    0.0000 </r>
       <r>   39.6713    0.0000 </r>
       <r>   41.1899    0.0000 </r>
       <r>   43.5595    0.0000 </r>
      </set>
      <set comment="kpoint 22">
       <r>  -13.2830    1.0000 </r>
       <r>    0.0465    1.0000 </r>
       <r>    1.8863    1.0000 </r>
       <r>    2.4118    1.0000 </r>
       <r>   11.2528    0.0000 </r>
       <r>   14.3890    0.0000 </r>
       <r>   17.8093    0.0000 </r>
       <r>   20.2629    0.0000 </r>
       <r>   20.8865    0.0000 </r>
       <r>   25.1544    0.0000 </r>
       <r>   28.4110    0.0000 </r>
       <r>   30.0960    0.0000 </r>
       <r>   31.3654    0.0000 </r>
       <r>   33.8354    0.0000 </r>
       <r>   35.2218    0.0000 </r>
       <r>   38.8479    0.0000 </r>
       <r>   40.5688    0.0000 </r>
       <r>   44.1800    0.0000 </r>
      </set>
      <set comment="kpoint 23">
       <r>  -12.9252    1.0000 </r>
       <r>   -0.6189    1.0000 </r>
       <r>    1.3268    1.0000 </r>
       <r>    2.1671    1.0000 </r>
       <r>   12.2907    0.0000 </r>
       <r>   14.4864    0.0000 </r>
       <r>   16.6542    0.0000 </r>
       <r>   19.8490    0.0000 </r>
       <r>   22.4198    0.0000 </r>
       <r>   25.0928    0.0000 </r>
       <r>   28.6230    0.0000 </r>
       <r>   31.4164    0.0000 </r>
       <r>   31.9999    0.0000 </r>
       <r>   34.6637    0.0000 </r>
       <r>   35.3058    0.0000 </r>
       <r>   40.8049    0.0000 </r>
       <r>   42.0456    0.0000 </r>
       <r>   42.4423    0.0000 </r>
      </set>
      <set comment="kpoint 24">
       <r>  -12.7667    1.0000 </r>
       <r>   -0.9001    1.0000 </r>
       <r>    1.1247    1.0000 </r>
       <r>    2.0507    1.0000 </r>
       <r>   12.5030    0.0000 </r>
       <r>   14.9650    0.0000 </r>
       <r>   16.2365    0.0000 </r>
       <r>   19.6024    0.0000 </r>
       <r>   23.2413    0.0000 </r>
       <r>   24.7537    0.0000 </r>
       <r>   28.7718    0.0000 </r>
       <r>   31.3402    0.0000 </r>
       <r>   32.1371    0.0000 </r>
       <r>   34.0778    0.0000 </r>
       <r>   37.6010    0.0000 </r>
       <r>   38.1684    0.0000 </r>
       <r>   45.1690    0.0000 </r>
       <r>   45.7477    0.0000 </r>
      </set>
      <set comment="kpoint 25">
       <r>  -12.8250    1.0000 </r>
       <r>   -0.5621    1.0000 </r>
       <r>    1.3573    1.0000 </r>
       <r>    1.7952    1.0000 </r>
       <r>   13.0191    0.0000 </r>
       <r>   13.3168    0.0000 </r>
       <r>   15.9286    0.0000 </r>
       <r>   20.1518    0.0000 </r>
       <r>   21.8828    0.0000 </r>
       <r>   27.0939    0.0000 </r>
       <r>   29.9027    0.0000 </r>
       <r>   31.3096    0.0000 </r>
       <r>   32.1731    0.0000 </r>
       <r>   36.1281    0.0000 </r>
       <r>   36.2124    0.0000 </r>
       <r>   40.2970    0.0000 </r>
       <r>   41.1268    0.0000 </r>
       <r>   44.5768    0.0000 </r>
      </set>
      <set comment="kpoint 26">
       <r>  -12.6664    1.0000 </r>
       <r>   -0.4154    1.0000 </r>
       <r>    0.5844    1.0000 </r>
       <r>    1.6662    1.0000 </r>
       <r>   13.4487    0.0000 </r>
       <r>   14.4844    0.0000 </r>
       <r>   15.2759    0.0000 </r>
       <r>   19.2850    0.0000 </r>
       <r>   22.7312    0.0000 </r>
       <r>   26.1840    0.0000 </r>
       <r>   29.7451    0.0000 </r>
       <r>   31.1711    0.0000 </r>
       <r>   32.4344    0.0000 </r>
       <r>   36.1136    0.0000 </r>
       <r>   38.6789    0.0000 </r>
       <r>   40.8980    0.0000 </r>
       <r>   42.6027    0.0000 </r>
       <r>   43.9906    0.0000 </r>
      </set>
      <set comment="kpoint 27">
       <r>  -12.7104    1.0000 </r>
       <r>   -0.2981    1.0000 </r>
       <r>    0.3799    1.0000 </r>
       <r>    1.8566    1.0000 </r>
       <r>   13.5544    0.0000 </r>
       <r>   14.5642    0.0000 </r>
       <r>   15.4354    0.0000 </r>
       <r>   19.3443    0.0000 </r>
       <r>   23.6133    0.0000 </r>
       <r>   24.2424    0.0000 </r>
       <r>   30.4231    0.0000 </r>
       <r>   31.1196    0.0000 </r>
       <r>   31.6396    0.0000 </r>
       <r>   36.5331    0.0000 </r>
       <r>   36.7752    0.0000 </r>
       <r>   41.4687    0.0000 </r>
       <r>   42.0976    0.0000 </r>
       <r>   45.0394    0.0000 </r>
      </set>
      <set comment="kpoint 28">
       <r>  -12.6373    1.0000 </r>
       <r>   -0.6848    1.0000 </r>
       <r>    1.1566    1.0000 </r>
       <r>    1.4795    1.0000 </r>
       <r>   12.9332    0.0000 </r>
       <r>   13.5810    0.0000 </r>
       <r>   15.5241    0.0000 </r>
       <r>   19.9843    0.0000 </r>
       <r>   22.2722    0.0000 </r>
       <r>   28.5827    0.0000 </r>
       <r>   28.9623    0.0000 </r>
       <r>   30.3939    0.0000 </r>
       <r>   33.7291    0.0000 </r>
       <r>   38.2964    0.0000 </r>
       <r>   38.8148    0.0000 </r>
       <r>   41.0529    0.0000 </r>
       <r>   41.8037    0.0000 </r>
       <r>   42.6828    0.0000 </r>
      </set>
      <set comment="kpoint 29">
       <r>  -12.6129    1.0000 </r>
       <r>    0.1267    1.0000 </r>
       <r>    0.1267    1.0000 </r>
       <r>    1.2798    1.0000 </r>
       <r>   14.4859    0.0000 </r>
       <r>   14.4859    0.0000 </r>
       <r>   14.8738    0.0000 </r>
       <r>   18.1911    0.0000 </r>
       <r>   24.6197    0.0000 </r>
       <r>   24.6198    0.0000 </r>
       <r>   28.9184    0.0000 </r>
       <r>   31.4872    0.0000 </r>
       <r>   34.2417    0.0000 </r>
       <r>   37.0766    0.0000 </r>
       <r>   39.9985    0.0000 </r>
       <r>   39.9985    0.0000 </r>
       <r>   41.9492    0.0000 </r>
       <r>   43.4218    0.0000 </r>
      </set>
     </set>
    </set>
   </array>
  </eigenvalues>
  <separator name="orbital magnetization" >
   <v name="MAGDIPOLOUT">      0.00000000      0.00000000      0.00000000</v>
  </separator>
  <dos>
   <i name="efermi">      3.49400265 </i>
   <total>
    <array>
     <dimension dim="1">gridpoints</dimension>
     <dimension dim="2">spin</dimension>
     <field>energy</field>
     <field>total</field>
     <field>integrated</field>
     <set>
      <set comment="spin 1">
       <r>   -17.1996     0.0000     0.0000 </r>
       <r>   -16.9748     0.0000     0.0000 </r>
       <r>   -16.7500     0.0000     0.0000 </r>
       <r>   -16.5253     0.0000     0.0000 </r>
       <r>   -16.3005     0.0000     0.0000 </r>
       <r>   -16.0757     0.0000     0.0000 </r>
       <r>   -15.8509     0.0000     0.0000 </r>
       <r>   -15.6262     0.0000     0.0000 </r>
       <r>   -15.4014     0.0000     0.0000 </r>
       <r>   -15.1766     0.0000     0.0000 </r>
       <r>   -14.9518     0.0000     0.0000 </r>
       <r>   -14.7270     0.0000     0.0000 </r>
       <r>   -14.5023     0.0000     0.0000 </r>
       <r>   -14.2775     0.0004     0.0001 </r>
       <r>   -14.0527     0.0393     0.0089 </r>
       <r>   -13.8279     0.2336     0.0614 </r>
       <r>   -13.6032     0.4655     0.1661 </r>
       <r>   -13.3784     0.4826     0.2745 </r>
       <r>   -13.1536     1.0936     0.5203 </r>
       <r>   -12.9288     1.6275     0.8862 </r>
       <r>   -12.7040     3.2491     1.6165 </r>
       <r>   -12.4793     1.6945     1.9974 </r>
       <r>   -12.2545     0.0118     2.0000 </r>
       <r>   -12.0297     0.0000     2.0000 </r>
       <r>   -11.8049     0.0000     2.0000 </r>
       <r>   -11.5802     0.0000     2.0000 </r>
       <r>   -11.3554     0.0000     2.0000 </r>
       <r>   -11.1306     0.0000     2.0000 </r>
       <r>   -10.9058     0.0000     2.0000 </r>
       <r>   -10.6810     0.0000     2.0000 </r>
       <r>   -10.4563     0.0000     2.0000 </r>
       <r>   -10.2315     0.0000     2.0000 </r>
       <r>   -10.0067     0.0000     2.0000 </r>
       <r>    -9.7819     0.0000     2.0000 </r>
       <r>    -9.5572     0.0000     2.0000 </r>
       <r>    -9.3324     0.0000     2.0000 </r>
       <r>    -9.1076     0.0000     2.0000 </r>
       <r>    -8.8828     0.0000     2.0000 </r>
       <r>    -8.6580     0.0000     2.0000 </r>
       <r>    -8.4333     0.0000     2.0000 </r>
       <r>    -8.2085     0.0000     2.0000 </r>
       <r>    -7.9837     0.0000     2.0000 </r>
       <r>    -7.7589     0.0000     2.0000 </r>
       <r>    -7.5342     0.0000     2.0000 </r>
       <r>    -7.3094     0.0000     2.0000 </r>
       <r>    -7.0846     0.0000     2.0000 </r>
       <r>    -6.8598     0.0000     2.0000 </r>
       <r>    -6.6350     0.0000     2.0000 </r>
       <r>    -6.4103     0.0000     2.0000 </r>
       <r>    -6.1855     0.0000     2.0000 </r>
       <r>    -5.9607     0.0000     2.0000 </r>
       <r>    -5.7359     0.0000     2.0000 </r>
       <r>    -5.5112     0.0000     2.0000 </r>
       <r>    -5.2864     0.0000     2.0000 </r>
       <r>    -5.0616     0.0000     2.0000 </r>
       <r>    -4.8368     0.0000     2.0000 </r>
       <r>    -4.6120     0.0000     2.0000 </r>
       <r>    -4.3873     0.0000     2.0000 </r>
       <r>    -4.1625     0.0000     2.0000 </r>
       <r>    -3.9377     0.0000     2.0000 </r>
       <r>    -3.7129     0.0000     2.0000 </r>
       <r>    -3.4882     0.0000     2.0000 </r>
       <r>    -3.2634     0.0000     2.0000 </r>
       <r>    -3.0386     0.0000     2.0000 </r>
       <r>    -2.8138     0.0000     2.0000 </r>
       <r>    -2.5890     0.0000     2.0000 </r>
       <r>    -2.3643     0.0000     2.0000 </r>
       <r>    -2.1395     0.0000     2.0000 </r>
       <r>    -1.9147     0.0000     2.0000 </r>
       <r>    -1.6899     0.0003     2.0001 </r>
       <r>    -1.4652     0.0496     2.0112 </r>
       <r>    -1.2404     0.2415     2.0655 </r>
       <r>    -1.0156     0.6099     2.2026 </r>
       <r>    -0.7908     0.8696     2.3981 </r>
       <r>    -0.5660     2.1880     2.8899 </r>
       <r>    -0.3413     2.0639     3.3538 </r>
       <r>    -0.1165     1.0040     3.5795 </r>
       <r>     0.1083     0.6397     3.7233 </r>
       <r>     0.3331     0.4209     3.8179 </r>
       <r>     0.5578     0.9549     4.0325 </r>
       <r>     0.7826     1.1308     4.2867 </r>
       <r>     1.0074     0.3204     4.3587 </r>
       <r>     1.2322     1.3989     4.6732 </r>
       <r>     1.4570     1.7543     5.0675 </r>
       <r>     1.6817     0.8118     5.2500 </r>
       <r>     1.9065     2.9713     5.9179 </r>
       <r>     2.1313     2.9358     6.5778 </r>
       <r>     2.3561     2.5456     7.1499 </r>
       <r>     2.5808     2.2409     7.6536 </r>
       <r>     2.8056     1.0130     7.8813 </r>
       <r>     3.0304     0.4978     7.9932 </r>
       <r>     3.2552     0.0301     8.0000 </r>
       <r>     3.4800     0.0000     8.0000 </r>
       <r>     3.7047     0.0000     8.0000 </r>
       <r>     3.9295     0.0000     8.0000 </r>
       <r>     4.1543     0.0000     8.0000 </r>
       <r>     4.3791     0.0000     8.0000 </r>
       <r>     4.6038     0.0000     8.0000 </r>
       <r>     4.8286     0.0000     8.0000 </r>
       <r>     5.0534     0.0000     8.0000 </r>
       <r>     5.2782     0.0000     8.0000 </r>
       <r>     5.5030     0.0000     8.0000 </r>
       <r>     5.7277     0.0000     8.0000 </r>
       <r>     5.9525     0.0000     8.0000 </r>
       <r>     6.1773     0.0000     8.0000 </r>
       <r>     6.4021     0.0000     8.0000 </r>
       <r>     6.6268     0.0000     8.0000 </r>
       <r>     6.8516     0.0000     8.0000 </r>
       <r>     7.0764     0.0000     8.0000 </r>
       <r>     7.3012     0.0001     8.0000 </r>
       <r>     7.5260     0.0115     8.0026 </r>
       <r>     7.7507     0.0058     8.0039 </r>
       <r>     7.9755     0.0000     8.0039 </r>
       <r>     8.2003     0.0002     8.0039 </r>
       <r>     8.4251     0.0789     8.0217 </r>
       <r>     8.6498     0.0813     8.0400 </r>
       <r>     8.8746     0.0819     8.0584 </r>
       <r>     9.0994     0.0010     8.0586 </r>
       <r>     9.3242     0.0020     8.0591 </r>
       <r>     9.5490     0.1649     8.0961 </r>
       <r>     9.7737     0.0541     8.1083 </r>
       <r>     9.9985     0.3233     8.1809 </r>
       <r>    10.2233     0.2200     8.2304 </r>
       <r>    10.4481     0.0011     8.2306 </r>
       <r>    10.6728     0.1196     8.2575 </r>
       <r>    10.8976     0.5240     8.3753 </r>
       <r>    11.1224     0.3714     8.4588 </r>
       <r>    11.3472     0.6726     8.6100 </r>
       <r>    11.5720     0.7008     8.7675 </r>
       <r>    11.7967     0.0210     8.7722 </r>
       <r>    12.0215     0.3709     8.8556 </r>
       <r>    12.2463     0.3979     8.9450 </r>
       <r>    12.4711     1.1206     9.1969 </r>
       <r>    12.6958     1.1356     9.4521 </r>
       <r>    12.9206     0.5697     9.5802 </r>
       <r>    13.1454     0.7444     9.7475 </r>
       <r>    13.3702     0.7752     9.9218 </r>
       <r>    13.5950     1.4677    10.2517 </r>
       <r>    13.8197     0.3921    10.3398 </r>
       <r>    14.0445     0.0204    10.3444 </r>
       <r>    14.2693     0.1399    10.3758 </r>
       <r>    14.4941     1.9357    10.8109 </r>
       <r>    14.7188     1.6444    11.1806 </r>
       <r>    14.9436     1.0253    11.4110 </r>
       <r>    15.1684     1.6371    11.7790 </r>
       <r>    15.3932     1.6095    12.1408 </r>
       <r>    15.6180     0.6826    12.2942 </r>
       <r>    15.8427     0.8299    12.4808 </r>
       <r>    16.0675     0.9399    12.6920 </r>
       <r>    16.2923     0.5834    12.8232 </r>
       <r>    16.5171     0.1664    12.8606 </r>
       <r>    16.7418     0.8910    13.0609 </r>
       <r>    16.9666     0.5984    13.1954 </r>
       <r>    17.1914     0.1384    13.2265 </r>
       <r>    17.4162     0.0009    13.2267 </r>
       <r>    17.6409     0.2953    13.2931 </r>
       <r>    17.8657     0.8579    13.4859 </r>
       <r>    18.0905     0.2122    13.5336 </r>
       <r>    18.3153     0.6504    13.6798 </r>
       <r>    18.5401     0.2786    13.7424 </r>
       <r>    18.7648     0.0475    13.7531 </r>
       <r>    18.9896     0.2781    13.8156 </r>
       <r>    19.2144     1.1350    14.0707 </r>
       <r>    19.4392     1.7055    14.4541 </r>
       <r>    19.6639     1.7337    14.8438 </r>
       <r>    19.8887     1.1360    15.0991 </r>
       <r>    20.1135     1.0622    15.3379 </r>
       <r>    20.3383     1.5492    15.6861 </r>
       <r>    20.5631     0.6207    15.8256 </r>
       <r>    20.7878     0.4459    15.9258 </r>
       <r>    21.0126     1.1523    16.1848 </r>
       <r>    21.2374     0.7843    16.3611 </r>
       <r>    21.4622     0.6132    16.4990 </r>
       <r>    21.6869     0.6206    16.6385 </r>
       <r>    21.9117     0.6747    16.7901 </r>
       <r>    22.1365     0.5633    16.9167 </r>
       <r>    22.3613     0.7944    17.0953 </r>
       <r>    22.5861     0.7299    17.2594 </r>
       <r>    22.8108     0.9222    17.4667 </r>
       <r>    23.0356     0.3901    17.5543 </r>
       <r>    23.2604     0.4062    17.6457 </r>
       <r>    23.4852     0.6651    17.7952 </r>
       <r>    23.7099     0.8466    17.9855 </r>
       <r>    23.9347     0.2637    18.0447 </r>
       <r>    24.1595     0.9460    18.2574 </r>
       <r>    24.3843     0.9779    18.4772 </r>
       <r>    24.6091     0.4514    18.5786 </r>
       <r>    24.8338     0.9423    18.7904 </r>
       <r>    25.0586     0.3696    18.8735 </r>
       <r>    25.2834     1.6149    19.2365 </r>
       <r>    25.5082     0.3062    19.3053 </r>
       <r>    25.7329     0.6520    19.4519 </r>
       <r>    25.9577     0.7201    19.6138 </r>
       <r>    26.1825     1.2434    19.8933 </r>
       <r>    26.4073     0.7177    20.0546 </r>
       <r>    26.6321     0.2215    20.1044 </r>
       <r>    26.8568     0.5427    20.2264 </r>
       <r>    27.0816     0.4542    20.3285 </r>
       <r>    27.3064     0.6289    20.4698 </r>
       <r>    27.5312     0.0966    20.4916 </r>
       <r>    27.7559     0.1536    20.5261 </r>
       <r>    27.9807     0.2263    20.5770 </r>
       <r>    28.2055     0.1150    20.6028 </r>
       <r>    28.4303     0.7402    20.7692 </r>
       <r>    28.6551     1.2453    21.0491 </r>
       <r>    28.8798     1.3850    21.3604 </r>
       <r>    29.1046     0.6792    21.5131 </r>
       <r>    29.3294     0.4864    21.6224 </r>
       <r>    29.5542     0.3301    21.6966 </r>
       <r>    29.7789     1.1868    21.9634 </r>
       <r>    30.0037     1.6191    22.3273 </r>
       <r>    30.2285     1.0124    22.5549 </r>
       <r>    30.4533     0.7432    22.7220 </r>
       <r>    30.6781     0.8644    22.9163 </r>
       <r>    30.9028     0.9372    23.1269 </r>
       <r>    31.1276     0.9735    23.3457 </r>
       <r>    31.3524     2.2147    23.8436 </r>
       <r>    31.5772     1.7439    24.2355 </r>
       <r>    31.8019     1.3836    24.5465 </r>
       <r>    32.0267     1.3336    24.8463 </r>
       <r>    32.2515     2.3558    25.3758 </r>
       <r>    32.4763     1.5176    25.7169 </r>
       <r>    32.7011     1.3684    26.0245 </r>
       <r>    32.9258     0.9970    26.2486 </r>
       <r>    33.1506     0.9111    26.4534 </r>
       <r>    33.3754     0.0763    26.4706 </r>
       <r>    33.6002     0.1866    26.5125 </r>
       <r>    33.8249     0.5491    26.6359 </r>
       <r>    34.0497     0.8066    26.8172 </r>
       <r>    34.2745     0.3979    26.9067 </r>
       <r>    34.4993     0.4660    27.0114 </r>
       <r>    34.7241     1.4163    27.3298 </r>
       <r>    34.9488     0.2197    27.3791 </r>
       <r>    35.1736     0.4515    27.4806 </r>
       <r>    35.3984     1.5828    27.8364 </r>
       <r>    35.6232     0.6584    27.9844 </r>
       <r>    35.8479     0.3643    28.0663 </r>
       <r>    36.0727     0.3386    28.1424 </r>
       <r>    36.2975     1.5898    28.4997 </r>
       <r>    36.5223     0.4880    28.6094 </r>
       <r>    36.7471     1.2038    28.8800 </r>
       <r>    36.9718     0.7716    29.0534 </r>
       <r>    37.1966     0.7973    29.2326 </r>
       <r>    37.4214     0.4081    29.3244 </r>
       <r>    37.6462     1.0116    29.5518 </r>
       <r>    37.8709     0.5994    29.6865 </r>
       <r>    38.0957     1.1009    29.9340 </r>
       <r>    38.3205     0.6321    30.0760 </r>
       <r>    38.5453     0.6409    30.2201 </r>
       <r>    38.7701     1.6154    30.5832 </r>
       <r>    38.9948     1.0745    30.8247 </r>
       <r>    39.2196     0.0330    30.8322 </r>
       <r>    39.4444     0.3705    30.9154 </r>
       <r>    39.6692     0.1931    30.9588 </r>
       <r>    39.8939     0.5117    31.0739 </r>
       <r>    40.1187     0.6894    31.2288 </r>
       <r>    40.3435     0.5092    31.3433 </r>
       <r>    40.5683     0.4131    31.4361 </r>
       <r>    40.7931     1.9558    31.8758 </r>
       <r>    41.0178     2.4929    32.4361 </r>
       <r>    41.2426     0.9940    32.6595 </r>
       <r>    41.4674     0.6914    32.8150 </r>
       <r>    41.6922     0.2266    32.8659 </r>
       <r>    41.9169     0.2672    32.9260 </r>
       <r>    42.1417     1.7437    33.3179 </r>
       <r>    42.3665     0.4942    33.4290 </r>
       <r>    42.5913     1.0848    33.6729 </r>
       <r>    42.8161     0.8443    33.8626 </r>
       <r>    43.0408     0.6501    34.0088 </r>
       <r>    43.2656     0.8271    34.1947 </r>
       <r>    43.4904     0.8728    34.3909 </r>
       <r>    43.7152     0.2737    34.4524 </r>
       <r>    43.9399     0.4843    34.5612 </r>
       <r>    44.1647     1.2483    34.8418 </r>
       <r>    44.3895     0.3629    34.9234 </r>
       <r>    44.6143     1.0484    35.1591 </r>
       <r>    44.8391     0.2032    35.2047 </r>
       <r>    45.0638     0.5920    35.3378 </r>
       <r>    45.2886     0.9508    35.5515 </r>
       <r>    45.5134     0.3917    35.6396 </r>
       <r>    45.7382     0.3231    35.7122 </r>
       <r>    45.9629     0.5532    35.8365 </r>
       <r>    46.1877     0.1016    35.8594 </r>
       <r>    46.4125     0.0004    35.8595 </r>
       <r>    46.6373     0.0509    35.8709 </r>
       <r>    46.8621     0.0189    35.8751 </r>
       <r>    47.0868     0.1514    35.9092 </r>
       <r>    47.3116     0.3950    35.9980 </r>
       <r>    47.5364     0.0090    36.0000 </r>
       <r>    47.7612     0.0000    36.0000 </r>
       <r>    47.9859     0.0000    36.0000 </r>
       <r>    48.2107     0.0000    36.0000 </r>
       <r>    48.4355     0.0000    36.0000 </r>
       <r>    48.6603     0.0000    36.0000 </r>
       <r>    48.8851     0.0000    36.0000 </r>
       <r>    49.1098     0.0000    36.0000 </r>
       <r>    49.3346     0.0000    36.0000 </r>
       <r>    49.5594     0.0000    36.0000 </r>
       <r>    49.7842     0.0000    36.0000 </r>
       <r>    50.0089     0.0000    36.0000 </r>
       <r>    50.2337     0.0000    36.0000 </r>
      </set>
     </set>
    </array>
   </total>
   <partial>
    <array>
     <dimension dim="1">gridpoints</dimension>
     <dimension dim="2">spin</dimension>
     <dimension dim="3">ion</dimension>
     <field>energy</field>
     <field>    s</field>
     <field>   py</field>
     <field>   pz</field>
     <field>   px</field>
     <field>  dxy</field>
     <field>  dyz</field>
     <field>  dz2</field>
     <field>  dxz</field>
     <field>x2-y2</field>
     <set>
      <set comment="ion 1">
       <set comment="spin 1">
        <r>   -17.1996     0.0000     0.0000     0.0000     0.0000     0.0000     0.0000     0.0000     0.0000     0.0000 </r>
        <r>   -16.9748     0.0000     0.0000     0.0000     0.0000     0.0000     0.0000     0.0000     0.0000     0.0000 </r>
        <r>   -16.7500     0.0000     0.0000     0.0000     0.0000     0.0000     0.0000     0.0000     0.0000     0.0000 </r>
        <r>   -16.5253     0.0000     0.0000     0.0000     0.0000     0.0000     0.0000     0.0000     0.0000     0.0000 </r>
        <r>   -16.3005     0.0000     0.0000     0.0000     0.0000     0.0000     0.0000     0.0000     0.0000     0.0000 </r>
        <r>   -16.0757     0.0000     0.0000     0.0000     0.0000     0.0000     0.0000     0.0000     0.0000     0.0000 </r>
        <r>   -15.8509     0.0000     0.0000     0.0000     0.0000     0.0000     0.0000     0.0000     0.0000     0.0000 </r>
        <r>   -15.6262     0.0000     0.0000     0.0000     0.0000     0.0000     0.0000     0.0000     0.0000     0.0000 </r>
        <r>   -15.4014     0.0000     0.0000     0.0000     0.0000     0.0000     0.0000     0.0000     0.0000     0.0000 </r>
        <r>   -15.1766     0.0000     0.0000     0.0000     0.0000     0.0000     0.0000     0.0000     0.0000     0.0000 </r>
        <r>   -14.9518     0.0000     0.0000     0.0000     0.0000     0.0000     0.0000     0.0000     0.0000     0.0000 </r>
        <r>   -14.7270     0.0000     0.0000     0.0000     0.0000     0.0000     0.0000     0.0000     0.0000     0.0000 </r>
        <r>   -14.5023     0.0000     0.0000     0.0000     0.0000     0.0000     0.0000     0.0000     0.0000     0.0000 </r>
        <r>   -14.2775     0.0000     0.0000     0.0000     0.0000     0.0000     0.0000     0.0000     0.0000     0.0000 </r>
        <r>   -14.0527     0.0015     0.0000     0.0000     0.0000     0.0000     0.0000     0.0000     0.0000     0.0000 </r>
        <r>   -13.8279     0.0083     0.0002     0.0003     0.0002     0.0000     0.0000     0.0000     0.0000     0.0000 </r>
        <r>   -13.6032     0.0126     0.0008     0.0013     0.0008     0.0000     0.0000     0.0001     0.0000     0.0000 </r>
        <r>   -13.3784     0.0107     0.0010     0.0020     0.0009     0.0000     0.0000     0.0003     0.0000     0.0000 </r>
        <r>   -13.1536     0.0158     0.0037     0.0051     0.0027     0.0000     0.0000     0.0011     0.0000     0.0000 </r>
        <r>   -12.9288     0.0112     0.0066     0.0077     0.0048     0.0000     0.0000     0.0031     0.0000     0.0002 </r>
        <r>   -12.7040     0.0085     0.0142     0.0098     0.0087     0.0000     0.0000     0.0112     0.0000     0.0008 </r>
        <r>   -12.4793     0.0024     0.0070     0.0015     0.0028     0.0000     0.0000     0.0090     0.0000     0.0006 </r>
        <r>   -12.2545     0.0000     0.0000     0.0000     0.0000     0.0000     0.0000     0.0001     0.0000     0.0000 </r>
        <r>   -12.0297     0.0000     0.0000     0.0000     0.0000     0.0000     0.0000     0.0000     0.0000     0.0000 </r>
        <r>   -11.8049     0.0000     0.0000     0.0000     0.0000     0.0000     0.0000     0.0000     0.0000     0.0000 </r>
        <r>   -11.5802     0.0000     0.0000     0.0000     0.0000     0.0000     0.0000     0.0000     0.0000     0.0000 </r>
        <r>   -11.3554     0.0000     0.0000     0.0000     0.0000     0.0000     0.0000     0.0000     0.0000     0.0000 </r>
        <r>   -11.1306     0.0000     0.0000     0.0000     0.0000     0.0000     0.0000     0.0000     0.0000     0.0000 </r>
        <r>   -10.9058     0.0000     0.0000     0.0000     0.0000     0.0000     0.0000     0.0000     0.0000     0.0000 </r>
        <r>   -10.6810     0.0000     0.0000     0.0000     0.0000     0.0000     0.0000     0.0000     0.0000     0.0000 </r>
        <r>   -10.4563     0.0000     0.0000     0.0000     0.0000     0.0000     0.0000     0.0000     0.0000     0.0000 </r>
        <r>   -10.2315     0.0000     0.0000     0.0000     0.0000     0.0000     0.0000     0.0000     0.0000     0.0000 </r>
        <r>   -10.0067     0.0000     0.0000     0.0000     0.0000     0.0000     0.0000     0.0000     0.0000     0.0000 </r>
        <r>    -9.7819     0.0000     0.0000     0.0000     0.0000     0.0000     0.0000     0.0000     0.0000     0.0000 </r>
        <r>    -9.5572     0.0000     0.0000     0.0000     0.0000     0.0000     0.0000     0.0000     0.0000     0.0000 </r>
        <r>    -9.3324     0.0000     0.0000     0.0000     0.0000     0.0000     0.0000     0.0000     0.0000     0.0000 </r>
        <r>    -9.1076     0.0000     0.0000     0.0000     0.0000     0.0000     0.0000     0.0000     0.0000     0.0000 </r>
        <r>    -8.8828     0.0000     0.0000     0.0000     0.0000     0.0000     0.0000     0.0000     0.0000     0.0000 </r>
        <r>    -8.6580     0.0000     0.0000     0.0000     0.0000     0.0000     0.0000     0.0000     0.0000     0.0000 </r>
        <r>    -8.4333     0.0000     0.0000     0.0000     0.0000     0.0000     0.0000     0.0000     0.0000     0.0000 </r>
        <r>    -8.2085     0.0000     0.0000     0.0000     0.0000     0.0000     0.0000     0.0000     0.0000     0.0000 </r>
        <r>    -7.9837     0.0000     0.0000     0.0000     0.0000     0.0000     0.0000     0.0000     0.0000     0.0000 </r>
        <r>    -7.7589     0.0000     0.0000     0.0000     0.0000     0.0000     0.0000     0.0000     0.0000     0.0000 </r>
        <r>    -7.5342     0.0000     0.0000     0.0000     0.0000     0.0000     0.0000     0.0000     0.0000     0.0000 </r>
        <r>    -7.3094     0.0000     0.0000     0.0000     0.0000     0.0000     0.0000     0.0000     0.0000     0.0000 </r>
        <r>    -7.0846     0.0000     0.0000     0.0000     0.0000     0.0000     0.0000     0.0000     0.0000     0.0000 </r>
        <r>    -6.8598     0.0000     0.0000     0.0000     0.0000     0.0000     0.0000     0.0000     0.0000     0.0000 </r>
        <r>    -6.6350     0.0000     0.0000     0.0000     0.0000     0.0000     0.0000     0.0000     0.0000     0.0000 </r>
        <r>    -6.4103     0.0000     0.0000     0.0000     0.0000     0.0000     0.0000     0.0000     0.0000     0.0000 </r>
        <r>    -6.1855     0.0000     0.0000     0.0000     0.0000     0.0000     0.0000     0.0000     0.0000     0.0000 </r>
        <r>    -5.9607     0.0000     0.0000     0.0000     0.0000     0.0000     0.0000     0.0000     0.0000     0.0000 </r>
        <r>    -5.7359     0.0000     0.0000     0.0000     0.0000     0.0000     0.0000     0.0000     0.0000     0.0000 </r>
        <r>    -5.5112     0.0000     0.0000     0.0000     0.0000     0.0000     0.0000     0.0000     0.0000     0.0000 </r>
        <r>    -5.2864     0.0000     0.0000     0.0000     0.0000     0.0000     0.0000     0.0000     0.0000     0.0000 </r>
        <r>    -5.0616     0.0000     0.0000     0.0000     0.0000     0.0000     0.0000     0.0000     0.0000     0.0000 </r>
        <r>    -4.8368     0.0000     0.0000     0.0000     0.0000     0.0000     0.0000     0.0000     0.0000     0.0000 </r>
        <r>    -4.6120     0.0000     0.0000     0.0000     0.0000     0.0000     0.0000     0.0000     0.0000     0.0000 </r>
        <r>    -4.3873     0.0000     0.0000     0.0000     0.0000     0.0000     0.0000     0.0000     0.0000     0.0000 </r>
        <r>    -4.1625     0.0000     0.0000     0.0000     0.0000     0.0000     0.0000     0.0000     0.0000     0.0000 </r>
        <r>    -3.9377     0.0000     0.0000     0.0000     0.0000     0.0000     0.0000     0.0000     0.0000     0.0000 </r>
        <r>    -3.7129     0.0000     0.0000     0.0000     0.0000     0.0000     0.0000     0.0000     0.0000     0.0000 </r>
        <r>    -3.4882     0.0000     0.0000     0.0000     0.0000     0.0000     0.0000     0.0000     0.0000     0.0000 </r>
        <r>    -3.2634     0.0000     0.0000     0.0000     0.0000     0.0000     0.0000     0.0000     0.0000     0.0000 </r>
        <r>    -3.0386     0.0000     0.0000     0.0000     0.0000     0.0000     0.0000     0.0000     0.0000     0.0000 </r>
        <r>    -2.8138     0.0000     0.0000     0.0000     0.0000     0.0000     0.0000     0.0000     0.0000     0.0000 </r>
        <r>    -2.5890     0.0000     0.0000     0.0000     0.0000     0.0000     0.0000     0.0000     0.0000     0.0000 </r>
        <r>    -2.3643     0.0000     0.0000     0.0000     0.0000     0.0000     0.0000     0.0000     0.0000     0.0000 </r>
        <r>    -2.1395     0.0000     0.0000     0.0000     0.0000     0.0000     0.0000     0.0000     0.0000     0.0000 </r>
        <r>    -1.9147     0.0000     0.0000     0.0000     0.0000     0.0000     0.0000     0.0000     0.0000     0.0000 </r>
        <r>    -1.6899     0.0000     0.0000     0.0000     0.0000     0.0000     0.0000     0.0000     0.0000     0.0000 </r>
        <r>    -1.4652     0.0051     0.0000     0.0000     0.0000     0.0002     0.0002     0.0000     0.0002     0.0000 </r>
        <r>    -1.2404     0.0223     0.0003     0.0010     0.0003     0.0008     0.0008     0.0000     0.0008     0.0000 </r>
        <r>    -1.0156     0.0539     0.0005     0.0040     0.0007     0.0021     0.0017     0.0002     0.0016     0.0000 </r>
        <r>    -0.7908     0.0501     0.0003     0.0233     0.0041     0.0019     0.0019     0.0005     0.0015     0.0000 </r>
        <r>    -0.5660     0.1092     0.0030     0.0673     0.0051     0.0028     0.0052     0.0042     0.0024     0.0008 </r>
        <r>    -0.3413     0.0927     0.0019     0.0648     0.0071     0.0029     0.0049     0.0047     0.0019     0.0005 </r>
        <r>    -0.1165     0.0529     0.0005     0.0171     0.0085     0.0026     0.0010     0.0044     0.0006     0.0001 </r>
        <r>     0.1083     0.0404     0.0005     0.0052     0.0028     0.0011     0.0015     0.0027     0.0002     0.0004 </r>
        <r>     0.3331     0.0114     0.0011     0.0112     0.0051     0.0007     0.0011     0.0009     0.0002     0.0001 </r>
        <r>     0.5578     0.0230     0.0023     0.0239     0.0125     0.0022     0.0018     0.0026     0.0008     0.0000 </r>
        <r>     0.7826     0.0234     0.0018     0.0216     0.0204     0.0031     0.0010     0.0052     0.0009     0.0000 </r>
        <r>     1.0074     0.0128     0.0005     0.0046     0.0012     0.0002     0.0005     0.0017     0.0005     0.0001 </r>
        <r>     1.2322     0.0157     0.0042     0.0226     0.0243     0.0035     0.0015     0.0077     0.0008     0.0014 </r>
        <r>     1.4570     0.0140     0.0091     0.0051     0.0540     0.0051     0.0004     0.0049     0.0018     0.0024 </r>
        <r>     1.6817     0.0137     0.0076     0.0017     0.0103     0.0003     0.0001     0.0017     0.0002     0.0064 </r>
        <r>     1.9065     0.0173     0.0277     0.0153     0.0372     0.0025     0.0013     0.0150     0.0021     0.0145 </r>
        <r>     2.1313     0.0131     0.0173     0.0186     0.0261     0.0017     0.0021     0.0145     0.0030     0.0211 </r>
        <r>     2.3561     0.0034     0.0135     0.0070     0.0125     0.0009     0.0019     0.0149     0.0020     0.0305 </r>
        <r>     2.5808     0.0003     0.0113     0.0057     0.0083     0.0007     0.0022     0.0107     0.0019     0.0238 </r>
        <r>     2.8056     0.0000     0.0045     0.0014     0.0045     0.0003     0.0006     0.0029     0.0006     0.0099 </r>
        <r>     3.0304     0.0000     0.0025     0.0014     0.0025     0.0001     0.0001     0.0006     0.0001     0.0025 </r>
        <r>     3.2552     0.0000     0.0002     0.0002     0.0002     0.0000     0.0000     0.0000     0.0000     0.0000 </r>
        <r>     3.4800     0.0000     0.0000     0.0000     0.0000     0.0000     0.0000     0.0000     0.0000     0.0000 </r>
        <r>     3.7047     0.0000     0.0000     0.0000     0.0000     0.0000     0.0000     0.0000     0.0000     0.0000 </r>
        <r>     3.9295     0.0000     0.0000     0.0000     0.0000     0.0000     0.0000     0.0000     0.0000     0.0000 </r>
        <r>     4.1543     0.0000     0.0000     0.0000     0.0000     0.0000     0.0000     0.0000     0.0000     0.0000 </r>
        <r>     4.3791     0.0000     0.0000     0.0000     0.0000     0.0000     0.0000     0.0000     0.0000     0.0000 </r>
        <r>     4.6038     0.0000     0.0000     0.0000     0.0000     0.0000     0.0000     0.0000     0.0000     0.0000 </r>
        <r>     4.8286     0.0000     0.0000     0.0000     0.0000     0.0000     0.0000     0.0000     0.0000     0.0000 </r>
        <r>     5.0534     0.0000     0.0000     0.0000     0.0000     0.0000     0.0000     0.0000     0.0000     0.0000 </r>
        <r>     5.2782     0.0000     0.0000     0.0000     0.0000     0.0000     0.0000     0.0000     0.0000     0.0000 </r>
        <r>     5.5030     0.0000     0.0000     0.0000     0.0000     0.0000     0.0000     0.0000     0.0000     0.0000 </r>
        <r>     5.7277     0.0000     0.0000     0.0000     0.0000     0.0000     0.0000     0.0000     0.0000     0.0000 </r>
        <r>     5.9525     0.0000     0.0000     0.0000     0.0000     0.0000     0.0000     0.0000     0.0000     0.0000 </r>
        <r>     6.1773     0.0000     0.0000     0.0000     0.0000     0.0000     0.0000     0.0000     0.0000     0.0000 </r>
        <r>     6.4021     0.0000     0.0000     0.0000     0.0000     0.0000     0.0000     0.0000     0.0000     0.0000 </r>
        <r>     6.6268     0.0000     0.0000     0.0000     0.0000     0.0000     0.0000     0.0000     0.0000     0.0000 </r>
        <r>     6.8516     0.0000     0.0000     0.0000     0.0000     0.0000     0.0000     0.0000     0.0000     0.0000 </r>
        <r>     7.0764     0.0000     0.0000     0.0000     0.0000     0.0000     0.0000     0.0000     0.0000     0.0000 </r>
        <r>     7.3012     0.0000     0.0000     0.0000     0.0000     0.0000     0.0000     0.0000     0.0000     0.0000 </r>
        <r>     7.5260     0.0028     0.0000     0.0000     0.0000     0.0000     0.0000     0.0000     0.0000     0.0000 </r>
        <r>     7.7507     0.0014     0.0000     0.0000     0.0000     0.0000     0.0000     0.0000     0.0000     0.0000 </r>
        <r>     7.9755     0.0000     0.0000     0.0000     0.0000     0.0000     0.0000     0.0000     0.0000     0.0000 </r>
        <r>     8.2003     0.0000     0.0000     0.0000     0.0000     0.0000     0.0000     0.0000     0.0000     0.0000 </r>
        <r>     8.4251     0.0154     0.0005     0.0005     0.0005     0.0000     0.0000     0.0000     0.0000     0.0000 </r>
        <r>     8.6498     0.0157     0.0004     0.0007     0.0004     0.0000     0.0000     0.0001     0.0000     0.0000 </r>
        <r>     8.8746     0.0156     0.0000     0.0012     0.0000     0.0000     0.0000     0.0002     0.0000     0.0000 </r>
        <r>     9.0994     0.0002     0.0000     0.0000     0.0000     0.0000     0.0000     0.0000     0.0000     0.0000 </r>
        <r>     9.3242     0.0003     0.0000     0.0000     0.0000     0.0000     0.0000     0.0000     0.0000     0.0000 </r>
        <r>     9.5490     0.0265     0.0030     0.0000     0.0030     0.0001     0.0000     0.0003     0.0000     0.0000 </r>
        <r>     9.7737     0.0083     0.0010     0.0003     0.0010     0.0000     0.0000     0.0001     0.0000     0.0000 </r>
        <r>     9.9985     0.0469     0.0042     0.0073     0.0042     0.0002     0.0002     0.0010     0.0002     0.0000 </r>
        <r>    10.2233     0.0341     0.0017     0.0049     0.0017     0.0001     0.0000     0.0011     0.0000     0.0000 </r>
        <r>    10.4481     0.0001     0.0000     0.0000     0.0000     0.0000     0.0000     0.0000     0.0000     0.0000 </r>
        <r>    10.6728     0.0049     0.0058     0.0057     0.0058     0.0001     0.0001     0.0000     0.0001     0.0000 </r>
        <r>    10.8976     0.0514     0.0180     0.0101     0.0180     0.0001     0.0004     0.0022     0.0004     0.0000 </r>
        <r>    11.1224     0.0332     0.0117     0.0112     0.0114     0.0013     0.0001     0.0018     0.0001     0.0000 </r>
        <r>    11.3472     0.0633     0.0231     0.0215     0.0138     0.0011     0.0002     0.0040     0.0002     0.0002 </r>
        <r>    11.5720     0.0130     0.0385     0.0287     0.0375     0.0019     0.0006     0.0025     0.0006     0.0000 </r>
        <r>    11.7967     0.0022     0.0006     0.0005     0.0006     0.0001     0.0000     0.0002     0.0000     0.0000 </r>
        <r>    12.0215     0.0643     0.0036     0.0047     0.0036     0.0032     0.0000     0.0043     0.0000     0.0000 </r>
        <r>    12.2463     0.0261     0.0164     0.0087     0.0091     0.0097     0.0003     0.0022     0.0001     0.0003 </r>
        <r>    12.4711     0.0772     0.0496     0.0292     0.0265     0.0217     0.0020     0.0060     0.0002     0.0009 </r>
        <r>    12.6958     0.0554     0.0376     0.0171     0.0313     0.0732     0.0022     0.0039     0.0001     0.0004 </r>
        <r>    12.9206     0.0237     0.0248     0.0052     0.0252     0.0261     0.0004     0.0020     0.0003     0.0000 </r>
        <r>    13.1454     0.1197     0.0163     0.0034     0.0086     0.0328     0.0004     0.0034     0.0000     0.0003 </r>
        <r>    13.3702     0.1144     0.0047     0.0008     0.0116     0.0600     0.0002     0.0013     0.0003     0.0001 </r>
        <r>    13.5950     0.0813     0.0403     0.0041     0.0489     0.1044     0.0012     0.0026     0.0003     0.0009 </r>
        <r>    13.8197     0.0415     0.0090     0.0001     0.0081     0.0297     0.0001     0.0006     0.0001     0.0002 </r>
        <r>    14.0445     0.0000     0.0000     0.0000     0.0000     0.0037     0.0000     0.0000     0.0000     0.0000 </r>
        <r>    14.2693     0.0047     0.0000     0.0002     0.0006     0.0199     0.0001     0.0000     0.0003     0.0000 </r>
        <r>    14.4941     0.1930     0.0039     0.0159     0.0300     0.1156     0.0134     0.0004     0.0087     0.0007 </r>
        <r>    14.7188     0.1394     0.0044     0.0434     0.0179     0.0534     0.0345     0.0002     0.0123     0.0005 </r>
        <r>    14.9436     0.0949     0.0035     0.0222     0.0050     0.0269     0.0204     0.0003     0.0179     0.0005 </r>
        <r>    15.1684     0.1515     0.0033     0.0304     0.0058     0.0463     0.0295     0.0002     0.0251     0.0002 </r>
        <r>    15.3932     0.2132     0.0041     0.0845     0.0101     0.0400     0.0224     0.0012     0.0097     0.0013 </r>
        <r>    15.6180     0.1270     0.0031     0.0308     0.0121     0.0039     0.0071     0.0009     0.0038     0.0007 </r>
        <r>    15.8427     0.0811     0.0044     0.0762     0.0044     0.0005     0.0143     0.0008     0.0138     0.0000 </r>
[...]
       </set>
       <set comment="band 6">
        <r>  0.0000  0.0000  0.0000  0.0190  0.1386  0.0000  0.0000  0.0008  0.0000 </r>
        <r>  0.0000  0.0000  0.0000  0.0990  0.0000  0.0000  0.0000  0.0000  0.0000 </r>
       </set>
       <set comment="band 7">
        <r>  0.1600  0.0013  0.1525  0.0000  0.0000  0.0043  0.0001  0.0000  0.0009 </r>
        <r>  0.0009  0.0298  0.1295  0.0000  0.0000  0.0000  0.0000  0.0000  0.0000 </r>
       </set>
       <set comment="band 8">
        <r>  0.0107  0.2808  0.0076  0.0000  0.0000  0.0160  0.0099  0.0000  0.0038 </r>
        <r>  0.0211  0.1076  0.0489  0.0000  0.0000  0.0000  0.0000  0.0000  0.0000 </r>
       </set>
       <set comment="band 9">
        <r>  0.0000  0.0000  0.0000  0.2327  0.0569  0.0000  0.0000  0.0275  0.0000 </r>
        <r>  0.0000  0.0000  0.0000  0.1602  0.0000  0.0000  0.0000  0.0000  0.0000 </r>
       </set>
       <set comment="band 10">
        <r>  0.0001  0.0169  0.0314  0.0000  0.0000  0.1794  0.0436  0.0000  0.2387 </r>
        <r>  0.0231  0.0227  0.0007  0.0000  0.0000  0.0000  0.0000  0.0000  0.0000 </r>
       </set>
       <set comment="band 11">
        <r>  0.0420  0.0141  0.0020  0.0000  0.0000  0.0358  0.4697  0.0000  0.0275 </r>
        <r>  0.0684  0.0592  0.0525  0.0000  0.0000  0.0000  0.0000  0.0000  0.0000 </r>
       </set>
       <set comment="band 12">
        <r>  0.0106  0.0013  0.0510  0.0000  0.0000  0.2468  0.0029  0.0000  0.4085 </r>
        <r>  0.0002  0.0089  0.0078  0.0000  0.0000  0.0000  0.0000  0.0000  0.0000 </r>
       </set>
       <set comment="band 13">
        <r>  0.0000  0.0000  0.0000  0.1273  0.0000  0.0000  0.0000  0.6710  0.0000 </r>
        <r>  0.0000  0.0000  0.0000  0.0005  0.0000  0.0000  0.0000  0.0000  0.0000 </r>
       </set>
       <set comment="band 14">
        <r>  0.0312  0.1002  0.0027  0.0000  0.0000  0.1330  0.0133  0.0000  0.0060 </r>
        <r>  0.0011  0.0041  0.0076  0.0000  0.0000  0.0000  0.0000  0.0000  0.0000 </r>
       </set>
       <set comment="band 15">
        <r>  0.0000  0.0000  0.0000  0.0264  0.0217  0.0000  0.0000  0.0833  0.0000 </r>
        <r>  0.0000  0.0000  0.0000  0.0342  0.0000  0.0000  0.0000  0.0000  0.0000 </r>
       </set>
       <set comment="band 16">
        <r>  0.0269  0.0080  0.0978  0.0000  0.0000  0.1071  0.0263  0.0000  0.0600 </r>
        <r>  0.0129  0.0103  0.0094  0.0000  0.0000  0.0000  0.0000  0.0000  0.0000 </r>
       </set>
       <set comment="band 17">
        <r>  0.0000  0.0000  0.0000  0.0254  0.1893  0.0000  0.0000  0.0481  0.0000 </r>
        <r>  0.0000  0.0000  0.0000  0.0005  0.0000  0.0000  0.0000  0.0000  0.0000 </r>
       </set>
       <set comment="band 18">
        <r>  0.0069  0.0234  0.0501  0.0000  0.0000  0.0380  0.0349  0.0000  0.0060 </r>
        <r>  0.0013  0.0405  0.0000  0.0000  0.0000  0.0000  0.0000  0.0000  0.0000 </r>
       </set>
      </set>
      <set comment="kpoint 26">
       <set comment="band 1">
        <r>  0.0008  0.0050  0.0011  0.0009  0.0000  0.0000  0.0052  0.0000  0.0005 </r>
        <r>  0.7826  0.0000  0.0001  0.0000  0.0000  0.0000  0.0000  0.0000  0.0000 </r>
       </set>
       <set comment="band 2">
        <r>  0.0241  0.0004  0.0503  0.0033  0.0006  0.0033  0.0003  0.0006  0.0003 </r>
        <r>  0.0014  0.0519  0.3927  0.0375  0.0000  0.0000  0.0000  0.0000  0.0000 </r>
       </set>
       <set comment="band 3">
        <r>  0.0124  0.0011  0.0111  0.0358  0.0044  0.0003  0.0031  0.0001  0.0000 </r>
        <r>  0.0009  0.0705  0.0833  0.3905  0.0000  0.0000  0.0000  0.0000  0.0000 </r>
       </set>
       <set comment="band 4">
        <r>  0.0190  0.0049  0.0026  0.0114  0.0001  0.0000  0.0022  0.0002  0.0110 </r>
        <r>  0.0000  0.4869  0.0201  0.1306  0.0000  0.0000  0.0000  0.0000  0.0000 </r>
       </set>
       <set comment="band 5">
        <r>  0.0310  0.0304  0.0058  0.0411  0.0656  0.0015  0.0018  0.0000  0.0007 </r>
        <r>  0.0259  0.0000  0.0393  0.1124  0.0000  0.0000  0.0000  0.0000  0.0000 </r>
       </set>
       <set comment="band 6">
        <r>  0.1976  0.0074  0.0113  0.0017  0.0237  0.0074  0.0002  0.0009  0.0013 </r>
        <r>  0.0113  0.0903  0.1275  0.0736  0.0000  0.0000  0.0000  0.0000  0.0000 </r>
       </set>
       <set comment="band 7">
        <r>  0.1733  0.0000  0.0859  0.0036  0.0019  0.0180  0.0011  0.0010  0.0014 </r>
        <r>  0.0001  0.0433  0.1546  0.0005  0.0000  0.0000  0.0000  0.0000  0.0000 </r>
       </set>
       <set comment="band 8">
        <r>  0.0113  0.2886  0.0045  0.0072  0.0111  0.0055  0.0141  0.0001  0.0002 </r>
        <r>  0.0534  0.0416  0.0284  0.0121  0.0000  0.0000  0.0000  0.0000  0.0000 </r>
       </set>
       <set comment="band 9">
        <r>  0.0035  0.0020  0.0006  0.2085  0.1126  0.0027  0.0152  0.0050  0.0022 </r>
        <r>  0.0145  0.0013  0.0014  0.1010  0.0000  0.0000  0.0000  0.0000  0.0000 </r>
       </set>
       <set comment="band 10">
        <r>  0.0013  0.0046  0.0924  0.0036  0.0025  0.2423  0.0132  0.0154  0.0322 </r>
        <r>  0.0095  0.0068  0.0242  0.0101  0.0000  0.0000  0.0000  0.0000  0.0000 </r>
       </set>
       <set comment="band 11">
        <r>  0.0080  0.0536  0.0031  0.0048  0.0059  0.0300  0.4311  0.0005  0.0911 </r>
        <r>  0.0561  0.0093  0.0222  0.0204  0.0000  0.0000  0.0000  0.0000  0.0000 </r>
       </set>
       <set comment="band 12">
        <r>  0.0018  0.0000  0.0239  0.0116  0.0007  0.0099  0.0866  0.0352  0.4967 </r>
        <r>  0.0027  0.1223  0.0003  0.0020  0.0000  0.0000  0.0000  0.0000  0.0000 </r>
       </set>
       <set comment="band 13">
        <r>  0.0174  0.0010  0.0433  0.0163  0.0008  0.0106  0.0071  0.6268  0.0367 </r>
        <r>  0.0000  0.0110  0.0027  0.0000  0.0000  0.0000  0.0000  0.0000  0.0000 </r>
       </set>
       <set comment="band 14">
        <r>  0.0021  0.0005  0.0199  0.0493  0.0007  0.0008  0.0070  0.0247  0.0001 </r>
        <r>  0.0015  0.0001  0.0139  0.0086  0.0000  0.0000  0.0000  0.0000  0.0000 </r>
       </set>
       <set comment="band 15">
        <r>  0.0538  0.0223  0.0108  0.0016  0.0025  0.2098  0.0142  0.1824  0.0648 </r>
        <r>  0.0005  0.0001  0.0071  0.0014  0.0000  0.0000  0.0000  0.0000  0.0000 </r>
       </set>
       <set comment="band 16">
        <r>  0.0321  0.0000  0.0121  0.0449  0.1434  0.1280  0.0408  0.0428  0.0014 </r>
        <r>  0.0085  0.0065  0.0023  0.0156  0.0000  0.0000  0.0000  0.0000  0.0000 </r>
       </set>
       <set comment="band 17">
        <r>  0.0019  0.0021  0.0822  0.0007  0.0000  0.1463  0.0079  0.0466  0.0204 </r>
        <r>  0.0052  0.0022  0.0123  0.0029  0.0000  0.0000  0.0000  0.0000  0.0000 </r>
       </set>
       <set comment="band 18">
        <r>  0.0008  0.0003  0.0010  0.0359  0.3000  0.0018  0.0145  0.1149  0.0212 </r>
        <r>  0.0083  0.0024  0.0037  0.0114  0.0000  0.0000  0.0000  0.0000  0.0000 </r>
       </set>
      </set>
      <set comment="kpoint 27">
       <set comment="band 1">
        <r>  0.0006  0.0059  0.0000  0.0033  0.0000  0.0000  0.0037  0.0000  0.0008 </r>
        <r>  0.7781  0.0000  0.0000  0.0001  0.0000  0.0000  0.0000  0.0000  0.0000 </r>
       </set>
       <set comment="band 2">
        <r>  0.0549  0.0002  0.0000  0.0257  0.0052  0.0000  0.0039  0.0000  0.0000 </r>
        <r>  0.0048  0.1441  0.0000  0.3418  0.0000  0.0000  0.0000  0.0000  0.0000 </r>
       </set>
       <set comment="band 3">
        <r>  0.0000  0.0000  0.0614  0.0000  0.0000  0.0046  0.0000  0.0016  0.0000 </r>
        <r>  0.0000  0.0000  0.5299  0.0000  0.0000  0.0000  0.0000  0.0000  0.0000 </r>
       </set>
       <set comment="band 4">
        <r>  0.0124  0.0001  0.0000  0.0141  0.0000  0.0000  0.0008  0.0000  0.0179 </r>
        <r>  0.0001  0.4611  0.0000  0.1928  0.0000  0.0000  0.0000  0.0000  0.0000 </r>
       </set>
       <set comment="band 5">
        <r>  0.0148  0.0528  0.0000  0.0576  0.0274  0.0000  0.0039  0.0000  0.0009 </r>
        <r>  0.0479  0.0355  0.0000  0.2005  0.0000  0.0000  0.0000  0.0000  0.0000 </r>
       </set>
       <set comment="band 6">
        <r>  0.0000  0.0000  0.0687  0.0000  0.0000  0.0592  0.0000  0.0048  0.0000 </r>
        <r>  0.0000  0.0000  0.2767  0.0000  0.0000  0.0000  0.0000  0.0000  0.0000 </r>
       </set>
       <set comment="band 7">
        <r>  0.3791  0.0062  0.0000  0.0358  0.0015  0.0000  0.0029  0.0000  0.0022 </r>
        <r>  0.0008  0.1333  0.0000  0.0082  0.0000  0.0000  0.0000  0.0000  0.0000 </r>
       </set>
       <set comment="band 8">
        <r>  0.0001  0.2764  0.0000  0.0393  0.0248  0.0000  0.0055  0.0000  0.0016 </r>
        <r>  0.0414  0.0000  0.0000  0.0786  0.0000  0.0000  0.0000  0.0000  0.0000 </r>
       </set>
       <set comment="band 9">
        <r>  0.0070  0.0047  0.0000  0.1345  0.1864  0.0000  0.0586  0.0000  0.0007 </r>
        <r>  0.0369  0.0157  0.0000  0.0156  0.0000  0.0000  0.0000  0.0000  0.0000 </r>
       </set>
       <set comment="band 10">
        <r>  0.0000  0.0000  0.1107  0.0000  0.0000  0.1898  0.0000  0.0453  0.0000 </r>
        <r>  0.0000  0.0000  0.0563  0.0000  0.0000  0.0000  0.0000  0.0000  0.0000 </r>
       </set>
       <set comment="band 11">
        <r>  0.0039  0.0570  0.0000  0.0139  0.0430  0.0000  0.4271  0.0000  0.1213 </r>
        <r>  0.0341  0.0000  0.0000  0.0696  0.0000  0.0000  0.0000  0.0000  0.0000 </r>
       </set>
       <set comment="band 12">
        <r>  0.0000  0.0000  0.1801  0.0000  0.0000  0.0147  0.0000  0.4608  0.0000 </r>
        <r>  0.0000  0.0000  0.0160  0.0000  0.0000  0.0000  0.0000  0.0000  0.0000 </r>
       </set>
       <set comment="band 13">
        <r>  0.0039  0.0006  0.0000  0.0252  0.0020  0.0000  0.1258  0.0000  0.4860 </r>
        <r>  0.0008  0.1549  0.0000  0.0054  0.0000  0.0000  0.0000  0.0000  0.0000 </r>
       </set>
       <set comment="band 14">
        <r>  0.1106  0.0066  0.0000  0.0205  0.1148  0.0000  0.0389  0.0000  0.0228 </r>
        <r>  0.0037  0.0010  0.0000  0.0094  0.0000  0.0000  0.0000  0.0000  0.0000 </r>
       </set>
       <set comment="band 15">
        <r>  0.0000  0.0000  0.0057  0.0000  0.0000  0.0225  0.0000  0.2254  0.0000 </r>
        <r>  0.0000  0.0000  0.0396  0.0000  0.0000  0.0000  0.0000  0.0000  0.0000 </r>
       </set>
       <set comment="band 16">
        <r>  0.0118  0.0042  0.0000  0.0442  0.2902  0.0000  0.0176  0.0000  0.0266 </r>
        <r>  0.0407  0.0035  0.0000  0.0123  0.0000  0.0000  0.0000  0.0000  0.0000 </r>
       </set>
       <set comment="band 17">
        <r>  0.0000  0.0000  0.0196  0.0000  0.0000  0.5026  0.0000  0.1938  0.0000 </r>
        <r>  0.0000  0.0000  0.0232  0.0000  0.0000  0.0000  0.0000  0.0000  0.0000 </r>
       </set>
       <set comment="band 18">
        <r>  0.0000  0.0000  0.0128  0.0000  0.0000  0.1860  0.0000  0.2500  0.0000 </r>
        <r>  0.0000  0.0000  0.0000  0.0000  0.0000  0.0000  0.0000  0.0000  0.0000 </r>
       </set>
      </set>
      <set comment="kpoint 28">
       <set comment="band 1">
        <r>  0.0025  0.0029  0.0000  0.0000  0.0000  0.0000  0.0072  0.0000  0.0001 </r>
        <r>  0.7857  0.0000  0.0000  0.0000  0.0000  0.0000  0.0000  0.0000  0.0000 </r>
       </set>
       <set comment="band 2">
        <r>  0.0000  0.0000  0.0777  0.0000  0.0000  0.0018  0.0000  0.0000  0.0000 </r>
        <r>  0.0000  0.0000  0.4698  0.0000  0.0000  0.0000  0.0000  0.0000  0.0000 </r>
       </set>
       <set comment="band 3">
        <r>  0.0000  0.0000  0.0000  0.0521  0.0037  0.0000  0.0000  0.0000  0.0000 </r>
        <r>  0.0000  0.0000  0.0000  0.5921  0.0000  0.0000  0.0000  0.0000  0.0000 </r>
       </set>
       <set comment="band 4">
        <r>  0.0295  0.0216  0.0000  0.0000  0.0000  0.0000  0.0018  0.0000  0.0055 </r>
        <r>  0.0002  0.6226  0.0000  0.0000  0.0000  0.0000  0.0000  0.0000  0.0000 </r>
       </set>
       <set comment="band 5">
        <r>  0.0000  0.0000  0.0000  0.0154  0.1417  0.0000  0.0000  0.0000  0.0000 </r>
        <r>  0.0000  0.0000  0.0000  0.0992  0.0000  0.0000  0.0000  0.0000  0.0000 </r>
       </set>
       <set comment="band 6">
        <r>  0.4205  0.0189  0.0000  0.0000  0.0000  0.0000  0.0011  0.0000  0.0013 </r>
        <r>  0.0378  0.0576  0.0000  0.0000  0.0000  0.0000  0.0000  0.0000  0.0000 </r>
       </set>
       <set comment="band 7">
        <r>  0.0000  0.0000  0.1097  0.0000  0.0000  0.0140  0.0000  0.0000  0.0000 </r>
        <r>  0.0000  0.0000  0.4090  0.0000  0.0000  0.0000  0.0000  0.0000  0.0000 </r>
       </set>
       <set comment="band 8">
        <r>  0.0222  0.2964  0.0000  0.0000  0.0000  0.0000  0.0201  0.0000  0.0020 </r>
        <r>  0.0451  0.1323  0.0000  0.0000  0.0000  0.0000  0.0000  0.0000  0.0000 </r>
       </set>
       <set comment="band 9">
        <r>  0.0000  0.0000  0.0000  0.2787  0.0505  0.0000  0.0000  0.0000  0.0000 </r>
        <r>  0.0000  0.0000  0.0000  0.1973  0.0000  0.0000  0.0000  0.0000  0.0000 </r>
       </set>
       <set comment="band 10">
        <r>  0.0246  0.0451  0.0000  0.0000  0.0000  0.0000  0.4570  0.0000  0.0877 </r>
        <r>  0.1010  0.0143  0.0000  0.0000  0.0000  0.0000  0.0000  0.0000  0.0000 </r>
       </set>
       <set comment="band 11">
        <r>  0.0000  0.0000  0.0723  0.0000  0.0000  0.3682  0.0000  0.0000  0.0000 </r>
        <r>  0.0000  0.0000  0.0222  0.0000  0.0000  0.0000  0.0000  0.0000  0.0000 </r>
       </set>
       <set comment="band 12">
        <r>  0.0059  0.0000  0.0000  0.0000  0.0000  0.0000  0.0616  0.0000  0.6295 </r>
        <r>  0.0056  0.0872  0.0000  0.0000  0.0000  0.0000  0.0000  0.0000  0.0000 </r>
       </set>
       <set comment="band 13">
        <r>  0.0000  0.0000  0.0000  0.0000  0.0000  0.0000  0.0000  0.8667  0.0000 </r>
        <r>  0.0000  0.0000  0.0000  0.0000  0.0000  0.0000  0.0000  0.0000  0.0000 </r>
       </set>
       <set comment="band 14">
        <r>  0.0000  0.0000  0.0000  0.0000  0.0000  0.0000  0.0000  0.2416  0.0000 </r>
        <r>  0.0000  0.0000  0.0000  0.0000  0.0000  0.0000  0.0000  0.0000  0.0000 </r>
       </set>
       <set comment="band 15">
        <r>  0.0000  0.0000  0.1044  0.0000  0.0000  0.2870  0.0000  0.0000  0.0000 </r>
        <r>  0.0000  0.0000  0.0008  0.0000  0.0000  0.0000  0.0000  0.0000  0.0000 </r>
       </set>
       <set comment="band 16">
        <r>  0.0000  0.0000  0.0438  0.0000  0.0000  0.3685  0.0000  0.0000  0.0000 </r>
        <r>  0.0000  0.0000  0.0282  0.0000  0.0000  0.0000  0.0000  0.0000  0.0000 </r>
       </set>
       <set comment="band 17">
        <r>  0.0000  0.0000  0.0000  0.2065  0.0001  0.0000  0.0000  0.0000  0.0000 </r>
        <r>  0.0000  0.0000  0.0000  0.0044  0.0000  0.0000  0.0000  0.0000  0.0000 </r>
       </set>
       <set comment="band 18">
        <r>  0.0975  0.1175  0.0000  0.0000  0.0000  0.0000  0.0612  0.0000  0.0957 </r>
        <r>  0.0006  0.0182  0.0000  0.0000  0.0000  0.0000  0.0000  0.0000  0.0000 </r>
       </set>
      </set>
      <set comment="kpoint 29">
       <set comment="band 1">
        <r>  0.0000  0.0059  0.0000  0.0000  0.0000  0.0000  0.0047  0.0000  0.0016 </r>
        <r>  0.7872  0.0000  0.0000  0.0000  0.0000  0.0000  0.0000  0.0000  0.0000 </r>
       </set>
       <set comment="band 2">
        <r>  0.0000  0.0000  0.0331  0.0328  0.0024  0.0024  0.0000  0.0000  0.0000 </r>
        <r>  0.0000  0.0000  0.2584  0.2565  0.0000  0.0000  0.0000  0.0000  0.0000 </r>
       </set>
       <set comment="band 3">
        <r>  0.0000  0.0000  0.0328  0.0331  0.0024  0.0024  0.0000  0.0000  0.0000 </r>
        <r>  0.0000  0.0000  0.2565  0.2584  0.0000  0.0000  0.0000  0.0000  0.0000 </r>
       </set>
       <set comment="band 4">
        <r>  0.0557  0.0000  0.0000  0.0000  0.0000  0.0000  0.0035  0.0000  0.0105 </r>
        <r>  0.0000  0.6028  0.0000  0.0000  0.0000  0.0000  0.0000  0.0000  0.0000 </r>
       </set>
       <set comment="band 5">
        <r>  0.0000  0.0000  0.0324  0.0321  0.0335  0.0339  0.0000  0.0000  0.0000 </r>
        <r>  0.0000  0.0000  0.1433  0.1416  0.0000  0.0000  0.0000  0.0000  0.0000 </r>
       </set>
       <set comment="band 6">
        <r>  0.0000  0.0000  0.0321  0.0324  0.0339  0.0335  0.0000  0.0000  0.0000 </r>
        <r>  0.0000  0.0000  0.1416  0.1433  0.0000  0.0000  0.0000  0.0000  0.0000 </r>
       </set>
       <set comment="band 7">
        <r>  0.4267  0.0000  0.0000  0.0000  0.0000  0.0000  0.0018  0.0000  0.0053 </r>
        <r>  0.0000  0.1715  0.0000  0.0000  0.0000  0.0000  0.0000  0.0000  0.0000 </r>
       </set>
       <set comment="band 8">
        <r>  0.0000  0.3308  0.0000  0.0000  0.0000  0.0000  0.0118  0.0000  0.0039 </r>
        <r>  0.0978  0.0000  0.0000  0.0000  0.0000  0.0000  0.0000  0.0000  0.0000 </r>
       </set>
       <set comment="band 9">
        <r>  0.0000  0.0000  0.0922  0.0874  0.0910  0.0960  0.0000  0.0000  0.0000 </r>
        <r>  0.0000  0.0000  0.0487  0.0462  0.0000  0.0000  0.0000  0.0000  0.0000 </r>
       </set>
       <set comment="band 10">
        <r>  0.0000  0.0000  0.0874  0.0922  0.0960  0.0910  0.0000  0.0000  0.0000 </r>
        <r>  0.0000  0.0000  0.0462  0.0487  0.0000  0.0000  0.0000  0.0000  0.0000 </r>
       </set>
       <set comment="band 11">
        <r>  0.0000  0.0759  0.0000  0.0000  0.0000  0.0000  0.4323  0.0000  0.1441 </r>
        <r>  0.0758  0.0000  0.0000  0.0000  0.0000  0.0000  0.0000  0.0000  0.0000 </r>
       </set>
       <set comment="band 12">
        <r>  0.0103  0.0000  0.0000  0.0000  0.0000  0.0000  0.1619  0.0000  0.4856 </r>
        <r>  0.0000  0.1765  0.0000  0.0000  0.0000  0.0000  0.0000  0.0000  0.0000 </r>
       </set>
       <set comment="band 13">
        <r>  0.0000  0.0000  0.0000  0.0000  0.0000  0.0000  0.0000  1.0645  0.0000 </r>
        <r>  0.0000  0.0000  0.0000  0.0000  0.0000  0.0000  0.0000  0.0000  0.0000 </r>
       </set>
       <set comment="band 14">
        <r>  0.0000  0.0000  0.0000  0.0000  0.0000  0.0000  0.0000  0.0000  0.0000 </r>
        <r>  0.0000  0.0000  0.0000  0.0000  0.0000  0.0000  0.0000  0.0000  0.0000 </r>
       </set>
       <set comment="band 15">
        <r>  0.0000  0.0000  0.1119  0.0697  0.0274  0.0440  0.0000  0.0000  0.0000 </r>
        <r>  0.0000  0.0000  0.0001  0.0001  0.0000  0.0000  0.0000  0.0000  0.0000 </r>
       </set>
       <set comment="band 16">
        <r>  0.0000  0.0000  0.0697  0.1119  0.0440  0.0274  0.0000  0.0000  0.0000 </r>
        <r>  0.0000  0.0000  0.0001  0.0001  0.0000  0.0000  0.0000  0.0000  0.0000 </r>
       </set>
       <set comment="band 17">
        <r>  0.1683  0.0000  0.0000  0.0000  0.0000  0.0000  0.0742  0.0000  0.2227 </r>
        <r>  0.0000  0.0120  0.0000  0.0000  0.0000  0.0000  0.0000  0.0000  0.0000 </r>
       </set>
       <set comment="band 18">
        <r>  0.0000  0.0000  0.0010  0.0101  0.5650  0.0548  0.0000  0.0000  0.0000 </r>
        <r>  0.0000  0.0000  0.0050  0.0511  0.0000  0.0000  0.0000  0.0000  0.0000 </r>
       </set>
      </set>
     </set>
    </set>
   </array>
  </projected>
 </calculation>
 <structure name="finalpos" >
  <crystal>
   <varray name="basis" >
    <v>       0.00000000       2.12337500       2.12337500 </v>
    <v>       2.12337500       0.00000000       2.12337500 </v>
    <v>       2.12337500       2.12337500       0.00000000 </v>
   </varray>
   <i name="volume">     19.14741257 </i>
   <varray name="rec_basis" >
    <v>      -0.23547419       0.23547419       0.23547419 </v>
    <v>       0.23547419      -0.23547419       0.23547419 </v>
    <v>       0.23547419       0.23547419      -0.23547419 </v>
   </varray>
  </crystal>
  <varray name="positions" >
   <v>       0.00000000       0.00000000       0.00000000 </v>
   <v>       0.50000000       0.50000000       0.50000000 </v>
  </varray>
 </structure>
</modeling>
