       N       E                     dE             d eps       ncg     rms          ort
DAV:   1     0.217582494569E+03    0.21758E+03   -0.30798E+03    36   0.216E+02
DAV:   2     0.828758393829E+01   -0.20929E+03   -0.20929E+03    36   0.334E+01
DAV:   3    -0.282081268988E-01   -0.83158E+01   -0.83153E+01    36   0.225E+01
DAV:   4    -0.174491492064E+01   -0.17167E+01   -0.16871E+01    36   0.733E+00
DAV:   5    -0.247158947305E+01   -0.72667E+00   -0.69112E+00    36   0.335E+00
SDA:   6    -0.199411562674E+01    0.47747E+00   -0.14731E+01    36   0.368E+01 0.000E+00
DMP:   7    -0.283509049754E+01   -0.84097E+00   -0.48744E+00    36   0.101E+01 0.538E+00
DMP:   8    -0.301632406143E+01   -0.18123E+00   -0.13907E+00    36   0.488E+00-0.366E+00
DMP:   9    -0.308501065791E+01   -0.68687E-01   -0.89892E-01    36   0.237E+00-0.319E-01
DMP:  10    -0.315563028996E+01   -0.70620E-01   -0.61863E-01    36   0.110E+00 0.116E+00
DMP:  11    -0.320698805493E+01   -0.51358E-01   -0.55743E-01    36   0.104E+00 0.931E-01
DMP:  12    -0.325149198616E+01   -0.44504E-01   -0.40618E-01    36   0.717E-01 0.783E-01
DMP:  13    -0.328028749933E+01   -0.28796E-01   -0.19927E-01    36   0.314E-01 0.482E-01
DMP:  14    -0.329510038193E+01   -0.14813E-01   -0.10023E-01    36   0.146E-01 0.274E-01
DMP:  15    -0.330351682134E+01   -0.84164E-02   -0.60021E-02    36   0.832E-02 0.175E-01
DMP:  16    -0.330913250615E+01   -0.56157E-02   -0.46500E-02    36   0.625E-02 0.141E-01
DMP:  17    -0.331525855967E+01   -0.61261E-02   -0.67725E-02    36   0.871E-02 0.215E-01
DMP:  18    -0.332494379226E+01   -0.96852E-02   -0.96139E-02    36   0.117E-01 0.323E-01
DMP:  19    -0.333606183357E+01   -0.11118E-01   -0.85933E-02    36   0.993E-02 0.302E-01
DMP:  20    -0.334442615677E+01   -0.83643E-02   -0.53017E-02    36   0.587E-02 0.193E-01
DMP:  21    -0.334910010554E+01   -0.46739E-02   -0.26028E-02    36   0.277E-02 0.978E-02
DMP:  22    -0.335127790677E+01   -0.21778E-02   -0.11175E-02    36   0.115E-02 0.431E-02
DMP:  23    -0.335218756219E+01   -0.90966E-03   -0.44176E-03    36   0.439E-03 0.174E-02
DMP:  24    -0.335254143373E+01   -0.35387E-03   -0.16473E-03    36   0.158E-03 0.664E-03
DMP:  25    -0.335267188619E+01   -0.13045E-03   -0.58509E-04    36   0.544E-04 0.241E-03
DMP:  26    -0.335271772884E+01   -0.45843E-04   -0.19817E-04    36   0.178E-04 0.832E-04
   1 F= -.33527177E+01 E0= -.33334376E+01  d E =-.335272E+01  mag=     2.0000
