<?xml version="1.0" encoding="ISO-8859-1"?>
<modeling>
 <generator>
  <i name="program" type="string">vasp </i>
  <i name="version" type="string">5.4.4.18Apr17-6-g9f103f2a35  </i>
  <i name="subversion" type="string">(build Nov 08 2019 15:19:53) gamma-only         parallel </i>
  <i name="platform" type="string">LinuxIFC </i>
  <i name="date" type="string">2020 11 30 </i>
  <i name="time" type="string">09:30:44 </i>
 </generator>
 <incar>
  <i type="string" name="PREC">accurate</i>
  <i type="string" name="ALGO"> D</i>
  <i type="int" name="ISPIN">     2</i>
  <i type="int" name="NELM">   300</i>
  <i type="int" name="IBRION">     2</i>
  <i name="EDIFF">      0.00005000</i>
  <i type="int" name="NSW">    99</i>
  <i type="int" name="ISIF">     2</i>
  <i name="ENCUT">    520.00000000</i>
  <v name="MAGMOM">      0.60000000</v>
  <i type="string" name="LREAL"> Auto</i>
  <i type="int" name="ISMEAR">     0</i>
  <i name="SIGMA">      0.05000000</i>
  <i type="logical" name="LWAVE"> F  </i>
  <i type="int" name="LORBIT">    11</i>
  <i type="logical" name="LASPH"> T  </i>
  <v type="int" name="KPOINT_BSE">    -1     0     0     0</v>
  <i type="int" name="NELM">   300</i>
  <i type="logical" name="LASPH"> T  </i>
 </incar>
 <structure name="primitive_cell" >
  <crystal>
   <varray name="basis" >
    <v>      10.00000000       0.00000000       0.00000000 </v>
    <v>       0.00000000      10.00000000       0.00000000 </v>
    <v>       0.00000000       0.00000000      10.00000000 </v>
   </varray>
   <i name="volume">   1000.00000000 </i>
   <varray name="rec_basis" >
    <v>       0.10000000       0.00000000       0.00000000 </v>
    <v>       0.00000000       0.10000000       0.00000000 </v>
    <v>       0.00000000       0.00000000       0.10000000 </v>
   </varray>
  </crystal>
  <varray name="positions" >
   <v>      -0.50000000      -0.50000000      -0.50000000 </v>
  </varray>
 </structure>
 <varray name="primitive_index" >
  <v type="int" >        1 </v>
 </varray>
 <kpoints>
  <generation param="Gamma">
   <v type="int" name="divisions">       1        1        1 </v>
   <v name="usershift">      0.00000000       0.00000000       0.00000000 </v>
   <v name="genvec1">      1.00000000       0.00000000       0.00000000 </v>
   <v name="genvec2">      0.00000000       1.00000000       0.00000000 </v>
   <v name="genvec3">      0.00000000       0.00000000       1.00000000 </v>
   <v name="shift">      0.00000000       0.00000000       0.00000000 </v>
  </generation>
  <varray name="kpointlist" >
   <v>       0.00000000       0.00000000       0.00000000 </v>
  </varray>
  <varray name="weights" >
   <v>       1.00000000 </v>
  </varray>
 </kpoints>
 <parameters>
  <separator name="general" >
   <i type="string" name="SYSTEM">unknown system</i>
   <i type="logical" name="LCOMPAT"> F  </i>
  </separator>
  <separator name="electronic" >
   <i type="string" name="PREC">accura</i>
   <i name="ENMAX">    520.00000000</i>
   <i name="ENAUG">    380.87800000</i>
   <i name="EDIFF">      0.00005000</i>
   <i type="int" name="IALGO">    53</i>
   <i type="int" name="IWAVPR">    11</i>
   <i type="int" name="NBANDS">    36</i>
   <i name="NELECT">     10.00000000</i>
   <i type="int" name="TURBO">     0</i>
   <i type="int" name="IRESTART">     0</i>
   <i type="int" name="NREBOOT">     0</i>
   <i type="int" name="NMIN">     0</i>
   <i name="EREF">      0.00000000</i>
   <separator name="electronic smearing" >
    <i type="int" name="ISMEAR">     0</i>
    <i name="SIGMA">      0.05000000</i>
    <i name="KSPACING">      0.50000000</i>
    <i type="logical" name="KGAMMA"> T  </i>
   </separator>
   <separator name="electronic projectors" >
    <i type="logical" name="LREAL"> T  </i>
    <v name="ROPT">     -0.00025000</v>
    <i type="int" name="LMAXPAW">  -100</i>
    <i type="int" name="LMAXMIX">     2</i>
    <i type="logical" name="NLSPLINE"> F  </i>
   </separator>
   <separator name="electronic startup" >
    <i type="int" name="ISTART">     0</i>
    <i type="int" name="ICHARG">     2</i>
    <i type="int" name="INIWAV">     1</i>
   </separator>
   <separator name="electronic spin" >
    <i type="int" name="ISPIN">     2</i>
    <i type="logical" name="LNONCOLLINEAR"> F  </i>
    <v name="MAGMOM">      0.60000000</v>
    <i name="NUPDOWN">     -1.00000000</i>
    <i type="logical" name="LSORBIT"> F  </i>
    <v name="SAXIS">      0.00000000      0.00000000      1.00000000</v>
    <i type="logical" name="LSPIRAL"> F  </i>
    <v name="QSPIRAL">      0.00000000      0.00000000      0.00000000</v>
    <i type="logical" name="LZEROZ"> F  </i>
   </separator>
   <separator name="electronic exchange-correlation" >
    <i type="logical" name="LASPH"> T  </i>
    <i type="logical" name="LMETAGGA"> F  </i>
   </separator>
   <separator name="electronic convergence" >
    <i type="int" name="NELM">   300</i>
    <i type="int" name="NELMDL">    -5</i>
    <i type="int" name="NELMIN">     2</i>
    <i name="ENINI">    520.00000000</i>
    <separator name="electronic convergence detail" >
     <i type="logical" name="LDIAG"> T  </i>
     <i type="logical" name="LSUBROT"> F  </i>
     <i name="WEIMIN">      0.00100000</i>
     <i name="EBREAK">      0.00000035</i>
     <i name="DEPER">      0.30000000</i>
     <i type="int" name="NRMM">     4</i>
     <i name="TIME">      0.40000000</i>
    </separator>
   </separator>
   <separator name="electronic mixer" >
    <i name="AMIX">      0.40000000</i>
    <i name="BMIX">      1.00000000</i>
    <i name="AMIN">      0.10000000</i>
    <i name="AMIX_MAG">      1.60000000</i>
    <i name="BMIX_MAG">      1.00000000</i>
    <separator name="electronic mixer details" >
     <i type="int" name="IMIX">     4</i>
     <i type="logical" name="MIXFIRST"> F  </i>
     <i type="int" name="MAXMIX">   -45</i>
     <i name="WC">    100.00000000</i>
     <i type="int" name="INIMIX">     1</i>
     <i type="int" name="MIXPRE">     1</i>
     <i type="int" name="MREMOVE">     5</i>
    </separator>
   </separator>
   <separator name="electronic dipolcorrection" >
    <i type="logical" name="LDIPOL"> F  </i>
    <i type="logical" name="LMONO"> F  </i>
    <i type="int" name="IDIPOL">     0</i>
    <i name="EPSILON">      1.00000000</i>
    <v name="DIPOL">   -100.00000000   -100.00000000   -100.00000000</v>
    <i name="EFIELD">      0.00000000</i>
   </separator>
  </separator>
  <separator name="grids" >
   <i type="int" name="NGX">    80</i>
   <i type="int" name="NGY">    80</i>
   <i type="int" name="NGZ">    80</i>
   <i type="int" name="NGXF">   160</i>
   <i type="int" name="NGYF">   160</i>
   <i type="int" name="NGZF">   160</i>
   <i type="logical" name="ADDGRID"> F  </i>
  </separator>
  <separator name="ionic" >
   <i type="int" name="NSW">    99</i>
   <i type="int" name="IBRION">     2</i>
   <i type="int" name="MDALGO">     0</i>
   <i type="int" name="ISIF">     2</i>
   <i name="PSTRESS">      0.00000000</i>
   <i name="EDIFFG">      0.00050000</i>
   <i type="int" name="NFREE">     1</i>
   <i name="POTIM">      0.50000000</i>
   <i name="SMASS">     -3.00000000</i>
   <i name="SCALEE">      1.00000000</i>
  </separator>
  <separator name="ionic md" >
   <i name="TEBEG">      0.00010000</i>
   <i name="TEEND">      0.00010000</i>
   <i type="int" name="NBLOCK">     1</i>
   <i type="int" name="KBLOCK">    99</i>
   <i type="int" name="NPACO">   256</i>
   <i name="APACO">     16.00000000</i>
  </separator>
  <separator name="symmetry" >
   <i type="int" name="ISYM">     2</i>
   <i name="SYMPREC">      0.00001000</i>
  </separator>
  <separator name="dos" >
   <i type="int" name="LORBIT">    11</i>
   <v name="RWIGS">     -1.00000000</v>
   <i type="int" name="NEDOS">   301</i>
   <i name="EMIN">     10.00000000</i>
   <i name="EMAX">    -10.00000000</i>
   <i name="EFERMI">      0.00000000</i>
  </separator>
  <separator name="writing" >
   <i type="int" name="NWRITE">     2</i>
   <i type="logical" name="LWAVE"> F  </i>
   <i type="logical" name="LDOWNSAMPLE"> F  </i>
   <i type="logical" name="LCHARG"> T  </i>
   <i type="logical" name="LPARD"> F  </i>
   <i type="logical" name="LVTOT"> F  </i>
   <i type="logical" name="LVHAR"> F  </i>
   <i type="logical" name="LELF"> F  </i>
   <i type="logical" name="LOPTICS"> F  </i>
   <v name="STM">      0.00000000      0.00000000      0.00000000      0.00000000      0.00000000      0.00000000      0.00000000</v>
  </separator>
  <separator name="performance" >
   <i type="int" name="NPAR">    36</i>
   <i type="int" name="NSIM">     4</i>
   <i type="int" name="NBLK">    -1</i>
   <i type="logical" name="LPLANE"> T  </i>
   <i type="logical" name="LSCALAPACK"> T  </i>
   <i type="logical" name="LSCAAWARE"> F  </i>
   <i type="logical" name="LSCALU"> F  </i>
   <i type="logical" name="LASYNC"> F  </i>
   <i type="logical" name="LORBITALREAL"> F  </i>
  </separator>
  <separator name="miscellaneous" >
   <i type="int" name="IDIOT">     3</i>
   <i type="int" name="ISPECIAL">     0</i>
   <i type="logical" name="LMUSIC"> F  </i>
   <v name="POMASS">    178.49000000</v>
   <v name="DARWINR">      0.00000000</v>
   <v name="DARWINV">      1.00000000</v>
   <i type="logical" name="LCORR"> T  </i>
  </separator>
  <i type="logical" name="GGA_COMPAT"> T  </i>
  <i type="logical" name="LBERRY"> F  </i>
  <i type="int" name="ICORELEVEL">     0</i>
  <i type="logical" name="LDAU"> F  </i>
  <i type="int" name="I_CONSTRAINED_M">     0</i>
  <separator name="electronic exchange-correlation" >
   <i type="string" name="GGA">--</i>
   <i type="int" name="VOSKOWN">     0</i>
   <i type="logical" name="LHFCALC"> F  </i>
   <i type="string" name="PRECFOCK"></i>
   <i type="logical" name="LSYMGRAD"> F  </i>
   <i type="logical" name="LHFONE"> F  </i>
   <i type="logical" name="LRHFCALC"> F  </i>
   <i type="logical" name="LTHOMAS"> F  </i>
   <i type="logical" name="LMODELHF"> F  </i>
   <i name="ENCUT4O">     -1.00000000</i>
   <i type="int" name="EXXOEP">     0</i>
   <i type="int" name="FOURORBIT">     0</i>
   <i name="AEXX">      0.00000000</i>
   <i name="HFALPHA">      0.00000000</i>
   <i name="MCALPHA">      0.00000000</i>
   <i name="ALDAX">      1.00000000</i>
   <i name="AGGAX">      1.00000000</i>
   <i name="ALDAC">      1.00000000</i>
   <i name="AGGAC">      1.00000000</i>
   <i type="int" name="NKREDX">     1</i>
   <i type="int" name="NKREDY">     1</i>
   <i type="int" name="NKREDZ">     1</i>
   <i type="logical" name="SHIFTRED"> F  </i>
   <i type="logical" name="ODDONLY"> F  </i>
   <i type="logical" name="EVENONLY"> F  </i>
   <i type="int" name="LMAXFOCK">     0</i>
   <i type="int" name="NMAXFOCKAE">     0</i>
   <i type="logical" name="LFOCKAEDFT"> F  </i>
   <i name="HFSCREEN">      0.00000000</i>
   <i name="HFSCREENC">      0.00000000</i>
   <i type="int" name="NBANDSGWLOW">     0</i>
  </separator>
  <separator name="vdW DFT" >
   <i type="logical" name="LUSE_VDW"> F  </i>
   <i name="Zab_VDW">     -0.84910000</i>
   <i name="PARAM1">      0.12340000</i>
   <i name="PARAM2">      1.00000000</i>
   <i name="PARAM3">      0.00000000</i>
  </separator>
  <separator name="model GW" >
   <i type="int" name="MODEL_GW">     0</i>
   <i name="MODEL_EPS0">    600.00000000</i>
   <i name="MODEL_ALPHA">      1.00000000</i>
  </separator>
  <separator name="linear response parameters" >
   <i type="logical" name="LEPSILON"> F  </i>
   <i type="logical" name="LRPA"> F  </i>
   <i type="logical" name="LNABLA"> F  </i>
   <i type="logical" name="LVEL"> F  </i>
   <i type="int" name="KINTER">     0</i>
   <i name="CSHIFT">      0.10000000</i>
   <i name="OMEGAMAX">     -1.00000000</i>
   <i name="DEG_THRESHOLD">      0.00200000</i>
   <i name="RTIME">     -0.10000000</i>
   <i name="WPLASMAI">      0.00000000</i>
   <v name="DFIELD">      0.00000000      0.00000000      0.00000000</v>
   <v name="WPLASMA">      0.00000000      0.00000000      0.00000000      0.00000000      0.00000000      0.00000000      0.00000000      0.00000000      0.00000000</v>
  </separator>
  <separator name="orbital magnetization" >
   <i type="logical" name="NUCIND"> F  </i>
   <v name="MAGPOS">      0.00000000      0.00000000      0.00000000</v>
   <i type="logical" name="LNICSALL"> T  </i>
   <i type="logical" name="ORBITALMAG"> F  </i>
   <i type="logical" name="LMAGBLOCH"> F  </i>
   <i type="logical" name="LCHIMAG"> F  </i>
   <i type="logical" name="LGAUGE"> T  </i>
   <i type="int" name="MAGATOM">     0</i>
   <v name="MAGDIPOL">      0.00000000      0.00000000      0.00000000</v>
   <v name="AVECCONST">      0.00000000      0.00000000      0.00000000</v>
  </separator>
  <separator name="response functions" >
   <i type="logical" name="LADDER"> F  </i>
   <i type="logical" name="LRPAFORCE"> F  </i>
   <i type="logical" name="LFXC"> F  </i>
   <i type="logical" name="LHARTREE"> T  </i>
   <i type="int" name="IBSE">     0</i>
   <v type="int" name="KPOINT">    -1     0     0     0</v>
   <i type="logical" name="LTCTE"> F  </i>
   <i type="logical" name="LTETE"> F  </i>
   <i type="logical" name="LTRIPLET"> F  </i>
   <i type="logical" name="LFXCEPS"> F  </i>
   <i type="logical" name="LFXHEG"> F  </i>
   <i type="int" name="NATURALO">     2</i>
   <i type="logical" name="L2ORDER"> F  </i>
   <i type="logical" name="LMP2LT"> F  </i>
   <i type="logical" name="LUSEW"> F  </i>
   <i name="ENCUTGW">     -2.00000000</i>
   <i name="ENCUTGWSOFT">     -2.00000000</i>
   <i name="ENCUTLF">     -1.00000000</i>
   <i type="int" name="LMAXMP2">    -1</i>
   <i name="SCISSOR">      0.00000000</i>
   <i type="int" name="NOMEGA">     0</i>
   <i type="int" name="NOMEGAR">     0</i>
   <i type="int" name="NBANDSGW">    -1</i>
   <i type="int" name="NBANDSO">    -1</i>
   <i type="int" name="NBANDSV">    -1</i>
   <i type="int" name="NELM">   300</i>
   <i type="int" name="NELMHF">     1</i>
   <i type="int" name="DIM">     3</i>
   <i type="int" name="ANTIRES">     0</i>
   <i name="OMEGAMAX">    -30.00000000</i>
   <i name="OMEGAMIN">    -30.00000000</i>
   <i name="OMEGATL">   -200.00000000</i>
   <i type="int" name="OMEGAGRID">   140</i>
   <i name="CSHIFT">     -0.10000000</i>
   <i type="logical" name="SELFENERGY"> F  </i>
   <i type="logical" name="LSPECTRAL"> F  </i>
   <i type="logical" name="LSPECTRALGW"> F  </i>
   <i type="logical" name="LSINGLES"> F  </i>
   <i type="logical" name="LFERMIGW"> F  </i>
   <i type="logical" name="ODDONLYGW"> F  </i>
   <i type="logical" name="EVENONLYGW"> F  </i>
   <i type="int" name="NKREDLFX">     1</i>
   <i type="int" name="NKREDLFY">     1</i>
   <i type="int" name="NKREDLFZ">     1</i>
   <i type="int" name="MAXMEM">  2800</i>
   <i type="int" name="TELESCOPE">     0</i>
   <i type="int" name="TAUPAR">     1</i>
   <i type="int" name="OMEGAPAR">    -1</i>
   <i name="LAMBDA">      1.00000000</i>
  </separator>
  <separator name="External order field" >
   <i name="OFIELD_KAPPA">      0.00000000</i>
   <v name="OFIELD_K">      0.00000000      0.00000000      0.00000000</v>
   <i name="OFIELD_Q6_NEAR">      0.00000000</i>
   <i name="OFIELD_Q6_FAR">      0.00000000</i>
   <i name="OFIELD_A">      0.00000000</i>
  </separator>
 </parameters>
 <atominfo>
  <atoms>       1 </atoms>
  <types>       1 </types>
  <array name="atoms" >
   <dimension dim="1">ion</dimension>
   <field type="string">element</field>
   <field type="int">atomtype</field>
   <set>
    <rc><c>Hf</c><c>   1</c></rc>
   </set>
  </array>
  <array name="atomtypes" >
   <dimension dim="1">type</dimension>
   <field type="int">atomspertype</field>
   <field type="string">element</field>
   <field>mass</field>
   <field>valence</field>
   <field type="string">pseudopotential</field>
   <set>
    <rc><c>   1</c><c>Hf</c><c>    178.49000000</c><c>     10.00000000</c><c>  PAW_PBE Hf_pv 06Sep2000               </c></rc>
   </set>
  </array>
 </atominfo>
 <structure name="initialpos" >
  <crystal>
   <varray name="basis" >
    <v>      10.00000000       0.00000000       0.00000000 </v>
    <v>       0.00000000      10.00000000       0.00000000 </v>
    <v>       0.00000000       0.00000000      10.00000000 </v>
   </varray>
   <i name="volume">   1000.00000000 </i>
   <varray name="rec_basis" >
    <v>       0.10000000       0.00000000       0.00000000 </v>
    <v>       0.00000000       0.10000000       0.00000000 </v>
    <v>       0.00000000       0.00000000       0.10000000 </v>
   </varray>
  </crystal>
  <varray name="positions" >
   <v>       0.50000000       0.50000000       0.50000000 </v>
  </varray>
 </structure>
 <calculation>
  <scstep>
   <time name="total">    1.65    1.66</time>
   <energy>
    <i name="alphaZ">      1.89371840 </i>
    <i name="ewald">   -204.28240005 </i>
    <i name="hartreedc">   -475.48927641 </i>
    <i name="XCdc">     18.02580105 </i>
    <i name="pawpsdc">    656.97027342 </i>
    <i name="pawaedc">   -644.35232468 </i>
    <i name="eentropy">     -0.00000000 </i>
    <i name="bandstr">      3.89732043 </i>
    <i name="atom">    860.91938241 </i>
    <i name="e_fr_energy">    217.58249457 </i>
    <i name="e_wo_entrp">    217.58249457 </i>
    <i name="e_0_energy">    217.58249457 </i>
   </energy>
  </scstep>
  <scstep>
   <time name="total">    1.02    1.02</time>
   <energy>
    <i name="e_fr_energy">      8.28758394 </i>
    <i name="e_wo_entrp">      8.28758394 </i>
    <i name="e_0_energy">      8.28758394 </i>
   </energy>
  </scstep>
  <scstep>
   <time name="total">    1.01    1.02</time>
   <energy>
    <i name="e_fr_energy">     -0.02820813 </i>
    <i name="e_wo_entrp">     -0.02487896 </i>
    <i name="e_0_energy">     -0.02654354 </i>
   </energy>
  </scstep>
  <scstep>
   <time name="total">    1.02    1.03</time>
   <energy>
    <i name="e_fr_energy">     -1.74491492 </i>
    <i name="e_wo_entrp">     -1.71690942 </i>
    <i name="e_0_energy">     -1.73091217 </i>
   </energy>
  </scstep>
  <scstep>
   <time name="total">    1.42    1.42</time>
   <energy>
    <i name="e_fr_energy">     -2.47158947 </i>
    <i name="e_wo_entrp">     -2.46017907 </i>
    <i name="e_0_energy">     -2.46588427 </i>
   </energy>
  </scstep>
  <scstep>
   <time name="total">    1.59    1.60</time>
   <energy>
    <i name="e_fr_energy">     -1.99411563 </i>
    <i name="e_wo_entrp">     -1.98643431 </i>
    <i name="e_0_energy">     -1.99027497 </i>
   </energy>
  </scstep>
  <scstep>
   <time name="total">    1.52    1.53</time>
   <energy>
    <i name="e_fr_energy">     -2.83509050 </i>
    <i name="e_wo_entrp">     -2.81556175 </i>
    <i name="e_0_energy">     -2.82532612 </i>
   </energy>
  </scstep>
  <scstep>
   <time name="total">    1.55    1.55</time>
   <energy>
    <i name="e_fr_energy">     -3.01632406 </i>
    <i name="e_wo_entrp">     -2.98793335 </i>
    <i name="e_0_energy">     -3.00212870 </i>
   </energy>
  </scstep>
  <scstep>
   <time name="total">    1.54    1.55</time>
   <energy>
    <i name="e_fr_energy">     -3.08501066 </i>
    <i name="e_wo_entrp">     -3.05912261 </i>
    <i name="e_0_energy">     -3.07206663 </i>
   </energy>
  </scstep>
  <scstep>
   <time name="total">    1.55    1.55</time>
   <energy>
    <i name="e_fr_energy">     -3.15563029 </i>
    <i name="e_wo_entrp">     -3.13674796 </i>
    <i name="e_0_energy">     -3.14618913 </i>
   </energy>
  </scstep>
  <scstep>
   <time name="total">    1.53    1.54</time>
   <energy>
    <i name="e_fr_energy">     -3.20698805 </i>
    <i name="e_wo_entrp">     -3.19788843 </i>
    <i name="e_0_energy">     -3.20243824 </i>
   </energy>
  </scstep>
  <scstep>
   <time name="total">    1.54    1.54</time>
   <energy>
    <i name="e_fr_energy">     -3.25149199 </i>
    <i name="e_wo_entrp">     -3.24897510 </i>
    <i name="e_0_energy">     -3.25023354 </i>
   </energy>
  </scstep>
  <scstep>
   <time name="total">    1.52    1.53</time>
   <energy>
    <i name="e_fr_energy">     -3.28028750 </i>
    <i name="e_wo_entrp">     -3.27968334 </i>
    <i name="e_0_energy">     -3.27998542 </i>
   </energy>
  </scstep>
  <scstep>
   <time name="total">    1.58    1.58</time>
   <energy>
    <i name="e_fr_energy">     -3.29510038 </i>
    <i name="e_wo_entrp">     -3.29470287 </i>
    <i name="e_0_energy">     -3.29490163 </i>
   </energy>
  </scstep>
  <scstep>
   <time name="total">    1.53    1.53</time>
   <energy>
    <i name="e_fr_energy">     -3.30351682 </i>
    <i name="e_wo_entrp">     -3.30236775 </i>
    <i name="e_0_energy">     -3.30294229 </i>
   </energy>
  </scstep>
  <scstep>
   <time name="total">    1.54    1.55</time>
   <energy>
    <i name="e_fr_energy">     -3.30913251 </i>
    <i name="e_wo_entrp">     -3.30442150 </i>
    <i name="e_0_energy">     -3.30677700 </i>
   </energy>
  </scstep>
  <scstep>
   <time name="total">    1.53    1.54</time>
   <energy>
    <i name="e_fr_energy">     -3.31525856 </i>
    <i name="e_wo_entrp">     -3.30221091 </i>
    <i name="e_0_energy">     -3.30873473 </i>
   </energy>
  </scstep>
  <scstep>
   <time name="total">    1.53    1.54</time>
   <energy>
    <i name="e_fr_energy">     -3.32494379 </i>
    <i name="e_wo_entrp">     -3.30167692 </i>
    <i name="e_0_energy">     -3.31331036 </i>
   </energy>
  </scstep>
  <scstep>
   <time name="total">    1.55    1.55</time>
   <energy>
    <i name="e_fr_energy">     -3.33606183 </i>
    <i name="e_wo_entrp">     -3.30506344 </i>
    <i name="e_0_energy">     -3.32056264 </i>
   </energy>
  </scstep>
  <scstep>
   <time name="total">    1.54    1.54</time>
   <energy>
    <i name="e_fr_energy">     -3.34442616 </i>
    <i name="e_wo_entrp">     -3.30913737 </i>
    <i name="e_0_energy">     -3.32678176 </i>
   </energy>
  </scstep>
  <scstep>
   <time name="total">    1.52    1.52</time>
   <energy>
    <i name="e_fr_energy">     -3.34910011 </i>
    <i name="e_wo_entrp">     -3.31183335 </i>
    <i name="e_0_energy">     -3.33046673 </i>
   </energy>
  </scstep>
  <scstep>
   <time name="total">    1.53    1.54</time>
   <energy>
    <i name="e_fr_energy">     -3.35127791 </i>
    <i name="e_wo_entrp">     -3.31319528 </i>
    <i name="e_0_energy">     -3.33223659 </i>
   </energy>
  </scstep>
  <scstep>
   <time name="total">    1.53    1.53</time>
   <energy>
    <i name="e_fr_energy">     -3.35218756 </i>
    <i name="e_wo_entrp">     -3.31379211 </i>
    <i name="e_0_energy">     -3.33298984 </i>
   </energy>
  </scstep>
  <scstep>
   <time name="total">    1.54    1.54</time>
   <energy>
    <i name="e_fr_energy">     -3.35254143 </i>
    <i name="e_wo_entrp">     -3.31403267 </i>
    <i name="e_0_energy">     -3.33328705 </i>
   </energy>
  </scstep>
  <scstep>
   <time name="total">    1.53    1.54</time>
   <energy>
    <i name="e_fr_energy">     -3.35267189 </i>
    <i name="e_wo_entrp">     -3.31412421 </i>
    <i name="e_0_energy">     -3.33339805 </i>
   </energy>
  </scstep>
  <scstep>
   <time name="total">    1.70    1.70</time>
   <energy>
    <i name="alphaZ">      1.89371840 </i>
    <i name="ewald">   -204.28240005 </i>
    <i name="hartreedc">   -463.75750869 </i>
    <i name="XCdc">     17.87291490 </i>
    <i name="pawpsdc">    646.25096090 </i>
    <i name="pawaedc">   -635.85966478 </i>
    <i name="eentropy">     -0.03856028 </i>
    <i name="bandstr">   -226.35157314 </i>
    <i name="atom">    860.91938241 </i>
    <i name="e_fr_energy">     -3.35271773 </i>
    <i name="e_wo_entrp">     -3.31415745 </i>
    <i name="e_0_energy">     -3.33343759 </i>
   </energy>
  </scstep>
  <structure>
   <crystal>
    <varray name="basis" >
     <v>      10.00000000       0.00000000       0.00000000 </v>
     <v>       0.00000000      10.00000000       0.00000000 </v>
     <v>       0.00000000       0.00000000      10.00000000 </v>
    </varray>
    <i name="volume">   1000.00000000 </i>
    <varray name="rec_basis" >
     <v>       0.10000000       0.00000000       0.00000000 </v>
     <v>       0.00000000       0.10000000       0.00000000 </v>
     <v>       0.00000000       0.00000000       0.10000000 </v>
    </varray>
   </crystal>
   <varray name="positions" >
    <v>       0.50000000       0.50000000       0.50000000 </v>
   </varray>
  </structure>
  <varray name="forces" >
   <v>       0.00000000       0.00000000       0.00000000 </v>
  </varray>
  <varray name="stress" >
   <v>      -0.05290729       0.00000000      -0.00000000 </v>
   <v>       0.00000000      -0.05290729       0.00000000 </v>
   <v>       0.00000000       0.00000000      -0.05290729 </v>
  </varray>
  <energy>
   <i name="e_fr_energy">     -3.35271773 </i>
   <i name="e_wo_entrp">     -3.33343759 </i>
   <i name="e_0_energy">     -0.03856028 </i>
  </energy>
  <time name="totalsc">   47.95   53.43</time>
  <eigenvalues>
   <array>
    <dimension dim="1">band</dimension>
    <dimension dim="2">kpoint</dimension>
    <dimension dim="3">spin</dimension>
    <field>eigene</field>
    <field>occ</field>
    <set>
     <set comment="spin 1">
      <set comment="kpoint 1">
       <r>  -35.5610    1.0000 </r>
       <r>  -35.5610    1.0000 </r>
       <r>  -35.5609    1.0000 </r>
       <r>   -5.1215    1.0000 </r>
       <r>   -2.9773    0.6715 </r>
       <r>   -2.9772    0.6704 </r>
       <r>   -2.9771    0.6582 </r>
       <r>   -2.4949    0.0000 </r>
       <r>   -2.4949    0.0000 </r>
       <r>   -1.2161    0.0000 </r>
       <r>   -1.2160    0.0000 </r>
       <r>   -1.2155    0.0000 </r>
       <r>   -0.2639    0.0000 </r>
       <r>    0.8984    0.0000 </r>
       <r>    0.8984    0.0000 </r>
       <r>    1.5645    0.0000 </r>
       <r>    1.5670    0.0000 </r>
       <r>    1.5677    0.0000 </r>
       <r>    1.7563    0.0000 </r>
       <r>    2.0206    0.0000 </r>
       <r>    2.0208    0.0000 </r>
       <r>    2.0208    0.0000 </r>
       <r>    2.2985    0.0000 </r>
       <r>    2.2997    0.0000 </r>
       <r>    2.3009    0.0000 </r>
       <r>    2.5375    0.0000 </r>
       <r>    2.5390    0.0000 </r>
       <r>    3.3940    0.0000 </r>
       <r>    3.6201    0.0000 </r>
       <r>    3.6862    0.0000 </r>
       <r>    3.6976    0.0000 </r>
       <r>    3.7636    0.0000 </r>
       <r>    3.7849    0.0000 </r>
       <r>    3.7915    0.0000 </r>
       <r>    4.2254    0.0000 </r>
       <r>    4.5968    0.0000 </r>
      </set>
     </set>
     <set comment="spin 2">
      <set comment="kpoint 1">
       <r>  -34.7547    1.0000 </r>
       <r>  -34.7547    1.0000 </r>
       <r>  -34.7547    1.0000 </r>
       <r>   -4.3286    1.0000 </r>
       <r>   -1.9936    0.0000 </r>
       <r>   -1.9935    0.0000 </r>
       <r>   -1.6473    0.0000 </r>
       <r>   -1.6472    0.0000 </r>
       <r>   -1.6471    0.0000 </r>
       <r>   -0.7603    0.0000 </r>
       <r>   -0.7602    0.0000 </r>
       <r>   -0.7602    0.0000 </r>
       <r>   -0.1930    0.0000 </r>
       <r>    0.9251    0.0000 </r>
       <r>    0.9251    0.0000 </r>
       <r>    1.6422    0.0000 </r>
       <r>    1.6423    0.0000 </r>
       <r>    1.6427    0.0000 </r>
       <r>    1.7955    0.0000 </r>
       <r>    2.2513    0.0000 </r>
       <r>    2.2520    0.0000 </r>
       <r>    2.2523    0.0000 </r>
       <r>    2.3423    0.0000 </r>
       <r>    2.3432    0.0000 </r>
       <r>    2.3440    0.0000 </r>
       <r>    2.5156    0.0000 </r>
       <r>    2.5162    0.0000 </r>
       <r>    3.6404    0.0000 </r>
       <r>    3.7389    0.0000 </r>
       <r>    3.7477    0.0000 </r>
       <r>    3.7647    0.0000 </r>
       <r>    3.7807    0.0000 </r>
       <r>    3.8300    0.0000 </r>
       <r>    3.8390    0.0000 </r>
       <r>    3.8660    0.0000 </r>
       <r>    4.9563    0.0000 </r>
      </set>
     </set>
    </set>
   </array>
  </eigenvalues>
  <separator name="orbital magnetization" >
   <v name="MAGDIPOLOUT">      0.00000000      0.00000000      0.00000000</v>
  </separator>
  <dos>
   <i name="efermi">     -2.96197082 </i>
   <total>
    <array>
     <dimension dim="1">gridpoints</dimension>
     <dimension dim="2">spin</dimension>
     <field>energy</field>
     <field>total</field>
     <field>integrated</field>
     <set>
      <set comment="spin 1">
       <r>   -37.5869     0.0000     0.0000 </r>
       <r>   -37.4383     0.0000     0.0000 </r>
       <r>   -37.2897     0.0000     0.0000 </r>
       <r>   -37.1412     0.0000     0.0000 </r>
       <r>   -36.9926     0.0000     0.0000 </r>
       <r>   -36.8441     0.0000     0.0000 </r>
       <r>   -36.6955     0.0000     0.0000 </r>
       <r>   -36.5469     0.0000     0.0000 </r>
       <r>   -36.3984     0.0000     0.0000 </r>
       <r>   -36.2498     0.0000     0.0000 </r>
       <r>   -36.1012     0.0000     0.0000 </r>
       <r>   -35.9527     0.0000     0.0000 </r>
       <r>   -35.8041     0.0000     0.0000 </r>
       <r>   -35.6555     0.0755     0.0112 </r>
       <r>   -35.5070    18.8383     2.8099 </r>
       <r>   -35.3584     1.2796     3.0000 </r>
       <r>   -35.2099     0.0000     3.0000 </r>
       <r>   -35.0613     0.0000     3.0000 </r>
       <r>   -34.9127     0.0000     3.0000 </r>
       <r>   -34.7642     0.0000     3.0000 </r>
       <r>   -34.6156     0.0000     3.0000 </r>
       <r>   -34.4670     0.0000     3.0000 </r>
       <r>   -34.3185     0.0000     3.0000 </r>
       <r>   -34.1699     0.0000     3.0000 </r>
       <r>   -34.0213     0.0000     3.0000 </r>
       <r>   -33.8728     0.0000     3.0000 </r>
       <r>   -33.7242     0.0000     3.0000 </r>
       <r>   -33.5757     0.0000     3.0000 </r>
       <r>   -33.4271     0.0000     3.0000 </r>
       <r>   -33.2785     0.0000     3.0000 </r>
       <r>   -33.1300     0.0000     3.0000 </r>
       <r>   -32.9814     0.0000     3.0000 </r>
       <r>   -32.8328     0.0000     3.0000 </r>
       <r>   -32.6843     0.0000     3.0000 </r>
       <r>   -32.5357     0.0000     3.0000 </r>
       <r>   -32.3871     0.0000     3.0000 </r>
       <r>   -32.2386     0.0000     3.0000 </r>
       <r>   -32.0900     0.0000     3.0000 </r>
       <r>   -31.9415     0.0000     3.0000 </r>
       <r>   -31.7929     0.0000     3.0000 </r>
       <r>   -31.6443     0.0000     3.0000 </r>
       <r>   -31.4958     0.0000     3.0000 </r>
       <r>   -31.3472     0.0000     3.0000 </r>
       <r>   -31.1986     0.0000     3.0000 </r>
       <r>   -31.0501     0.0000     3.0000 </r>
       <r>   -30.9015     0.0000     3.0000 </r>
       <r>   -30.7529     0.0000     3.0000 </r>
       <r>   -30.6044     0.0000     3.0000 </r>
       <r>   -30.4558     0.0000     3.0000 </r>
       <r>   -30.3073     0.0000     3.0000 </r>
       <r>   -30.1587     0.0000     3.0000 </r>
       <r>   -30.0101     0.0000     3.0000 </r>
       <r>   -29.8616     0.0000     3.0000 </r>
       <r>   -29.7130     0.0000     3.0000 </r>
       <r>   -29.5644     0.0000     3.0000 </r>
       <r>   -29.4159     0.0000     3.0000 </r>
       <r>   -29.2673     0.0000     3.0000 </r>
       <r>   -29.1188     0.0000     3.0000 </r>
       <r>   -28.9702     0.0000     3.0000 </r>
       <r>   -28.8216     0.0000     3.0000 </r>
       <r>   -28.6731     0.0000     3.0000 </r>
       <r>   -28.5245     0.0000     3.0000 </r>
       <r>   -28.3759     0.0000     3.0000 </r>
       <r>   -28.2274     0.0000     3.0000 </r>
       <r>   -28.0788     0.0000     3.0000 </r>
       <r>   -27.9302     0.0000     3.0000 </r>
       <r>   -27.7817     0.0000     3.0000 </r>
       <r>   -27.6331     0.0000     3.0000 </r>
       <r>   -27.4846     0.0000     3.0000 </r>
       <r>   -27.3360     0.0000     3.0000 </r>
       <r>   -27.1874     0.0000     3.0000 </r>
       <r>   -27.0389     0.0000     3.0000 </r>
       <r>   -26.8903     0.0000     3.0000 </r>
       <r>   -26.7417     0.0000     3.0000 </r>
       <r>   -26.5932     0.0000     3.0000 </r>
       <r>   -26.4446     0.0000     3.0000 </r>
       <r>   -26.2960     0.0000     3.0000 </r>
       <r>   -26.1475     0.0000     3.0000 </r>
       <r>   -25.9989     0.0000     3.0000 </r>
       <r>   -25.8504     0.0000     3.0000 </r>
       <r>   -25.7018     0.0000     3.0000 </r>
       <r>   -25.5532     0.0000     3.0000 </r>
       <r>   -25.4047     0.0000     3.0000 </r>
       <r>   -25.2561     0.0000     3.0000 </r>
       <r>   -25.1075     0.0000     3.0000 </r>
       <r>   -24.9590     0.0000     3.0000 </r>
       <r>   -24.8104     0.0000     3.0000 </r>
       <r>   -24.6618     0.0000     3.0000 </r>
       <r>   -24.5133     0.0000     3.0000 </r>
       <r>   -24.3647     0.0000     3.0000 </r>
       <r>   -24.2162     0.0000     3.0000 </r>
       <r>   -24.0676     0.0000     3.0000 </r>
       <r>   -23.9190     0.0000     3.0000 </r>
       <r>   -23.7705     0.0000     3.0000 </r>
       <r>   -23.6219     0.0000     3.0000 </r>
       <r>   -23.4733     0.0000     3.0000 </r>
       <r>   -23.3248     0.0000     3.0000 </r>
       <r>   -23.1762     0.0000     3.0000 </r>
       <r>   -23.0276     0.0000     3.0000 </r>
       <r>   -22.8791     0.0000     3.0000 </r>
       <r>   -22.7305     0.0000     3.0000 </r>
       <r>   -22.5820     0.0000     3.0000 </r>
       <r>   -22.4334     0.0000     3.0000 </r>
       <r>   -22.2848     0.0000     3.0000 </r>
       <r>   -22.1363     0.0000     3.0000 </r>
       <r>   -21.9877     0.0000     3.0000 </r>
       <r>   -21.8391     0.0000     3.0000 </r>
       <r>   -21.6906     0.0000     3.0000 </r>
       <r>   -21.5420     0.0000     3.0000 </r>
       <r>   -21.3934     0.0000     3.0000 </r>
       <r>   -21.2449     0.0000     3.0000 </r>
       <r>   -21.0963     0.0000     3.0000 </r>
       <r>   -20.9478     0.0000     3.0000 </r>
       <r>   -20.7992     0.0000     3.0000 </r>
       <r>   -20.6506     0.0000     3.0000 </r>
       <r>   -20.5021     0.0000     3.0000 </r>
       <r>   -20.3535     0.0000     3.0000 </r>
       <r>   -20.2049     0.0000     3.0000 </r>
       <r>   -20.0564     0.0000     3.0000 </r>
       <r>   -19.9078     0.0000     3.0000 </r>
       <r>   -19.7592     0.0000     3.0000 </r>
       <r>   -19.6107     0.0000     3.0000 </r>
       <r>   -19.4621     0.0000     3.0000 </r>
       <r>   -19.3136     0.0000     3.0000 </r>
       <r>   -19.1650     0.0000     3.0000 </r>
       <r>   -19.0164     0.0000     3.0000 </r>
       <r>   -18.8679     0.0000     3.0000 </r>
       <r>   -18.7193     0.0000     3.0000 </r>
       <r>   -18.5707     0.0000     3.0000 </r>
       <r>   -18.4222     0.0000     3.0000 </r>
       <r>   -18.2736     0.0000     3.0000 </r>
       <r>   -18.1250     0.0000     3.0000 </r>
       <r>   -17.9765     0.0000     3.0000 </r>
       <r>   -17.8279     0.0000     3.0000 </r>
       <r>   -17.6794     0.0000     3.0000 </r>
       <r>   -17.5308     0.0000     3.0000 </r>
       <r>   -17.3822     0.0000     3.0000 </r>
       <r>   -17.2337     0.0000     3.0000 </r>
       <r>   -17.0851     0.0000     3.0000 </r>
       <r>   -16.9365     0.0000     3.0000 </r>
       <r>   -16.7880     0.0000     3.0000 </r>
       <r>   -16.6394     0.0000     3.0000 </r>
       <r>   -16.4908     0.0000     3.0000 </r>
       <r>   -16.3423     0.0000     3.0000 </r>
       <r>   -16.1937     0.0000     3.0000 </r>
       <r>   -16.0452     0.0000     3.0000 </r>
       <r>   -15.8966     0.0000     3.0000 </r>
       <r>   -15.7480     0.0000     3.0000 </r>
       <r>   -15.5995     0.0000     3.0000 </r>
       <r>   -15.4509     0.0000     3.0000 </r>
       <r>   -15.3023     0.0000     3.0000 </r>
       <r>   -15.1538     0.0000     3.0000 </r>
       <r>   -15.0052     0.0000     3.0000 </r>
       <r>   -14.8566     0.0000     3.0000 </r>
       <r>   -14.7081     0.0000     3.0000 </r>
       <r>   -14.5595     0.0000     3.0000 </r>
       <r>   -14.4110     0.0000     3.0000 </r>
       <r>   -14.2624     0.0000     3.0000 </r>
       <r>   -14.1138     0.0000     3.0000 </r>
       <r>   -13.9653     0.0000     3.0000 </r>
       <r>   -13.8167     0.0000     3.0000 </r>
       <r>   -13.6681     0.0000     3.0000 </r>
       <r>   -13.5196     0.0000     3.0000 </r>
       <r>   -13.3710     0.0000     3.0000 </r>
       <r>   -13.2224     0.0000     3.0000 </r>
       <r>   -13.0739     0.0000     3.0000 </r>
       <r>   -12.9253     0.0000     3.0000 </r>
       <r>   -12.7768     0.0000     3.0000 </r>
       <r>   -12.6282     0.0000     3.0000 </r>
       <r>   -12.4796     0.0000     3.0000 </r>
       <r>   -12.3311     0.0000     3.0000 </r>
       <r>   -12.1825     0.0000     3.0000 </r>
       <r>   -12.0339     0.0000     3.0000 </r>
       <r>   -11.8854     0.0000     3.0000 </r>
       <r>   -11.7368     0.0000     3.0000 </r>
       <r>   -11.5882     0.0000     3.0000 </r>
       <r>   -11.4397     0.0000     3.0000 </r>
       <r>   -11.2911     0.0000     3.0000 </r>
       <r>   -11.1426     0.0000     3.0000 </r>
       <r>   -10.9940     0.0000     3.0000 </r>
       <r>   -10.8454     0.0000     3.0000 </r>
       <r>   -10.6969     0.0000     3.0000 </r>
       <r>   -10.5483     0.0000     3.0000 </r>
       <r>   -10.3997     0.0000     3.0000 </r>
       <r>   -10.2512     0.0000     3.0000 </r>
       <r>   -10.1026     0.0000     3.0000 </r>
       <r>    -9.9540     0.0000     3.0000 </r>
       <r>    -9.8055     0.0000     3.0000 </r>
       <r>    -9.6569     0.0000     3.0000 </r>
       <r>    -9.5084     0.0000     3.0000 </r>
       <r>    -9.3598     0.0000     3.0000 </r>
       <r>    -9.2112     0.0000     3.0000 </r>
       <r>    -9.0627     0.0000     3.0000 </r>
       <r>    -8.9141     0.0000     3.0000 </r>
       <r>    -8.7655     0.0000     3.0000 </r>
       <r>    -8.6170     0.0000     3.0000 </r>
       <r>    -8.4684     0.0000     3.0000 </r>
       <r>    -8.3198     0.0000     3.0000 </r>
       <r>    -8.1713     0.0000     3.0000 </r>
       <r>    -8.0227     0.0000     3.0000 </r>
       <r>    -7.8742     0.0000     3.0000 </r>
       <r>    -7.7256     0.0000     3.0000 </r>
       <r>    -7.5770     0.0000     3.0000 </r>
       <r>    -7.4285     0.0000     3.0000 </r>
       <r>    -7.2799     0.0000     3.0000 </r>
       <r>    -7.1313     0.0000     3.0000 </r>
       <r>    -6.9828     0.0000     3.0000 </r>
       <r>    -6.8342     0.0000     3.0000 </r>
       <r>    -6.6856     0.0000     3.0000 </r>
       <r>    -6.5371     0.0000     3.0000 </r>
       <r>    -6.3885     0.0000     3.0000 </r>
       <r>    -6.2400     0.0000     3.0000 </r>
       <r>    -6.0914     0.0000     3.0000 </r>
       <r>    -5.9428     0.0000     3.0000 </r>
       <r>    -5.7943     0.0000     3.0000 </r>
       <r>    -5.6457     0.0000     3.0000 </r>
       <r>    -5.4971     0.0000     3.0000 </r>
       <r>    -5.3486     0.0000     3.0000 </r>
       <r>    -5.2000     0.0886     3.0132 </r>
       <r>    -5.0514     6.4822     3.9762 </r>
       <r>    -4.9029     0.1603     4.0000 </r>
       <r>    -4.7543     0.0000     4.0000 </r>
       <r>    -4.6058     0.0000     4.0000 </r>
       <r>    -4.4572     0.0000     4.0000 </r>
       <r>    -4.3086     0.0000     4.0000 </r>
       <r>    -4.1601     0.0000     4.0000 </r>
       <r>    -4.0115     0.0000     4.0000 </r>
       <r>    -3.8629     0.0000     4.0000 </r>
       <r>    -3.7144     0.0000     4.0000 </r>
       <r>    -3.5658     0.0000     4.0000 </r>
       <r>    -3.4172     0.0000     4.0000 </r>
       <r>    -3.2687     0.0000     4.0000 </r>
       <r>    -3.1201     0.0005     4.0001 </r>
       <r>    -2.9716    11.3777     5.6904 </r>
       <r>    -2.8230     8.8150     7.0000 </r>
       <r>    -2.6744     0.0001     7.0000 </r>
       <r>    -2.5259     2.5660     7.3812 </r>
       <r>    -2.3773    10.8903     8.9991 </r>
       <r>    -2.2287     0.0059     9.0000 </r>
       <r>    -2.0802     0.0000     9.0000 </r>
       <r>    -1.9316     0.0000     9.0000 </r>
       <r>    -1.7830     0.0000     9.0000 </r>
       <r>    -1.6345     0.0000     9.0000 </r>
       <r>    -1.4859     0.0000     9.0000 </r>
       <r>    -1.3374     0.0060     9.0009 </r>
       <r>    -1.1888    15.7057    11.3342 </r>
       <r>    -1.0402     4.4818    12.0000 </r>
       <r>    -0.8917     0.0000    12.0000 </r>
       <r>    -0.7431     0.0000    12.0000 </r>
       <r>    -0.5945     0.0000    12.0000 </r>
       <r>    -0.4460     0.0000    12.0000 </r>
       <r>    -0.2974     1.1544    12.1715 </r>
       <r>    -0.1488     5.5729    12.9994 </r>
       <r>    -0.0003     0.0038    13.0000 </r>
       <r>     0.1483     0.0000    13.0000 </r>
       <r>     0.2968     0.0000    13.0000 </r>
       <r>     0.4454     0.0000    13.0000 </r>
       <r>     0.5940     0.0000    13.0000 </r>
       <r>     0.7425     0.0001    13.0000 </r>
       <r>     0.8911     5.6286    13.8362 </r>
       <r>     1.0397     7.8331    14.9999 </r>
       <r>     1.1882     0.0004    15.0000 </r>
       <r>     1.3368     0.0000    15.0000 </r>
       <r>     1.4854     0.2219    15.0330 </r>
       <r>     1.6339    19.4040    17.9157 </r>
       <r>     1.7825     5.7545    18.7706 </r>
       <r>     1.9310     1.6573    19.0168 </r>
       <r>     2.0796    19.1139    21.8565 </r>
       <r>     2.2282     1.4007    22.0645 </r>
       <r>     2.3767    19.4613    24.9558 </r>
       <r>     2.5253     5.1053    25.7142 </r>
       <r>     2.6739     8.6538    26.9999 </r>
       <r>     2.8224     0.0008    27.0000 </r>
       <r>     2.9710     0.0000    27.0000 </r>
       <r>     3.1196     0.0000    27.0000 </r>
       <r>     3.2681     0.0012    27.0002 </r>
       <r>     3.4167     4.9776    27.7397 </r>
       <r>     3.5652     2.1610    28.0607 </r>
       <r>     3.7138    16.8967    30.5710 </r>
       <r>     3.8624    22.8165    33.9607 </r>
       <r>     4.0109     0.2647    34.0000 </r>
       <r>     4.1595     0.2097    34.0311 </r>
       <r>     4.3081     6.4562    34.9903 </r>
       <r>     4.4566     0.0655    35.0000 </r>
       <r>     4.6052     3.9961    35.5937 </r>
       <r>     4.7538     2.7347    36.0000 </r>
       <r>     4.9023     0.0000    36.0000 </r>
       <r>     5.0509     0.0000    36.0000 </r>
       <r>     5.1994     0.0000    36.0000 </r>
       <r>     5.3480     0.0000    36.0000 </r>
       <r>     5.4966     0.0000    36.0000 </r>
       <r>     5.6451     0.0000    36.0000 </r>
       <r>     5.7937     0.0000    36.0000 </r>
       <r>     5.9423     0.0000    36.0000 </r>
       <r>     6.0908     0.0000    36.0000 </r>
       <r>     6.2394     0.0000    36.0000 </r>
       <r>     6.3880     0.0000    36.0000 </r>
       <r>     6.5365     0.0000    36.0000 </r>
       <r>     6.6851     0.0000    36.0000 </r>
       <r>     6.8336     0.0000    36.0000 </r>
       <r>     6.9822     0.0000    36.0000 </r>
      </set>
      <set comment="spin 2">
       <r>   -37.5869     0.0000     0.0000 </r>
       <r>   -37.4383     0.0000     0.0000 </r>
       <r>   -37.2897     0.0000     0.0000 </r>
       <r>   -37.1412     0.0000     0.0000 </r>
       <r>   -36.9926     0.0000     0.0000 </r>
       <r>   -36.8441     0.0000     0.0000 </r>
       <r>   -36.6955     0.0000     0.0000 </r>
       <r>   -36.5469     0.0000     0.0000 </r>
       <r>   -36.3984     0.0000     0.0000 </r>
       <r>   -36.2498     0.0000     0.0000 </r>
       <r>   -36.1012     0.0000     0.0000 </r>
       <r>   -35.9527     0.0000     0.0000 </r>
       <r>   -35.8041     0.0000     0.0000 </r>
       <r>   -35.6555     0.0000     0.0000 </r>
       <r>   -35.5070     0.0000     0.0000 </r>
       <r>   -35.3584     0.0000     0.0000 </r>
       <r>   -35.2099     0.0000     0.0000 </r>
       <r>   -35.0613     0.0000     0.0000 </r>
       <r>   -34.9127     0.0001     0.0000 </r>
       <r>   -34.7642     7.9695     1.1840 </r>
       <r>   -34.6156    12.2229     2.9999 </r>
       <r>   -34.4670     0.0008     3.0000 </r>
       <r>   -34.3185     0.0000     3.0000 </r>
       <r>   -34.1699     0.0000     3.0000 </r>
       <r>   -34.0213     0.0000     3.0000 </r>
       <r>   -33.8728     0.0000     3.0000 </r>
       <r>   -33.7242     0.0000     3.0000 </r>
       <r>   -33.5757     0.0000     3.0000 </r>
       <r>   -33.4271     0.0000     3.0000 </r>
       <r>   -33.2785     0.0000     3.0000 </r>
       <r>   -33.1300     0.0000     3.0000 </r>
       <r>   -32.9814     0.0000     3.0000 </r>
       <r>   -32.8328     0.0000     3.0000 </r>
       <r>   -32.6843     0.0000     3.0000 </r>
       <r>   -32.5357     0.0000     3.0000 </r>
       <r>   -32.3871     0.0000     3.0000 </r>
       <r>   -32.2386     0.0000     3.0000 </r>
       <r>   -32.0900     0.0000     3.0000 </r>
       <r>   -31.9415     0.0000     3.0000 </r>
       <r>   -31.7929     0.0000     3.0000 </r>
       <r>   -31.6443     0.0000     3.0000 </r>
       <r>   -31.4958     0.0000     3.0000 </r>
       <r>   -31.3472     0.0000     3.0000 </r>
       <r>   -31.1986     0.0000     3.0000 </r>
       <r>   -31.0501     0.0000     3.0000 </r>
       <r>   -30.9015     0.0000     3.0000 </r>
       <r>   -30.7529     0.0000     3.0000 </r>
       <r>   -30.6044     0.0000     3.0000 </r>
       <r>   -30.4558     0.0000     3.0000 </r>
       <r>   -30.3073     0.0000     3.0000 </r>
       <r>   -30.1587     0.0000     3.0000 </r>
       <r>   -30.0101     0.0000     3.0000 </r>
       <r>   -29.8616     0.0000     3.0000 </r>
       <r>   -29.7130     0.0000     3.0000 </r>
       <r>   -29.5644     0.0000     3.0000 </r>
       <r>   -29.4159     0.0000     3.0000 </r>
       <r>   -29.2673     0.0000     3.0000 </r>
       <r>   -29.1188     0.0000     3.0000 </r>
       <r>   -28.9702     0.0000     3.0000 </r>
       <r>   -28.8216     0.0000     3.0000 </r>
       <r>   -28.6731     0.0000     3.0000 </r>
       <r>   -28.5245     0.0000     3.0000 </r>
       <r>   -28.3759     0.0000     3.0000 </r>
       <r>   -28.2274     0.0000     3.0000 </r>
       <r>   -28.0788     0.0000     3.0000 </r>
       <r>   -27.9302     0.0000     3.0000 </r>
       <r>   -27.7817     0.0000     3.0000 </r>
       <r>   -27.6331     0.0000     3.0000 </r>
       <r>   -27.4846     0.0000     3.0000 </r>
       <r>   -27.3360     0.0000     3.0000 </r>
       <r>   -27.1874     0.0000     3.0000 </r>
       <r>   -27.0389     0.0000     3.0000 </r>
       <r>   -26.8903     0.0000     3.0000 </r>
       <r>   -26.7417     0.0000     3.0000 </r>
       <r>   -26.5932     0.0000     3.0000 </r>
       <r>   -26.4446     0.0000     3.0000 </r>
       <r>   -26.2960     0.0000     3.0000 </r>
       <r>   -26.1475     0.0000     3.0000 </r>
       <r>   -25.9989     0.0000     3.0000 </r>
       <r>   -25.8504     0.0000     3.0000 </r>
       <r>   -25.7018     0.0000     3.0000 </r>
       <r>   -25.5532     0.0000     3.0000 </r>
       <r>   -25.4047     0.0000     3.0000 </r>
       <r>   -25.2561     0.0000     3.0000 </r>
       <r>   -25.1075     0.0000     3.0000 </r>
       <r>   -24.9590     0.0000     3.0000 </r>
       <r>   -24.8104     0.0000     3.0000 </r>
       <r>   -24.6618     0.0000     3.0000 </r>
       <r>   -24.5133     0.0000     3.0000 </r>
       <r>   -24.3647     0.0000     3.0000 </r>
       <r>   -24.2162     0.0000     3.0000 </r>
       <r>   -24.0676     0.0000     3.0000 </r>
       <r>   -23.9190     0.0000     3.0000 </r>
       <r>   -23.7705     0.0000     3.0000 </r>
       <r>   -23.6219     0.0000     3.0000 </r>
       <r>   -23.4733     0.0000     3.0000 </r>
       <r>   -23.3248     0.0000     3.0000 </r>
       <r>   -23.1762     0.0000     3.0000 </r>
       <r>   -23.0276     0.0000     3.0000 </r>
       <r>   -22.8791     0.0000     3.0000 </r>
       <r>   -22.7305     0.0000     3.0000 </r>
       <r>   -22.5820     0.0000     3.0000 </r>
       <r>   -22.4334     0.0000     3.0000 </r>
       <r>   -22.2848     0.0000     3.0000 </r>
       <r>   -22.1363     0.0000     3.0000 </r>
       <r>   -21.9877     0.0000     3.0000 </r>
       <r>   -21.8391     0.0000     3.0000 </r>
       <r>   -21.6906     0.0000     3.0000 </r>
       <r>   -21.5420     0.0000     3.0000 </r>
       <r>   -21.3934     0.0000     3.0000 </r>
       <r>   -21.2449     0.0000     3.0000 </r>
       <r>   -21.0963     0.0000     3.0000 </r>
       <r>   -20.9478     0.0000     3.0000 </r>
       <r>   -20.7992     0.0000     3.0000 </r>
       <r>   -20.6506     0.0000     3.0000 </r>
       <r>   -20.5021     0.0000     3.0000 </r>
       <r>   -20.3535     0.0000     3.0000 </r>
       <r>   -20.2049     0.0000     3.0000 </r>
       <r>   -20.0564     0.0000     3.0000 </r>
       <r>   -19.9078     0.0000     3.0000 </r>
       <r>   -19.7592     0.0000     3.0000 </r>
       <r>   -19.6107     0.0000     3.0000 </r>
       <r>   -19.4621     0.0000     3.0000 </r>
       <r>   -19.3136     0.0000     3.0000 </r>
       <r>   -19.1650     0.0000     3.0000 </r>
       <r>   -19.0164     0.0000     3.0000 </r>
       <r>   -18.8679     0.0000     3.0000 </r>
       <r>   -18.7193     0.0000     3.0000 </r>
       <r>   -18.5707     0.0000     3.0000 </r>
       <r>   -18.4222     0.0000     3.0000 </r>
       <r>   -18.2736     0.0000     3.0000 </r>
       <r>   -18.1250     0.0000     3.0000 </r>
       <r>   -17.9765     0.0000     3.0000 </r>
       <r>   -17.8279     0.0000     3.0000 </r>
       <r>   -17.6794     0.0000     3.0000 </r>
       <r>   -17.5308     0.0000     3.0000 </r>
       <r>   -17.3822     0.0000     3.0000 </r>
       <r>   -17.2337     0.0000     3.0000 </r>
       <r>   -17.0851     0.0000     3.0000 </r>
       <r>   -16.9365     0.0000     3.0000 </r>
       <r>   -16.7880     0.0000     3.0000 </r>
       <r>   -16.6394     0.0000     3.0000 </r>
       <r>   -16.4908     0.0000     3.0000 </r>
       <r>   -16.3423     0.0000     3.0000 </r>
       <r>   -16.1937     0.0000     3.0000 </r>
       <r>   -16.0452     0.0000     3.0000 </r>
       <r>   -15.8966     0.0000     3.0000 </r>
       <r>   -15.7480     0.0000     3.0000 </r>
       <r>   -15.5995     0.0000     3.0000 </r>
       <r>   -15.4509     0.0000     3.0000 </r>
       <r>   -15.3023     0.0000     3.0000 </r>
       <r>   -15.1538     0.0000     3.0000 </r>
       <r>   -15.0052     0.0000     3.0000 </r>
       <r>   -14.8566     0.0000     3.0000 </r>
       <r>   -14.7081     0.0000     3.0000 </r>
       <r>   -14.5595     0.0000     3.0000 </r>
       <r>   -14.4110     0.0000     3.0000 </r>
       <r>   -14.2624     0.0000     3.0000 </r>
       <r>   -14.1138     0.0000     3.0000 </r>
       <r>   -13.9653     0.0000     3.0000 </r>
       <r>   -13.8167     0.0000     3.0000 </r>
       <r>   -13.6681     0.0000     3.0000 </r>
       <r>   -13.5196     0.0000     3.0000 </r>
       <r>   -13.3710     0.0000     3.0000 </r>
       <r>   -13.2224     0.0000     3.0000 </r>
       <r>   -13.0739     0.0000     3.0000 </r>
       <r>   -12.9253     0.0000     3.0000 </r>
       <r>   -12.7768     0.0000     3.0000 </r>
       <r>   -12.6282     0.0000     3.0000 </r>
       <r>   -12.4796     0.0000     3.0000 </r>
       <r>   -12.3311     0.0000     3.0000 </r>
       <r>   -12.1825     0.0000     3.0000 </r>
       <r>   -12.0339     0.0000     3.0000 </r>
       <r>   -11.8854     0.0000     3.0000 </r>
       <r>   -11.7368     0.0000     3.0000 </r>
       <r>   -11.5882     0.0000     3.0000 </r>
       <r>   -11.4397     0.0000     3.0000 </r>
       <r>   -11.2911     0.0000     3.0000 </r>
       <r>   -11.1426     0.0000     3.0000 </r>
       <r>   -10.9940     0.0000     3.0000 </r>
       <r>   -10.8454     0.0000     3.0000 </r>
       <r>   -10.6969     0.0000     3.0000 </r>
       <r>   -10.5483     0.0000     3.0000 </r>
       <r>   -10.3997     0.0000     3.0000 </r>
       <r>   -10.2512     0.0000     3.0000 </r>
       <r>   -10.1026     0.0000     3.0000 </r>
       <r>    -9.9540     0.0000     3.0000 </r>
       <r>    -9.8055     0.0000     3.0000 </r>
       <r>    -9.6569     0.0000     3.0000 </r>
       <r>    -9.5084     0.0000     3.0000 </r>
       <r>    -9.3598     0.0000     3.0000 </r>
       <r>    -9.2112     0.0000     3.0000 </r>
       <r>    -9.0627     0.0000     3.0000 </r>
       <r>    -8.9141     0.0000     3.0000 </r>
       <r>    -8.7655     0.0000     3.0000 </r>
       <r>    -8.6170     0.0000     3.0000 </r>
       <r>    -8.4684     0.0000     3.0000 </r>
       <r>    -8.3198     0.0000     3.0000 </r>
       <r>    -8.1713     0.0000     3.0000 </r>
       <r>    -8.0227     0.0000     3.0000 </r>
       <r>    -7.8742     0.0000     3.0000 </r>
       <r>    -7.7256     0.0000     3.0000 </r>
       <r>    -7.5770     0.0000     3.0000 </r>
       <r>    -7.4285     0.0000     3.0000 </r>
       <r>    -7.2799     0.0000     3.0000 </r>
       <r>    -7.1313     0.0000     3.0000 </r>
       <r>    -6.9828     0.0000     3.0000 </r>
       <r>    -6.8342     0.0000     3.0000 </r>
       <r>    -6.6856     0.0000     3.0000 </r>
       <r>    -6.5371     0.0000     3.0000 </r>
       <r>    -6.3885     0.0000     3.0000 </r>
       <r>    -6.2400     0.0000     3.0000 </r>
       <r>    -6.0914     0.0000     3.0000 </r>
       <r>    -5.9428     0.0000     3.0000 </r>
       <r>    -5.7943     0.0000     3.0000 </r>
       <r>    -5.6457     0.0000     3.0000 </r>
       <r>    -5.4971     0.0000     3.0000 </r>
       <r>    -5.3486     0.0000     3.0000 </r>
       <r>    -5.2000     0.0000     3.0000 </r>
       <r>    -5.0514     0.0000     3.0000 </r>
       <r>    -4.9029     0.0000     3.0000 </r>
       <r>    -4.7543     0.0000     3.0000 </r>
       <r>    -4.6058     0.0000     3.0000 </r>
       <r>    -4.4572     0.0009     3.0001 </r>
       <r>    -4.3086     4.8056     3.7141 </r>
       <r>    -4.1601     1.9246     4.0000 </r>
       <r>    -4.0115     0.0000     4.0000 </r>
       <r>    -3.8629     0.0000     4.0000 </r>
       <r>    -3.7144     0.0000     4.0000 </r>
       <r>    -3.5658     0.0000     4.0000 </r>
       <r>    -3.4172     0.0000     4.0000 </r>
       <r>    -3.2687     0.0000     4.0000 </r>
       <r>    -3.1201     0.0000     4.0000 </r>
       <r>    -2.9716     0.0000     4.0000 </r>
       <r>    -2.8230     0.0000     4.0000 </r>
       <r>    -2.6744     0.0000     4.0000 </r>
       <r>    -2.5259     0.0000     4.0000 </r>
       <r>    -2.3773     0.0000     4.0000 </r>
       <r>    -2.2287     0.0000     4.0000 </r>
       <r>    -2.0802     0.0960     4.0143 </r>
       <r>    -1.9316    12.8287     5.9201 </r>
       <r>    -1.7830     0.5387     6.0002 </r>
       <r>    -1.6345    12.9341     7.9217 </r>
       <r>    -1.4859     7.2580     9.0000 </r>
       <r>    -1.3374     0.0001     9.0000 </r>
       <r>    -1.1888     0.0000     9.0000 </r>
       <r>    -1.0402     0.0000     9.0000 </r>
       <r>    -0.8917     0.0020     9.0003 </r>
       <r>    -0.7431    13.8514    11.0581 </r>
       <r>    -0.5945     6.3399    12.0000 </r>
       <r>    -0.4460     0.0000    12.0000 </r>
       <r>    -0.2974     0.0106    12.0016 </r>
       <r>    -0.1488     6.0093    12.8943 </r>
       <r>    -0.0003     0.7112    13.0000 </r>
       <r>     0.1483     0.0000    13.0000 </r>
       <r>     0.2968     0.0000    13.0000 </r>
       <r>     0.4454     0.0000    13.0000 </r>
       <r>     0.5940     0.0000    13.0000 </r>
       <r>     0.7425     0.0000    13.0000 </r>
       <r>     0.8911     2.2619    13.3360 </r>
       <r>     1.0397    11.1923    14.9988 </r>
       <r>     1.1882     0.0080    15.0000 </r>
       <r>     1.3368     0.0000    15.0000 </r>
       <r>     1.4854     0.0001    15.0000 </r>
       <r>     1.6339     8.1820    16.2156 </r>
       <r>     1.7825    14.4130    18.3568 </r>
       <r>     1.9310     4.3290    18.9999 </r>
       <r>     2.0796     0.0004    19.0000 </r>
       <r>     2.2282     5.0887    19.7560 </r>
       <r>     2.3767    31.8371    24.4858 </r>
       <r>     2.5253    11.6033    26.2097 </r>
       <r>     2.6739     5.3198    27.0000 </r>
       <r>     2.8224     0.0001    27.0000 </r>
       <r>     2.9710     0.0000    27.0000 </r>
       <r>     3.1196     0.0000    27.0000 </r>
       <r>     3.2681     0.0000    27.0000 </r>
       <r>     3.4167     0.0000    27.0000 </r>
       <r>     3.5652     0.1132    27.0168 </r>
       <r>     3.7138     9.9426    28.4939 </r>
       <r>     3.8624    37.1339    34.0107 </r>
       <r>     4.0109     6.6592    35.0000 </r>
       <r>     4.1595     0.0001    35.0000 </r>
       <r>     4.3081     0.0000    35.0000 </r>
       <r>     4.4566     0.0000    35.0000 </r>
       <r>     4.6052     0.0000    35.0000 </r>
       <r>     4.7538     0.0000    35.0000 </r>
       <r>     4.9023     0.4258    35.0633 </r>
       <r>     5.0509     6.2801    35.9963 </r>
       <r>     5.1994     0.0252    36.0000 </r>
       <r>     5.3480     0.0000    36.0000 </r>
       <r>     5.4966     0.0000    36.0000 </r>
       <r>     5.6451     0.0000    36.0000 </r>
       <r>     5.7937     0.0000    36.0000 </r>
       <r>     5.9423     0.0000    36.0000 </r>
       <r>     6.0908     0.0000    36.0000 </r>
       <r>     6.2394     0.0000    36.0000 </r>
       <r>     6.3880     0.0000    36.0000 </r>
       <r>     6.5365     0.0000    36.0000 </r>
       <r>     6.6851     0.0000    36.0000 </r>
       <r>     6.8336     0.0000    36.0000 </r>
       <r>     6.9822     0.0000    36.0000 </r>
      </set>
     </set>
    </array>
   </total>
   <partial>
    <array>
     <dimension dim="1">gridpoints</dimension>
     <dimension dim="2">spin</dimension>
     <dimension dim="3">ion</dimension>
     <field>energy</field>
     <field>    s</field>
     <field>   py</field>
     <field>   pz</field>
     <field>   px</field>
     <field>  dxy</field>
     <field>  dyz</field>
     <field>  dz2</field>
     <field>  dxz</field>
     <field>x2-y2</field>
     <set>
      <set comment="ion 1">
       <set comment="spin 1">
        <r>   -37.5869     0.0000     0.0000     0.0000     0.0000     0.0000     0.0000     0.0000     0.0000     0.0000 </r>
        <r>   -37.4383     0.0000     0.0000     0.0000     0.0000     0.0000     0.0000     0.0000     0.0000     0.0000 </r>
        <r>   -37.2897     0.0000     0.0000     0.0000     0.0000     0.0000     0.0000     0.0000     0.0000     0.0000 </r>
        <r>   -37.1412     0.0000     0.0000     0.0000     0.0000     0.0000     0.0000     0.0000     0.0000     0.0000 </r>
        <r>   -36.9926     0.0000     0.0000     0.0000     0.0000     0.0000     0.0000     0.0000     0.0000     0.0000 </r>
        <r>   -36.8441     0.0000     0.0000     0.0000     0.0000     0.0000     0.0000     0.0000     0.0000     0.0000 </r>
        <r>   -36.6955     0.0000     0.0000     0.0000     0.0000     0.0000     0.0000     0.0000     0.0000     0.0000 </r>
        <r>   -36.5469     0.0000     0.0000     0.0000     0.0000     0.0000     0.0000     0.0000     0.0000     0.0000 </r>
        <r>   -36.3984     0.0000     0.0000     0.0000     0.0000     0.0000     0.0000     0.0000     0.0000     0.0000 </r>
        <r>   -36.2498     0.0000     0.0000     0.0000     0.0000     0.0000     0.0000     0.0000     0.0000     0.0000 </r>
        <r>   -36.1012     0.0000     0.0000     0.0000     0.0000     0.0000     0.0000     0.0000     0.0000     0.0000 </r>
        <r>   -35.9527     0.0000     0.0000     0.0000     0.0000     0.0000     0.0000     0.0000     0.0000     0.0000 </r>
        <r>   -35.8041     0.0000     0.0000     0.0000     0.0000     0.0000     0.0000     0.0000     0.0000     0.0000 </r>
        <r>   -35.6555     0.0000     0.0249     0.0249     0.0247     0.0000     0.0000     0.0000     0.0000     0.0000 </r>
        <r>   -35.5070     0.0000     6.1875     6.1875     6.1855     0.0000     0.0000     0.0000     0.0000     0.0000 </r>
        <r>   -35.3584     0.0000     0.4195     0.4195     0.4217     0.0000     0.0000     0.0000     0.0000     0.0000 </r>
        <r>   -35.2099     0.0000     0.0000     0.0000     0.0000     0.0000     0.0000     0.0000     0.0000     0.0000 </r>
        <r>   -35.0613     0.0000     0.0000     0.0000     0.0000     0.0000     0.0000     0.0000     0.0000     0.0000 </r>
        <r>   -34.9127     0.0000     0.0000     0.0000     0.0000     0.0000     0.0000     0.0000     0.0000     0.0000 </r>
        <r>   -34.7642     0.0000     0.0000     0.0000     0.0000     0.0000     0.0000     0.0000     0.0000     0.0000 </r>
        <r>   -34.6156     0.0000     0.0000     0.0000     0.0000     0.0000     0.0000     0.0000     0.0000     0.0000 </r>
        <r>   -34.4670     0.0000     0.0000     0.0000     0.0000     0.0000     0.0000     0.0000     0.0000     0.0000 </r>
        <r>   -34.3185     0.0000     0.0000     0.0000     0.0000     0.0000     0.0000     0.0000     0.0000     0.0000 </r>
        <r>   -34.1699     0.0000     0.0000     0.0000     0.0000     0.0000     0.0000     0.0000     0.0000     0.0000 </r>
        <r>   -34.0213     0.0000     0.0000     0.0000     0.0000     0.0000     0.0000     0.0000     0.0000     0.0000 </r>
        <r>   -33.8728     0.0000     0.0000     0.0000     0.0000     0.0000     0.0000     0.0000     0.0000     0.0000 </r>
        <r>   -33.7242     0.0000     0.0000     0.0000     0.0000     0.0000     0.0000     0.0000     0.0000     0.0000 </r>
        <r>   -33.5757     0.0000     0.0000     0.0000     0.0000     0.0000     0.0000     0.0000     0.0000     0.0000 </r>
        <r>   -33.4271     0.0000     0.0000     0.0000     0.0000     0.0000     0.0000     0.0000     0.0000     0.0000 </r>
        <r>   -33.2785     0.0000     0.0000     0.0000     0.0000     0.0000     0.0000     0.0000     0.0000     0.0000 </r>
        <r>   -33.1300     0.0000     0.0000     0.0000     0.0000     0.0000     0.0000     0.0000     0.0000     0.0000 </r>
        <r>   -32.9814     0.0000     0.0000     0.0000     0.0000     0.0000     0.0000     0.0000     0.0000     0.0000 </r>
        <r>   -32.8328     0.0000     0.0000     0.0000     0.0000     0.0000     0.0000     0.0000     0.0000     0.0000 </r>
        <r>   -32.6843     0.0000     0.0000     0.0000     0.0000     0.0000     0.0000     0.0000     0.0000     0.0000 </r>
        <r>   -32.5357     0.0000     0.0000     0.0000     0.0000     0.0000     0.0000     0.0000     0.0000     0.0000 </r>
        <r>   -32.3871     0.0000     0.0000     0.0000     0.0000     0.0000     0.0000     0.0000     0.0000     0.0000 </r>
        <r>   -32.2386     0.0000     0.0000     0.0000     0.0000     0.0000     0.0000     0.0000     0.0000     0.0000 </r>
        <r>   -32.0900     0.0000     0.0000     0.0000     0.0000     0.0000     0.0000     0.0000     0.0000     0.0000 </r>
        <r>   -31.9415     0.0000     0.0000     0.0000     0.0000     0.0000     0.0000     0.0000     0.0000     0.0000 </r>
        <r>   -31.7929     0.0000     0.0000     0.0000     0.0000     0.0000     0.0000     0.0000     0.0000     0.0000 </r>
        <r>   -31.6443     0.0000     0.0000     0.0000     0.0000     0.0000     0.0000     0.0000     0.0000     0.0000 </r>
        <r>   -31.4958     0.0000     0.0000     0.0000     0.0000     0.0000     0.0000     0.0000     0.0000     0.0000 </r>
        <r>   -31.3472     0.0000     0.0000     0.0000     0.0000     0.0000     0.0000     0.0000     0.0000     0.0000 </r>
        <r>   -31.1986     0.0000     0.0000     0.0000     0.0000     0.0000     0.0000     0.0000     0.0000     0.0000 </r>
        <r>   -31.0501     0.0000     0.0000     0.0000     0.0000     0.0000     0.0000     0.0000     0.0000     0.0000 </r>
        <r>   -30.9015     0.0000     0.0000     0.0000     0.0000     0.0000     0.0000     0.0000     0.0000     0.0000 </r>
        <r>   -30.7529     0.0000     0.0000     0.0000     0.0000     0.0000     0.0000     0.0000     0.0000     0.0000 </r>
        <r>   -30.6044     0.0000     0.0000     0.0000     0.0000     0.0000     0.0000     0.0000     0.0000     0.0000 </r>
        <r>   -30.4558     0.0000     0.0000     0.0000     0.0000     0.0000     0.0000     0.0000     0.0000     0.0000 </r>
        <r>   -30.3073     0.0000     0.0000     0.0000     0.0000     0.0000     0.0000     0.0000     0.0000     0.0000 </r>
        <r>   -30.1587     0.0000     0.0000     0.0000     0.0000     0.0000     0.0000     0.0000     0.0000     0.0000 </r>
        <r>   -30.0101     0.0000     0.0000     0.0000     0.0000     0.0000     0.0000     0.0000     0.0000     0.0000 </r>
        <r>   -29.8616     0.0000     0.0000     0.0000     0.0000     0.0000     0.0000     0.0000     0.0000     0.0000 </r>
        <r>   -29.7130     0.0000     0.0000     0.0000     0.0000     0.0000     0.0000     0.0000     0.0000     0.0000 </r>
        <r>   -29.5644     0.0000     0.0000     0.0000     0.0000     0.0000     0.0000     0.0000     0.0000     0.0000 </r>
        <r>   -29.4159     0.0000     0.0000     0.0000     0.0000     0.0000     0.0000     0.0000     0.0000     0.0000 </r>
        <r>   -29.2673     0.0000     0.0000     0.0000     0.0000     0.0000     0.0000     0.0000     0.0000     0.0000 </r>
        <r>   -29.1188     0.0000     0.0000     0.0000     0.0000     0.0000     0.0000     0.0000     0.0000     0.0000 </r>
        <r>   -28.9702     0.0000     0.0000     0.0000     0.0000     0.0000     0.0000     0.0000     0.0000     0.0000 </r>
        <r>   -28.8216     0.0000     0.0000     0.0000     0.0000     0.0000     0.0000     0.0000     0.0000     0.0000 </r>
        <r>   -28.6731     0.0000     0.0000     0.0000     0.0000     0.0000     0.0000     0.0000     0.0000     0.0000 </r>
        <r>   -28.5245     0.0000     0.0000     0.0000     0.0000     0.0000     0.0000     0.0000     0.0000     0.0000 </r>
        <r>   -28.3759     0.0000     0.0000     0.0000     0.0000     0.0000     0.0000     0.0000     0.0000     0.0000 </r>
        <r>   -28.2274     0.0000     0.0000     0.0000     0.0000     0.0000     0.0000     0.0000     0.0000     0.0000 </r>
        <r>   -28.0788     0.0000     0.0000     0.0000     0.0000     0.0000     0.0000     0.0000     0.0000     0.0000 </r>
        <r>   -27.9302     0.0000     0.0000     0.0000     0.0000     0.0000     0.0000     0.0000     0.0000     0.0000 </r>
        <r>   -27.7817     0.0000     0.0000     0.0000     0.0000     0.0000     0.0000     0.0000     0.0000     0.0000 </r>
        <r>   -27.6331     0.0000     0.0000     0.0000     0.0000     0.0000     0.0000     0.0000     0.0000     0.0000 </r>
        <r>   -27.4846     0.0000     0.0000     0.0000     0.0000     0.0000     0.0000     0.0000     0.0000     0.0000 </r>
        <r>   -27.3360     0.0000     0.0000     0.0000     0.0000     0.0000     0.0000     0.0000     0.0000     0.0000 </r>
        <r>   -27.1874     0.0000     0.0000     0.0000     0.0000     0.0000     0.0000     0.0000     0.0000     0.0000 </r>
        <r>   -27.0389     0.0000     0.0000     0.0000     0.0000     0.0000     0.0000     0.0000     0.0000     0.0000 </r>
        <r>   -26.8903     0.0000     0.0000     0.0000     0.0000     0.0000     0.0000     0.0000     0.0000     0.0000 </r>
        <r>   -26.7417     0.0000     0.0000     0.0000     0.0000     0.0000     0.0000     0.0000     0.0000     0.0000 </r>
        <r>   -26.5932     0.0000     0.0000     0.0000     0.0000     0.0000     0.0000     0.0000     0.0000     0.0000 </r>
        <r>   -26.4446     0.0000     0.0000     0.0000     0.0000     0.0000     0.0000     0.0000     0.0000     0.0000 </r>
        <r>   -26.2960     0.0000     0.0000     0.0000     0.0000     0.0000     0.0000     0.0000     0.0000     0.0000 </r>
        <r>   -26.1475     0.0000     0.0000     0.0000     0.0000     0.0000     0.0000     0.0000     0.0000     0.0000 </r>
        <r>   -25.9989     0.0000     0.0000     0.0000     0.0000     0.0000     0.0000     0.0000     0.0000     0.0000 </r>
        <r>   -25.8504     0.0000     0.0000     0.0000     0.0000     0.0000     0.0000     0.0000     0.0000     0.0000 </r>
        <r>   -25.7018     0.0000     0.0000     0.0000     0.0000     0.0000     0.0000     0.0000     0.0000     0.0000 </r>
        <r>   -25.5532     0.0000     0.0000     0.0000     0.0000     0.0000     0.0000     0.0000     0.0000     0.0000 </r>
        <r>   -25.4047     0.0000     0.0000     0.0000     0.0000     0.0000     0.0000     0.0000     0.0000     0.0000 </r>
        <r>   -25.2561     0.0000     0.0000     0.0000     0.0000     0.0000     0.0000     0.0000     0.0000     0.0000 </r>
        <r>   -25.1075     0.0000     0.0000     0.0000     0.0000     0.0000     0.0000     0.0000     0.0000     0.0000 </r>
        <r>   -24.9590     0.0000     0.0000     0.0000     0.0000     0.0000     0.0000     0.0000     0.0000     0.0000 </r>
        <r>   -24.8104     0.0000     0.0000     0.0000     0.0000     0.0000     0.0000     0.0000     0.0000     0.0000 </r>
        <r>   -24.6618     0.0000     0.0000     0.0000     0.0000     0.0000     0.0000     0.0000     0.0000     0.0000 </r>
        <r>   -24.5133     0.0000     0.0000     0.0000     0.0000     0.0000     0.0000     0.0000     0.0000     0.0000 </r>
        <r>   -24.3647     0.0000     0.0000     0.0000     0.0000     0.0000     0.0000     0.0000     0.0000     0.0000 </r>
        <r>   -24.2162     0.0000     0.0000     0.0000     0.0000     0.0000     0.0000     0.0000     0.0000     0.0000 </r>
        <r>   -24.0676     0.0000     0.0000     0.0000     0.0000     0.0000     0.0000     0.0000     0.0000     0.0000 </r>
        <r>   -23.9190     0.0000     0.0000     0.0000     0.0000     0.0000     0.0000     0.0000     0.0000     0.0000 </r>
        <r>   -23.7705     0.0000     0.0000     0.0000     0.0000     0.0000     0.0000     0.0000     0.0000     0.0000 </r>
        <r>   -23.6219     0.0000     0.0000     0.0000     0.0000     0.0000     0.0000     0.0000     0.0000     0.0000 </r>
        <r>   -23.4733     0.0000     0.0000     0.0000     0.0000     0.0000     0.0000     0.0000     0.0000     0.0000 </r>
        <r>   -23.3248     0.0000     0.0000     0.0000     0.0000     0.0000     0.0000     0.0000     0.0000     0.0000 </r>
        <r>   -23.1762     0.0000     0.0000     0.0000     0.0000     0.0000     0.0000     0.0000     0.0000     0.0000 </r>
        <r>   -23.0276     0.0000     0.0000     0.0000     0.0000     0.0000     0.0000     0.0000     0.0000     0.0000 </r>
        <r>   -22.8791     0.0000     0.0000     0.0000     0.0000     0.0000     0.0000     0.0000     0.0000     0.0000 </r>
        <r>   -22.7305     0.0000     0.0000     0.0000     0.0000     0.0000     0.0000     0.0000     0.0000     0.0000 </r>
        <r>   -22.5820     0.0000     0.0000     0.0000     0.0000     0.0000     0.0000     0.0000     0.0000     0.0000 </r>
        <r>   -22.4334     0.0000     0.0000     0.0000     0.0000     0.0000     0.0000     0.0000     0.0000     0.0000 </r>
        <r>   -22.2848     0.0000     0.0000     0.0000     0.0000     0.0000     0.0000     0.0000     0.0000     0.0000 </r>
        <r>   -22.1363     0.0000     0.0000     0.0000     0.0000     0.0000     0.0000     0.0000     0.0000     0.0000 </r>
        <r>   -21.9877     0.0000     0.0000     0.0000     0.0000     0.0000     0.0000     0.0000     0.0000     0.0000 </r>
        <r>   -21.8391     0.0000     0.0000     0.0000     0.0000     0.0000     0.0000     0.0000     0.0000     0.0000 </r>
        <r>   -21.6906     0.0000     0.0000     0.0000     0.0000     0.0000     0.0000     0.0000     0.0000     0.0000 </r>
        <r>   -21.5420     0.0000     0.0000     0.0000     0.0000     0.0000     0.0000     0.0000     0.0000     0.0000 </r>
        <r>   -21.3934     0.0000     0.0000     0.0000     0.0000     0.0000     0.0000     0.0000     0.0000     0.0000 </r>
        <r>   -21.2449     0.0000     0.0000     0.0000     0.0000     0.0000     0.0000     0.0000     0.0000     0.0000 </r>
        <r>   -21.0963     0.0000     0.0000     0.0000     0.0000     0.0000     0.0000     0.0000     0.0000     0.0000 </r>
        <r>   -20.9478     0.0000     0.0000     0.0000     0.0000     0.0000     0.0000     0.0000     0.0000     0.0000 </r>
        <r>   -20.7992     0.0000     0.0000     0.0000     0.0000     0.0000     0.0000     0.0000     0.0000     0.0000 </r>
        <r>   -20.6506     0.0000     0.0000     0.0000     0.0000     0.0000     0.0000     0.0000     0.0000     0.0000 </r>
        <r>   -20.5021     0.0000     0.0000     0.0000     0.0000     0.0000     0.0000     0.0000     0.0000     0.0000 </r>
        <r>   -20.3535     0.0000     0.0000     0.0000     0.0000     0.0000     0.0000     0.0000     0.0000     0.0000 </r>
        <r>   -20.2049     0.0000     0.0000     0.0000     0.0000     0.0000     0.0000     0.0000     0.0000     0.0000 </r>
        <r>   -20.0564     0.0000     0.0000     0.0000     0.0000     0.0000     0.0000     0.0000     0.0000     0.0000 </r>
        <r>   -19.9078     0.0000     0.0000     0.0000     0.0000     0.0000     0.0000     0.0000     0.0000     0.0000 </r>
        <r>   -19.7592     0.0000     0.0000     0.0000     0.0000     0.0000     0.0000     0.0000     0.0000     0.0000 </r>
        <r>   -19.6107     0.0000     0.0000     0.0000     0.0000     0.0000     0.0000     0.0000     0.0000     0.0000 </r>
        <r>   -19.4621     0.0000     0.0000     0.0000     0.0000     0.0000     0.0000     0.0000     0.0000     0.0000 </r>
        <r>   -19.3136     0.0000     0.0000     0.0000     0.0000     0.0000     0.0000     0.0000     0.0000     0.0000 </r>
        <r>   -19.1650     0.0000     0.0000     0.0000     0.0000     0.0000     0.0000     0.0000     0.0000     0.0000 </r>
        <r>   -19.0164     0.0000     0.0000     0.0000     0.0000     0.0000     0.0000     0.0000     0.0000     0.0000 </r>
        <r>   -18.8679     0.0000     0.0000     0.0000     0.0000     0.0000     0.0000     0.0000     0.0000     0.0000 </r>
        <r>   -18.7193     0.0000     0.0000     0.0000     0.0000     0.0000     0.0000     0.0000     0.0000     0.0000 </r>
        <r>   -18.5707     0.0000     0.0000     0.0000     0.0000     0.0000     0.0000     0.0000     0.0000     0.0000 </r>
        <r>   -18.4222     0.0000     0.0000     0.0000     0.0000     0.0000     0.0000     0.0000     0.0000     0.0000 </r>
        <r>   -18.2736     0.0000     0.0000     0.0000     0.0000     0.0000     0.0000     0.0000     0.0000     0.0000 </r>
        <r>   -18.1250     0.0000     0.0000     0.0000     0.0000     0.0000     0.0000     0.0000     0.0000     0.0000 </r>
        <r>   -17.9765     0.0000     0.0000     0.0000     0.0000     0.0000     0.0000     0.0000     0.0000     0.0000 </r>
        <r>   -17.8279     0.0000     0.0000     0.0000     0.0000     0.0000     0.0000     0.0000     0.0000     0.0000 </r>
        <r>   -17.6794     0.0000     0.0000     0.0000     0.0000     0.0000     0.0000     0.0000     0.0000     0.0000 </r>
        <r>   -17.5308     0.0000     0.0000     0.0000     0.0000     0.0000     0.0000     0.0000     0.0000     0.0000 </r>
        <r>   -17.3822     0.0000     0.0000     0.0000     0.0000     0.0000     0.0000     0.0000     0.0000     0.0000 </r>
        <r>   -17.2337     0.0000     0.0000     0.0000     0.0000     0.0000     0.0000     0.0000     0.0000     0.0000 </r>
        <r>   -17.0851     0.0000     0.0000     0.0000     0.0000     0.0000     0.0000     0.0000     0.0000     0.0000 </r>
        <r>   -16.9365     0.0000     0.0000     0.0000     0.0000     0.0000     0.0000     0.0000     0.0000     0.0000 </r>
        <r>   -16.7880     0.0000     0.0000     0.0000     0.0000     0.0000     0.0000     0.0000     0.0000     0.0000 </r>
        <r>   -16.6394     0.0000     0.0000     0.0000     0.0000     0.0000     0.0000     0.0000     0.0000     0.0000 </r>
        <r>   -16.4908     0.0000     0.0000     0.0000     0.0000     0.0000     0.0000     0.0000     0.0000     0.0000 </r>
        <r>   -16.3423     0.0000     0.0000     0.0000     0.0000     0.0000     0.0000     0.0000     0.0000     0.0000 </r>
        <r>   -16.1937     0.0000     0.0000     0.0000     0.0000     0.0000     0.0000     0.0000     0.0000     0.0000 </r>
        <r>   -16.0452     0.0000     0.0000     0.0000     0.0000     0.0000     0.0000     0.0000     0.0000     0.0000 </r>
        <r>   -15.8966     0.0000     0.0000     0.0000     0.0000     0.0000     0.0000     0.0000     0.0000     0.0000 </r>
        <r>   -15.7480     0.0000     0.0000     0.0000     0.0000     0.0000     0.0000     0.0000     0.0000     0.0000 </r>
        <r>   -15.5995     0.0000     0.0000     0.0000     0.0000     0.0000     0.0000     0.0000     0.0000     0.0000 </r>
        <r>   -15.4509     0.0000     0.0000     0.0000     0.0000     0.0000     0.0000     0.0000     0.0000     0.0000 </r>
        <r>   -15.3023     0.0000     0.0000     0.0000     0.0000     0.0000     0.0000     0.0000     0.0000     0.0000 </r>
        <r>   -15.1538     0.0000     0.0000     0.0000     0.0000     0.0000     0.0000     0.0000     0.0000     0.0000 </r>
        <r>   -15.0052     0.0000     0.0000     0.0000     0.0000     0.0000     0.0000     0.0000     0.0000     0.0000 </r>
        <r>   -14.8566     0.0000     0.0000     0.0000     0.0000     0.0000     0.0000     0.0000     0.0000     0.0000 </r>
        <r>   -14.7081     0.0000     0.0000     0.0000     0.0000     0.0000     0.0000     0.0000     0.0000     0.0000 </r>
        <r>   -14.5595     0.0000     0.0000     0.0000     0.0000     0.0000     0.0000     0.0000     0.0000     0.0000 </r>
        <r>   -14.4110     0.0000     0.0000     0.0000     0.0000     0.0000     0.0000     0.0000     0.0000     0.0000 </r>
        <r>   -14.2624     0.0000     0.0000     0.0000     0.0000     0.0000     0.0000     0.0000     0.0000     0.0000 </r>
        <r>   -14.1138     0.0000     0.0000     0.0000     0.0000     0.0000     0.0000     0.0000     0.0000     0.0000 </r>
        <r>   -13.9653     0.0000     0.0000     0.0000     0.0000     0.0000     0.0000     0.0000     0.0000     0.0000 </r>
        <r>   -13.8167     0.0000     0.0000     0.0000     0.0000     0.0000     0.0000     0.0000     0.0000     0.0000 </r>
        <r>   -13.6681     0.0000     0.0000     0.0000     0.0000     0.0000     0.0000     0.0000     0.0000     0.0000 </r>
        <r>   -13.5196     0.0000     0.0000     0.0000     0.0000     0.0000     0.0000     0.0000     0.0000     0.0000 </r>
        <r>   -13.3710     0.0000     0.0000     0.0000     0.0000     0.0000     0.0000     0.0000     0.0000     0.0000 </r>
        <r>   -13.2224     0.0000     0.0000     0.0000     0.0000     0.0000     0.0000     0.0000     0.0000     0.0000 </r>
        <r>   -13.0739     0.0000     0.0000     0.0000     0.0000     0.0000     0.0000     0.0000     0.0000     0.0000 </r>
        <r>   -12.9253     0.0000     0.0000     0.0000     0.0000     0.0000     0.0000     0.0000     0.0000     0.0000 </r>
        <r>   -12.7768     0.0000     0.0000     0.0000     0.0000     0.0000     0.0000     0.0000     0.0000     0.0000 </r>
        <r>   -12.6282     0.0000     0.0000     0.0000     0.0000     0.0000     0.0000     0.0000     0.0000     0.0000 </r>
        <r>   -12.4796     0.0000     0.0000     0.0000     0.0000     0.0000     0.0000     0.0000     0.0000     0.0000 </r>
        <r>   -12.3311     0.0000     0.0000     0.0000     0.0000     0.0000     0.0000     0.0000     0.0000     0.0000 </r>
[...]
        <r>     0.2968     0.0000     0.0000     0.0000     0.0000     0.0000     0.0000     0.0000     0.0000     0.0000 </r>
        <r>     0.4454     0.0000     0.0000     0.0000     0.0000     0.0000     0.0000     0.0000     0.0000     0.0000 </r>
        <r>     0.5940     0.0000     0.0000     0.0000     0.0000     0.0000     0.0000     0.0000     0.0000     0.0000 </r>
        <r>     0.7425     0.0000     0.0000     0.0000     0.0000     0.0000     0.0000     0.0000     0.0000     0.0000 </r>
        <r>     0.8911     0.0000     0.0000     0.0000     0.0000     0.0000     0.0000     0.0532     0.0000     0.0531 </r>
        <r>     1.0397     0.0000     0.0000     0.0000     0.0000     0.0000     0.0000     0.2635     0.0000     0.2629 </r>
        <r>     1.1882     0.0000     0.0000     0.0000     0.0000     0.0000     0.0000     0.0002     0.0000     0.0002 </r>
        <r>     1.3368     0.0000     0.0000     0.0000     0.0000     0.0000     0.0000     0.0000     0.0000     0.0000 </r>
        <r>     1.4854     0.0000     0.0000     0.0000     0.0000     0.0000     0.0000     0.0000     0.0000     0.0000 </r>
        <r>     1.6339     0.0001     0.1260     0.1230     0.1221     0.0000     0.0000     0.0000     0.0000     0.0000 </r>
        <r>     1.7825     0.0707     0.1842     0.1796     0.1810     0.0000     0.0000     0.0000     0.0001     0.0000 </r>
        <r>     1.9310     0.1272     0.0001     0.0000     0.0001     0.0000     0.0000     0.0000     0.0000     0.0000 </r>
        <r>     2.0796     0.0000     0.0000     0.0000     0.0000     0.0000     0.0000     0.0000     0.0000     0.0000 </r>
        <r>     2.2282     0.0000     0.0000     0.0000     0.0000     0.1252     0.1245     0.0000     0.1231     0.0000 </r>
        <r>     2.3767     0.0000     0.0001     0.0002     0.0001     0.3687     0.3738     0.0003     0.3758     0.0006 </r>
        <r>     2.5253     0.0000     0.0000     0.0000     0.0000     0.0006     0.0009     0.0701     0.0011     0.0711 </r>
        <r>     2.6739     0.0000     0.0000     0.0000     0.0000     0.0000     0.0000     0.0464     0.0003     0.0457 </r>
        <r>     2.8224     0.0000     0.0000     0.0000     0.0000     0.0000     0.0000     0.0000     0.0000     0.0000 </r>
        <r>     2.9710     0.0000     0.0000     0.0000     0.0000     0.0000     0.0000     0.0000     0.0000     0.0000 </r>
        <r>     3.1196     0.0000     0.0000     0.0000     0.0000     0.0000     0.0000     0.0000     0.0000     0.0000 </r>
        <r>     3.2681     0.0000     0.0000     0.0000     0.0000     0.0000     0.0000     0.0000     0.0000     0.0000 </r>
        <r>     3.4167     0.0000     0.0000     0.0000     0.0000     0.0000     0.0000     0.0000     0.0000     0.0000 </r>
        <r>     3.5652     0.0001     0.0011     0.0006     0.0000     0.0004     0.0000     0.0000     0.0002     0.0000 </r>
        <r>     3.7138     0.0261     0.0741     0.0730     0.0172     0.0286     0.0046     0.0000     0.0189     0.0002 </r>
        <r>     3.8624     0.1590     0.0849     0.2585     0.1628     0.1348     0.0995     0.0015     0.1516     0.0035 </r>
        <r>     4.0109     0.0126     0.0054     0.0049     0.0194     0.0223     0.0869     0.0003     0.0218     0.0008 </r>
        <r>     4.1595     0.0000     0.0000     0.0000     0.0000     0.0000     0.0000     0.0000     0.0000     0.0000 </r>
        <r>     4.3081     0.0000     0.0000     0.0000     0.0000     0.0000     0.0000     0.0000     0.0000     0.0000 </r>
        <r>     4.4566     0.0000     0.0000     0.0000     0.0000     0.0000     0.0000     0.0000     0.0000     0.0000 </r>
        <r>     4.6052     0.0000     0.0000     0.0000     0.0000     0.0000     0.0000     0.0000     0.0000     0.0000 </r>
        <r>     4.7538     0.0000     0.0000     0.0000     0.0000     0.0000     0.0000     0.0000     0.0000     0.0000 </r>
        <r>     4.9023     0.0031     0.0003     0.0012     0.0018     0.0000     0.0000     0.0035     0.0000     0.0134 </r>
        <r>     5.0509     0.0457     0.0046     0.0180     0.0267     0.0004     0.0001     0.0518     0.0002     0.1979 </r>
        <r>     5.1994     0.0002     0.0000     0.0001     0.0001     0.0000     0.0000     0.0002     0.0000     0.0008 </r>
        <r>     5.3480     0.0000     0.0000     0.0000     0.0000     0.0000     0.0000     0.0000     0.0000     0.0000 </r>
        <r>     5.4966     0.0000     0.0000     0.0000     0.0000     0.0000     0.0000     0.0000     0.0000     0.0000 </r>
        <r>     5.6451     0.0000     0.0000     0.0000     0.0000     0.0000     0.0000     0.0000     0.0000     0.0000 </r>
        <r>     5.7937     0.0000     0.0000     0.0000     0.0000     0.0000     0.0000     0.0000     0.0000     0.0000 </r>
        <r>     5.9423     0.0000     0.0000     0.0000     0.0000     0.0000     0.0000     0.0000     0.0000     0.0000 </r>
        <r>     6.0908     0.0000     0.0000     0.0000     0.0000     0.0000     0.0000     0.0000     0.0000     0.0000 </r>
        <r>     6.2394     0.0000     0.0000     0.0000     0.0000     0.0000     0.0000     0.0000     0.0000     0.0000 </r>
        <r>     6.3880     0.0000     0.0000     0.0000     0.0000     0.0000     0.0000     0.0000     0.0000     0.0000 </r>
        <r>     6.5365     0.0000     0.0000     0.0000     0.0000     0.0000     0.0000     0.0000     0.0000     0.0000 </r>
        <r>     6.6851     0.0000     0.0000     0.0000     0.0000     0.0000     0.0000     0.0000     0.0000     0.0000 </r>
        <r>     6.8336     0.0000     0.0000     0.0000     0.0000     0.0000     0.0000     0.0000     0.0000     0.0000 </r>
        <r>     6.9822     0.0000     0.0000     0.0000     0.0000     0.0000     0.0000     0.0000     0.0000     0.0000 </r>
       </set>
      </set>
     </set>
    </array>
   </partial>
  </dos>
  <projected>
   <eigenvalues>
    <array>
     <dimension dim="1">band</dimension>
     <dimension dim="2">kpoint</dimension>
     <dimension dim="3">spin</dimension>
     <field>eigene</field>
     <field>occ</field>
     <set>
      <set comment="spin 1">
       <set comment="kpoint 1">
        <r>  -35.5610    1.0000 </r>
        <r>  -35.5610    1.0000 </r>
        <r>  -35.5609    1.0000 </r>
        <r>   -5.1215    1.0000 </r>
        <r>   -2.9773    0.6673 </r>
        <r>   -2.9772    0.6666 </r>
        <r>   -2.9771    0.6660 </r>
        <r>   -2.4949    0.0000 </r>
        <r>   -2.4949    0.0000 </r>
        <r>   -1.2161    0.0000 </r>
        <r>   -1.2160    0.0000 </r>
        <r>   -1.2155    0.0000 </r>
        <r>   -0.2639    0.0000 </r>
        <r>    0.8984    0.0000 </r>
        <r>    0.8984    0.0000 </r>
        <r>    1.5645    0.0000 </r>
        <r>    1.5670    0.0000 </r>
        <r>    1.5677    0.0000 </r>
        <r>    1.7563    0.0000 </r>
        <r>    2.0206    0.0000 </r>
        <r>    2.0208    0.0000 </r>
        <r>    2.0208    0.0000 </r>
        <r>    2.2985    0.0000 </r>
        <r>    2.2997    0.0000 </r>
        <r>    2.3009    0.0000 </r>
        <r>    2.5375    0.0000 </r>
        <r>    2.5390    0.0000 </r>
        <r>    3.3940    0.0000 </r>
        <r>    3.6201    0.0000 </r>
        <r>    3.6862    0.0000 </r>
        <r>    3.6976    0.0000 </r>
        <r>    3.7636    0.0000 </r>
        <r>    3.7849    0.0000 </r>
        <r>    3.7915    0.0000 </r>
        <r>    4.2254    0.0000 </r>
        <r>    4.5968    0.0000 </r>
       </set>
      </set>
      <set comment="spin 2">
       <set comment="kpoint 1">
        <r>  -34.7547    1.0000 </r>
        <r>  -34.7547    1.0000 </r>
        <r>  -34.7547    1.0000 </r>
        <r>   -4.3286    1.0000 </r>
        <r>   -1.9936    0.0000 </r>
        <r>   -1.9935    0.0000 </r>
        <r>   -1.6473    0.0000 </r>
        <r>   -1.6472    0.0000 </r>
        <r>   -1.6471    0.0000 </r>
        <r>   -0.7603    0.0000 </r>
        <r>   -0.7602    0.0000 </r>
        <r>   -0.7602    0.0000 </r>
        <r>   -0.1930    0.0000 </r>
        <r>    0.9251    0.0000 </r>
        <r>    0.9251    0.0000 </r>
        <r>    1.6422    0.0000 </r>
        <r>    1.6423    0.0000 </r>
        <r>    1.6427    0.0000 </r>
        <r>    1.7955    0.0000 </r>
        <r>    2.2513    0.0000 </r>
        <r>    2.2520    0.0000 </r>
        <r>    2.2523    0.0000 </r>
        <r>    2.3423    0.0000 </r>
        <r>    2.3432    0.0000 </r>
        <r>    2.3440    0.0000 </r>
        <r>    2.5156    0.0000 </r>
        <r>    2.5162    0.0000 </r>
        <r>    3.6404    0.0000 </r>
        <r>    3.7389    0.0000 </r>
        <r>    3.7477    0.0000 </r>
        <r>    3.7647    0.0000 </r>
        <r>    3.7807    0.0000 </r>
        <r>    3.8300    0.0000 </r>
        <r>    3.8390    0.0000 </r>
        <r>    3.8660    0.0000 </r>
        <r>    4.9563    0.0000 </r>
       </set>
      </set>
     </set>
    </array>
   </eigenvalues>
   <array>
    <dimension dim="1">ion</dimension>
    <dimension dim="2">band</dimension>
    <dimension dim="3">kpoint</dimension>
    <dimension dim="4">spin</dimension>
    <field>    s</field>
    <field>   py</field>
    <field>   pz</field>
    <field>   px</field>
    <field>  dxy</field>
    <field>  dyz</field>
    <field>  dz2</field>
    <field>  dxz</field>
    <field>x2-y2</field>
    <set>
     <set comment="spin1">
      <set comment="kpoint 1">
       <set comment="band 1">
        <r>  0.0000  0.9853  0.0000  0.0000  0.0000  0.0000  0.0000  0.0000  0.0000 </r>
       </set>
       <set comment="band 2">
        <r>  0.0000  0.0000  0.9853  0.0000  0.0000  0.0000  0.0000  0.0000  0.0000 </r>
       </set>
       <set comment="band 3">
        <r>  0.0000  0.0000  0.0000  0.9853  0.0000  0.0000  0.0000  0.0000  0.0000 </r>
       </set>
       <set comment="band 4">
        <r>  0.2915  0.0000  0.0000  0.0000  0.0000  0.0000  0.0000  0.0000  0.0000 </r>
       </set>
       <set comment="band 5">
        <r>  0.0000  0.0000  0.0000  0.0000  0.4018  0.2079  0.0000  0.0498  0.0000 </r>
       </set>
       <set comment="band 6">
        <r>  0.0000  0.0000  0.0000  0.0000  0.2171  0.1450  0.0000  0.2974  0.0000 </r>
       </set>
       <set comment="band 7">
        <r>  0.0000  0.0000  0.0000  0.0000  0.0406  0.3066  0.0000  0.3123  0.0000 </r>
       </set>
       <set comment="band 8">
        <r>  0.0000  0.0000  0.0000  0.0000  0.0000  0.0000  0.1223  0.0000  0.5268 </r>
       </set>
       <set comment="band 9">
        <r>  0.0000  0.0000  0.0000  0.0000  0.0000  0.0000  0.5261  0.0000  0.1222 </r>
       </set>
       <set comment="band 10">
        <r>  0.0000  0.1044  0.0519  0.0132  0.0000  0.0000  0.0000  0.0000  0.0000 </r>
       </set>
       <set comment="band 11">
        <r>  0.0000  0.0016  0.0186  0.1486  0.0000  0.0000  0.0000  0.0000  0.0000 </r>
       </set>
       <set comment="band 12">
        <r>  0.0000  0.0629  0.0978  0.0071  0.0000  0.0000  0.0000  0.0000  0.0000 </r>
       </set>
       <set comment="band 13">
        <r>  0.0298  0.0000  0.0000  0.0000  0.0000  0.0000  0.0000  0.0000  0.0000 </r>
       </set>
       <set comment="band 14">
        <r>  0.0000  0.0000  0.0000  0.0000  0.0000  0.0000  0.0007  0.0000  0.0392 </r>
       </set>
       <set comment="band 15">
        <r>  0.0000  0.0000  0.0000  0.0000  0.0000  0.0000  0.0394  0.0000  0.0007 </r>
       </set>
       <set comment="band 16">
        <r>  0.0000  0.0088  0.0166  0.0235  0.0000  0.0000  0.0000  0.0000  0.0000 </r>
       </set>
       <set comment="band 17">
        <r>  0.0000  0.0268  0.0020  0.0192  0.0000  0.0002  0.0000  0.0000  0.0000 </r>
       </set>
       <set comment="band 18">
        <r>  0.0002  0.0134  0.0315  0.0057  0.0000  0.0000  0.0000  0.0000  0.0000 </r>
       </set>
       <set comment="band 19">
        <r>  0.0288  0.0000  0.0003  0.0001  0.0000  0.0000  0.0000  0.0000  0.0000 </r>
       </set>
       <set comment="band 20">
        <r>  0.0000  0.0000  0.0000  0.0001  0.0006  0.0549  0.0000  0.0058  0.0000 </r>
       </set>
       <set comment="band 21">
        <r>  0.0000  0.0001  0.0000  0.0000  0.0322  0.0048  0.0000  0.0245  0.0000 </r>
       </set>
       <set comment="band 22">
        <r>  0.0000  0.0000  0.0000  0.0000  0.0290  0.0015  0.0000  0.0314  0.0000 </r>
       </set>
       <set comment="band 23">
        <r>  0.0000  0.0001  0.0000  0.0003  0.0000  0.0001  0.0000  0.0000  0.0000 </r>
       </set>
       <set comment="band 24">
        <r>  0.0000  0.0000  0.0000  0.0000  0.0000  0.0000  0.0000  0.0000  0.0000 </r>
       </set>
       <set comment="band 25">
        <r>  0.0000  0.0000  0.0000  0.0000  0.0000  0.0000  0.0000  0.0000  0.0000 </r>
       </set>
       <set comment="band 26">
        <r>  0.0000  0.0000  0.0001  0.0000  0.0000  0.0000  0.0141  0.0000  0.0014 </r>
       </set>
       <set comment="band 27">
        <r>  0.0000  0.0000  0.0000  0.0000  0.0000  0.0000  0.0015  0.0000  0.0139 </r>
       </set>
       <set comment="band 28">
        <r>  0.0001  0.0008  0.0011  0.0111  0.0000  0.0005  0.0000  0.0004  0.0000 </r>
       </set>
       <set comment="band 29">
        <r>  0.0004  0.0552  0.0025  0.0037  0.0001  0.0004  0.0001  0.0019  0.0000 </r>
       </set>
       <set comment="band 30">
        <r>  0.0002  0.0015  0.0046  0.0238  0.0000  0.0095  0.0000  0.0019  0.0000 </r>
       </set>
       <set comment="band 31">
        <r>  0.0082  0.0029  0.0028  0.0076  0.0003  0.0020  0.0001  0.0022  0.0002 </r>
       </set>
       <set comment="band 32">
        <r>  0.0003  0.0080  0.0002  0.0000  0.0008  0.0045  0.0000  0.0140  0.0000 </r>
       </set>
       <set comment="band 33">
        <r>  0.0001  0.0000  0.0015  0.0000  0.0205  0.0007  0.0000  0.0005  0.0000 </r>
       </set>
       <set comment="band 34">
        <r>  0.0224  0.0008  0.0036  0.0001  0.0000  0.0000  0.0000  0.0004  0.0000 </r>
       </set>
       <set comment="band 35">
        <r>  0.0054  0.0038  0.0061  0.0097  0.0001  0.0009  0.0005  0.0001  0.0004 </r>
       </set>
       <set comment="band 36">
        <r>  0.0116  0.0089  0.0000  0.0009  0.0000  0.0004  0.0199  0.0001  0.0059 </r>
       </set>
      </set>
     </set>
     <set comment="spin2">
      <set comment="kpoint 1">
       <set comment="band 1">
        <r>  0.0000  0.0000  0.9818  0.0000  0.0000  0.0000  0.0000  0.0000  0.0000 </r>
       </set>
       <set comment="band 2">
        <r>  0.0000  0.0000  0.0000  0.9818  0.0000  0.0000  0.0000  0.0000  0.0000 </r>
       </set>
       <set comment="band 3">
        <r>  0.0000  0.9818  0.0000  0.0000  0.0000  0.0000  0.0000  0.0000  0.0000 </r>
       </set>
       <set comment="band 4">
        <r>  0.2690  0.0000  0.0000  0.0000  0.0000  0.0000  0.0000  0.0000  0.0000 </r>
       </set>
       <set comment="band 5">
        <r>  0.0000  0.0000  0.0000  0.0000  0.0000  0.0002  0.3257  0.0000  0.3012 </r>
       </set>
       <set comment="band 6">
        <r>  0.0000  0.0000  0.0000  0.0000  0.0000  0.0001  0.3013  0.0003  0.3255 </r>
       </set>
       <set comment="band 7">
        <r>  0.0000  0.0000  0.0000  0.0000  0.1075  0.4771  0.0000  0.0362  0.0003 </r>
       </set>
       <set comment="band 8">
        <r>  0.0000  0.0000  0.0000  0.0000  0.5022  0.1188  0.0000  0.0010  0.0000 </r>
       </set>
       <set comment="band 9">
        <r>  0.0000  0.0000  0.0000  0.0000  0.0122  0.0251  0.0002  0.5831  0.0000 </r>
       </set>
       <set comment="band 10">
        <r>  0.0000  0.0004  0.0000  0.1399  0.0000  0.0000  0.0000  0.0000  0.0000 </r>
       </set>
       <set comment="band 11">
        <r>  0.0000  0.0002  0.1402  0.0000  0.0000  0.0000  0.0000  0.0000  0.0000 </r>
       </set>
       <set comment="band 12">
        <r>  0.0000  0.1391  0.0002  0.0004  0.0000  0.0000  0.0000  0.0000  0.0000 </r>
       </set>
       <set comment="band 13">
        <r>  0.0307  0.0000  0.0000  0.0000  0.0000  0.0000  0.0000  0.0000  0.0000 </r>
       </set>
       <set comment="band 14">
        <r>  0.0000  0.0000  0.0000  0.0000  0.0000  0.0000  0.0178  0.0000  0.0291 </r>
       </set>
       <set comment="band 15">
        <r>  0.0000  0.0000  0.0000  0.0000  0.0000  0.0000  0.0293  0.0000  0.0179 </r>
       </set>
       <set comment="band 16">
        <r>  0.0000  0.0013  0.0377  0.0059  0.0000  0.0000  0.0000  0.0000  0.0000 </r>
       </set>
       <set comment="band 17">
        <r>  0.0000  0.0411  0.0030  0.0020  0.0000  0.0000  0.0000  0.0000  0.0000 </r>
       </set>
       <set comment="band 18">
        <r>  0.0000  0.0037  0.0043  0.0371  0.0000  0.0000  0.0000  0.0000  0.0000 </r>
       </set>
       <set comment="band 19">
        <r>  0.0294  0.0000  0.0000  0.0000  0.0000  0.0000  0.0000  0.0000  0.0000 </r>
       </set>
       <set comment="band 20">
        <r>  0.0000  0.0000  0.0000  0.0000  0.0559  0.0139  0.0000  0.0034  0.0000 </r>
       </set>
       <set comment="band 21">
        <r>  0.0000  0.0000  0.0000  0.0000  0.0106  0.0581  0.0000  0.0050  0.0000 </r>
       </set>
       <set comment="band 22">
        <r>  0.0000  0.0000  0.0000  0.0000  0.0066  0.0015  0.0000  0.0654  0.0000 </r>
       </set>
       <set comment="band 23">
        <r>  0.0000  0.0000  0.0000  0.0000  0.0003  0.0001  0.0000  0.0005  0.0000 </r>
       </set>
       <set comment="band 24">
        <r>  0.0000  0.0000  0.0000  0.0000  0.0000  0.0004  0.0000  0.0000  0.0001 </r>
       </set>
       <set comment="band 25">
        <r>  0.0000  0.0000  0.0000  0.0000  0.0001  0.0002  0.0000  0.0000  0.0000 </r>
       </set>
       <set comment="band 26">
        <r>  0.0000  0.0000  0.0000  0.0000  0.0000  0.0000  0.0002  0.0001  0.0172 </r>
       </set>
       <set comment="band 27">
        <r>  0.0000  0.0000  0.0000  0.0000  0.0000  0.0000  0.0171  0.0000  0.0002 </r>
       </set>
       <set comment="band 28">
        <r>  0.0009  0.0097  0.0054  0.0002  0.0032  0.0001  0.0000  0.0020  0.0000 </r>
       </set>
       <set comment="band 29">
        <r>  0.0071  0.0001  0.0185  0.0013  0.0002  0.0004  0.0000  0.0009  0.0000 </r>
       </set>
       <set comment="band 30">
        <r>  0.0026  0.0089  0.0007  0.0105  0.0042  0.0027  0.0000  0.0021  0.0000 </r>
       </set>
       <set comment="band 31">
        <r>  0.0111  0.0017  0.0096  0.0010  0.0033  0.0004  0.0000  0.0024  0.0000 </r>
       </set>
       <set comment="band 32">
        <r>  0.0006  0.0002  0.0142  0.0065  0.0063  0.0000  0.0001  0.0046  0.0002 </r>
       </set>
       <set comment="band 33">
        <r>  0.0007  0.0030  0.0002  0.0047  0.0056  0.0008  0.0000  0.0151  0.0000 </r>
       </set>
       <set comment="band 34">
        <r>  0.0062  0.0010  0.0010  0.0032  0.0014  0.0009  0.0001  0.0012  0.0004 </r>
       </set>
       <set comment="band 35">
        <r>  0.0002  0.0000  0.0005  0.0021  0.0035  0.0232  0.0000  0.0003  0.0000 </r>
       </set>
       <set comment="band 36">
        <r>  0.0073  0.0007  0.0029  0.0043  0.0001  0.0000  0.0082  0.0000  0.0315 </r>
       </set>
      </set>
     </set>
    </set>
   </array>
  </projected>
 </calculation>
 <structure name="finalpos" >
  <crystal>
   <varray name="basis" >
    <v>      10.00000000       0.00000000       0.00000000 </v>
    <v>       0.00000000      10.00000000       0.00000000 </v>
    <v>       0.00000000       0.00000000      10.00000000 </v>
   </varray>
   <i name="volume">   1000.00000000 </i>
   <varray name="rec_basis" >
    <v>       0.10000000       0.00000000       0.00000000 </v>
    <v>       0.00000000       0.10000000       0.00000000 </v>
    <v>       0.00000000       0.00000000       0.10000000 </v>
   </varray>
  </crystal>
  <varray name="positions" >
   <v>       0.50000000       0.50000000       0.50000000 </v>
  </varray>
 </structure>
</modeling>
