       N       E                     dE             d eps       ncg     rms          ort
DAV:   1     0.232773240286E+03    0.23277E+03   -0.35168E+03    36   0.238E+02
DAV:   2     0.485124746837E+02   -0.18426E+03   -0.18413E+03    36   0.921E+01
DAV:   3     0.432534867970E+01   -0.44187E+02   -0.43982E+02    36   0.542E+01
DAV:   4    -0.145608383492E+01   -0.57814E+01   -0.57738E+01    36   0.243E+01
DAV:   5    -0.193722259484E+01   -0.48114E+00   -0.47145E+00    36   0.646E+00
SDA:   6    -0.106490805298E+01    0.87231E+00   -0.34178E+01    36   0.854E+01 0.000E+00
DMP:   7    -0.147856129415E+01   -0.41365E+00   -0.27872E+01    36   0.922E+01-0.589E+01
DMP:   8    -0.387865860474E+00    0.10907E+01   -0.27359E+02    36   0.843E+02-0.416E+02
DMP:   9     0.141407806813E+01    0.18019E+01   -0.25149E+02    36   0.755E+02-0.332E+02
DMP:  10     0.663222998459E+00   -0.75086E+00   -0.91314E+01    36   0.336E+02-0.283E+02
DMP:  11    -0.312313865941E+01   -0.37864E+01   -0.80895E+00    36   0.382E+01-0.470E+01
DMP:  12    -0.320996570166E+01   -0.86827E-01   -0.10057E+01    36   0.313E+01-0.161E+01
DMP:  13    -0.347779748845E+01   -0.26783E+00   -0.27011E+00    36   0.110E+01-0.111E+01
DMP:  14    -0.357964175679E+01   -0.10184E+00   -0.93926E-01    36   0.294E+00-0.154E+00
DMP:  15    -0.360739693687E+01   -0.27755E-01   -0.45377E-01    36   0.150E+00-0.949E-01
DMP:  16    -0.362490547135E+01   -0.17509E-01   -0.13095E-01    36   0.423E-01-0.250E-01
DMP:  17    -0.363039683464E+01   -0.54914E-02   -0.67874E-02    36   0.188E-01-0.484E-02
DMP:  18    -0.363320388828E+01   -0.28071E-02   -0.16801E-02    36   0.528E-02-0.282E-02
DMP:  19    -0.363400395487E+01   -0.80007E-03   -0.11772E-02    36   0.301E-02-0.185E-03
DMP:  20    -0.363462042484E+01   -0.61647E-03   -0.26026E-03    36   0.596E-03 0.143E-03
DMP:  21    -0.363473468329E+01   -0.11426E-03   -0.16628E-03    36   0.446E-03-0.791E-04
DMP:  22    -0.363484199326E+01   -0.10731E-03   -0.64214E-04    36   0.114E-03 0.123E-03
DMP:  23    -0.363487298807E+01   -0.30995E-04   -0.19236E-04    36   0.494E-04-0.344E-05
   1 F= -.36348730E+01 E0= -.36207684E+01  d E =-.363487E+01  mag=     5.0000
