<?xml version="1.0" encoding="ISO-8859-1"?>
<modeling>
 <generator>
  <i name="program" type="string">vasp </i>
  <i name="version" type="string">5.4.4.18Apr17-6-g9f103f2a35  </i>
  <i name="subversion" type="string">(build Nov 08 2019 15:19:53) gamma-only         parallel </i>
  <i name="platform" type="string">LinuxIFC </i>
  <i name="date" type="string">2020 11 30 </i>
  <i name="time" type="string">09:30:39 </i>
 </generator>
 <incar>
  <i type="string" name="PREC">accurate</i>
  <i type="string" name="ALGO"> D</i>
  <i type="int" name="ISPIN">     2</i>
  <i type="int" name="NELM">   300</i>
  <i type="int" name="IBRION">     2</i>
  <i name="EDIFF">      0.00005000</i>
  <i type="int" name="NSW">    99</i>
  <i type="int" name="ISIF">     2</i>
  <i name="ENCUT">    520.00000000</i>
  <v name="MAGMOM">      0.60000000</v>
  <i type="string" name="LREAL"> Auto</i>
  <i type="int" name="ISMEAR">     0</i>
  <i name="SIGMA">      0.05000000</i>
  <i type="logical" name="LWAVE"> F  </i>
  <i type="int" name="LORBIT">    11</i>
  <i type="logical" name="LASPH"> T  </i>
  <v type="int" name="KPOINT_BSE">    -1     0     0     0</v>
  <i type="int" name="NELM">   300</i>
  <i type="logical" name="LASPH"> T  </i>
 </incar>
 <structure name="primitive_cell" >
  <crystal>
   <varray name="basis" >
    <v>      10.00000000       0.00000000       0.00000000 </v>
    <v>       0.00000000      10.00000000       0.00000000 </v>
    <v>       0.00000000       0.00000000      10.00000000 </v>
   </varray>
   <i name="volume">   1000.00000000 </i>
   <varray name="rec_basis" >
    <v>       0.10000000       0.00000000       0.00000000 </v>
    <v>       0.00000000       0.10000000       0.00000000 </v>
    <v>       0.00000000       0.00000000       0.10000000 </v>
   </varray>
  </crystal>
  <varray name="positions" >
   <v>      -0.50000000      -0.50000000      -0.50000000 </v>
  </varray>
 </structure>
 <varray name="primitive_index" >
  <v type="int" >        1 </v>
 </varray>
 <kpoints>
  <generation param="Gamma">
   <v type="int" name="divisions">       1        1        1 </v>
   <v name="usershift">      0.00000000       0.00000000       0.00000000 </v>
   <v name="genvec1">      1.00000000       0.00000000       0.00000000 </v>
   <v name="genvec2">      0.00000000       1.00000000       0.00000000 </v>
   <v name="genvec3">      0.00000000       0.00000000       1.00000000 </v>
   <v name="shift">      0.00000000       0.00000000       0.00000000 </v>
  </generation>
  <varray name="kpointlist" >
   <v>       0.00000000       0.00000000       0.00000000 </v>
  </varray>
  <varray name="weights" >
   <v>       1.00000000 </v>
  </varray>
 </kpoints>
 <parameters>
  <separator name="general" >
   <i type="string" name="SYSTEM">unknown system</i>
   <i type="logical" name="LCOMPAT"> F  </i>
  </separator>
  <separator name="electronic" >
   <i type="string" name="PREC">accura</i>
   <i name="ENMAX">    520.00000000</i>
   <i name="ENAUG">    598.47300000</i>
   <i name="EDIFF">      0.00005000</i>
   <i type="int" name="IALGO">    53</i>
   <i type="int" name="IWAVPR">    11</i>
   <i type="int" name="NBANDS">    36</i>
   <i name="NELECT">     11.00000000</i>
   <i type="int" name="TURBO">     0</i>
   <i type="int" name="IRESTART">     0</i>
   <i type="int" name="NREBOOT">     0</i>
   <i type="int" name="NMIN">     0</i>
   <i name="EREF">      0.00000000</i>
   <separator name="electronic smearing" >
    <i type="int" name="ISMEAR">     0</i>
    <i name="SIGMA">      0.05000000</i>
    <i name="KSPACING">      0.50000000</i>
    <i type="logical" name="KGAMMA"> T  </i>
   </separator>
   <separator name="electronic projectors" >
    <i type="logical" name="LREAL"> T  </i>
    <v name="ROPT">     -0.00025000</v>
    <i type="int" name="LMAXPAW">  -100</i>
    <i type="int" name="LMAXMIX">     2</i>
    <i type="logical" name="NLSPLINE"> F  </i>
   </separator>
   <separator name="electronic startup" >
    <i type="int" name="ISTART">     0</i>
    <i type="int" name="ICHARG">     2</i>
    <i type="int" name="INIWAV">     1</i>
   </separator>
   <separator name="electronic spin" >
    <i type="int" name="ISPIN">     2</i>
    <i type="logical" name="LNONCOLLINEAR"> F  </i>
    <v name="MAGMOM">      0.60000000</v>
    <i name="NUPDOWN">     -1.00000000</i>
    <i type="logical" name="LSORBIT"> F  </i>
    <v name="SAXIS">      0.00000000      0.00000000      1.00000000</v>
    <i type="logical" name="LSPIRAL"> F  </i>
    <v name="QSPIRAL">      0.00000000      0.00000000      0.00000000</v>
    <i type="logical" name="LZEROZ"> F  </i>
   </separator>
   <separator name="electronic exchange-correlation" >
    <i type="logical" name="LASPH"> T  </i>
    <i type="logical" name="LMETAGGA"> F  </i>
   </separator>
   <separator name="electronic convergence" >
    <i type="int" name="NELM">   300</i>
    <i type="int" name="NELMDL">    -5</i>
    <i type="int" name="NELMIN">     2</i>
    <i name="ENINI">    520.00000000</i>
    <separator name="electronic convergence detail" >
     <i type="logical" name="LDIAG"> T  </i>
     <i type="logical" name="LSUBROT"> F  </i>
     <i name="WEIMIN">      0.00100000</i>
     <i name="EBREAK">      0.00000035</i>
     <i name="DEPER">      0.30000000</i>
     <i type="int" name="NRMM">     4</i>
     <i name="TIME">      0.40000000</i>
    </separator>
   </separator>
   <separator name="electronic mixer" >
    <i name="AMIX">      0.40000000</i>
    <i name="BMIX">      1.00000000</i>
    <i name="AMIN">      0.10000000</i>
    <i name="AMIX_MAG">      1.60000000</i>
    <i name="BMIX_MAG">      1.00000000</i>
    <separator name="electronic mixer details" >
     <i type="int" name="IMIX">     4</i>
     <i type="logical" name="MIXFIRST"> F  </i>
     <i type="int" name="MAXMIX">   -45</i>
     <i name="WC">    100.00000000</i>
     <i type="int" name="INIMIX">     1</i>
     <i type="int" name="MIXPRE">     1</i>
     <i type="int" name="MREMOVE">     5</i>
    </separator>
   </separator>
   <separator name="electronic dipolcorrection" >
    <i type="logical" name="LDIPOL"> F  </i>
    <i type="logical" name="LMONO"> F  </i>
    <i type="int" name="IDIPOL">     0</i>
    <i name="EPSILON">      1.00000000</i>
    <v name="DIPOL">   -100.00000000   -100.00000000   -100.00000000</v>
    <i name="EFIELD">      0.00000000</i>
   </separator>
  </separator>
  <separator name="grids" >
   <i type="int" name="NGX">    80</i>
   <i type="int" name="NGY">    80</i>
   <i type="int" name="NGZ">    80</i>
   <i type="int" name="NGXF">   160</i>
   <i type="int" name="NGYF">   160</i>
   <i type="int" name="NGZF">   160</i>
   <i type="logical" name="ADDGRID"> F  </i>
  </separator>
  <separator name="ionic" >
   <i type="int" name="NSW">    99</i>
   <i type="int" name="IBRION">     2</i>
   <i type="int" name="MDALGO">     0</i>
   <i type="int" name="ISIF">     2</i>
   <i name="PSTRESS">      0.00000000</i>
   <i name="EDIFFG">      0.00050000</i>
   <i type="int" name="NFREE">     1</i>
   <i name="POTIM">      0.50000000</i>
   <i name="SMASS">     -3.00000000</i>
   <i name="SCALEE">      1.00000000</i>
  </separator>
  <separator name="ionic md" >
   <i name="TEBEG">      0.00010000</i>
   <i name="TEEND">      0.00010000</i>
   <i type="int" name="NBLOCK">     1</i>
   <i type="int" name="KBLOCK">    99</i>
   <i type="int" name="NPACO">   256</i>
   <i name="APACO">     16.00000000</i>
  </separator>
  <separator name="symmetry" >
   <i type="int" name="ISYM">     2</i>
   <i name="SYMPREC">      0.00001000</i>
  </separator>
  <separator name="dos" >
   <i type="int" name="LORBIT">    11</i>
   <v name="RWIGS">     -1.00000000</v>
   <i type="int" name="NEDOS">   301</i>
   <i name="EMIN">     10.00000000</i>
   <i name="EMAX">    -10.00000000</i>
   <i name="EFERMI">      0.00000000</i>
  </separator>
  <separator name="writing" >
   <i type="int" name="NWRITE">     2</i>
   <i type="logical" name="LWAVE"> F  </i>
   <i type="logical" name="LDOWNSAMPLE"> F  </i>
   <i type="logical" name="LCHARG"> T  </i>
   <i type="logical" name="LPARD"> F  </i>
   <i type="logical" name="LVTOT"> F  </i>
   <i type="logical" name="LVHAR"> F  </i>
   <i type="logical" name="LELF"> F  </i>
   <i type="logical" name="LOPTICS"> F  </i>
   <v name="STM">      0.00000000      0.00000000      0.00000000      0.00000000      0.00000000      0.00000000      0.00000000</v>
  </separator>
  <separator name="performance" >
   <i type="int" name="NPAR">    36</i>
   <i type="int" name="NSIM">     4</i>
   <i type="int" name="NBLK">    -1</i>
   <i type="logical" name="LPLANE"> T  </i>
   <i type="logical" name="LSCALAPACK"> T  </i>
   <i type="logical" name="LSCAAWARE"> F  </i>
   <i type="logical" name="LSCALU"> F  </i>
   <i type="logical" name="LASYNC"> F  </i>
   <i type="logical" name="LORBITALREAL"> F  </i>
  </separator>
  <separator name="miscellaneous" >
   <i type="int" name="IDIOT">     3</i>
   <i type="int" name="ISPECIAL">     0</i>
   <i type="logical" name="LMUSIC"> F  </i>
   <v name="POMASS">     50.94100000</v>
   <v name="DARWINR">      0.00000000</v>
   <v name="DARWINV">      1.00000000</v>
   <i type="logical" name="LCORR"> T  </i>
  </separator>
  <i type="logical" name="GGA_COMPAT"> T  </i>
  <i type="logical" name="LBERRY"> F  </i>
  <i type="int" name="ICORELEVEL">     0</i>
  <i type="logical" name="LDAU"> F  </i>
  <i type="int" name="I_CONSTRAINED_M">     0</i>
  <separator name="electronic exchange-correlation" >
   <i type="string" name="GGA">--</i>
   <i type="int" name="VOSKOWN">     0</i>
   <i type="logical" name="LHFCALC"> F  </i>
   <i type="string" name="PRECFOCK"></i>
   <i type="logical" name="LSYMGRAD"> F  </i>
   <i type="logical" name="LHFONE"> F  </i>
   <i type="logical" name="LRHFCALC"> F  </i>
   <i type="logical" name="LTHOMAS"> F  </i>
   <i type="logical" name="LMODELHF"> F  </i>
   <i name="ENCUT4O">     -1.00000000</i>
   <i type="int" name="EXXOEP">     0</i>
   <i type="int" name="FOURORBIT">     0</i>
   <i name="AEXX">      0.00000000</i>
   <i name="HFALPHA">      0.00000000</i>
   <i name="MCALPHA">      0.00000000</i>
   <i name="ALDAX">      1.00000000</i>
   <i name="AGGAX">      1.00000000</i>
   <i name="ALDAC">      1.00000000</i>
   <i name="AGGAC">      1.00000000</i>
   <i type="int" name="NKREDX">     1</i>
   <i type="int" name="NKREDY">     1</i>
   <i type="int" name="NKREDZ">     1</i>
   <i type="logical" name="SHIFTRED"> F  </i>
   <i type="logical" name="ODDONLY"> F  </i>
   <i type="logical" name="EVENONLY"> F  </i>
   <i type="int" name="LMAXFOCK">     0</i>
   <i type="int" name="NMAXFOCKAE">     0</i>
   <i type="logical" name="LFOCKAEDFT"> F  </i>
   <i name="HFSCREEN">      0.00000000</i>
   <i name="HFSCREENC">      0.00000000</i>
   <i type="int" name="NBANDSGWLOW">     0</i>
  </separator>
  <separator name="vdW DFT" >
   <i type="logical" name="LUSE_VDW"> F  </i>
   <i name="Zab_VDW">     -0.84910000</i>
   <i name="PARAM1">      0.12340000</i>
   <i name="PARAM2">      1.00000000</i>
   <i name="PARAM3">      0.00000000</i>
  </separator>
  <separator name="model GW" >
   <i type="int" name="MODEL_GW">     0</i>
   <i name="MODEL_EPS0">    600.00000000</i>
   <i name="MODEL_ALPHA">      1.00000000</i>
  </separator>
  <separator name="linear response parameters" >
   <i type="logical" name="LEPSILON"> F  </i>
   <i type="logical" name="LRPA"> F  </i>
   <i type="logical" name="LNABLA"> F  </i>
   <i type="logical" name="LVEL"> F  </i>
   <i type="int" name="KINTER">     0</i>
   <i name="CSHIFT">      0.10000000</i>
   <i name="OMEGAMAX">     -1.00000000</i>
   <i name="DEG_THRESHOLD">      0.00200000</i>
   <i name="RTIME">     -0.10000000</i>
   <i name="WPLASMAI">      0.00000000</i>
   <v name="DFIELD">      0.00000000      0.00000000      0.00000000</v>
   <v name="WPLASMA">      0.00000000      0.00000000      0.00000000      0.00000000      0.00000000      0.00000000      0.00000000      0.00000000      0.00000000</v>
  </separator>
  <separator name="orbital magnetization" >
   <i type="logical" name="NUCIND"> F  </i>
   <v name="MAGPOS">      0.00000000      0.00000000      0.00000000</v>
   <i type="logical" name="LNICSALL"> T  </i>
   <i type="logical" name="ORBITALMAG"> F  </i>
   <i type="logical" name="LMAGBLOCH"> F  </i>
   <i type="logical" name="LCHIMAG"> F  </i>
   <i type="logical" name="LGAUGE"> T  </i>
   <i type="int" name="MAGATOM">     0</i>
   <v name="MAGDIPOL">      0.00000000      0.00000000      0.00000000</v>
   <v name="AVECCONST">      0.00000000      0.00000000      0.00000000</v>
  </separator>
  <separator name="response functions" >
   <i type="logical" name="LADDER"> F  </i>
   <i type="logical" name="LRPAFORCE"> F  </i>
   <i type="logical" name="LFXC"> F  </i>
   <i type="logical" name="LHARTREE"> T  </i>
   <i type="int" name="IBSE">     0</i>
   <v type="int" name="KPOINT">    -1     0     0     0</v>
   <i type="logical" name="LTCTE"> F  </i>
   <i type="logical" name="LTETE"> F  </i>
   <i type="logical" name="LTRIPLET"> F  </i>
   <i type="logical" name="LFXCEPS"> F  </i>
   <i type="logical" name="LFXHEG"> F  </i>
   <i type="int" name="NATURALO">     2</i>
   <i type="logical" name="L2ORDER"> F  </i>
   <i type="logical" name="LMP2LT"> F  </i>
   <i type="logical" name="LUSEW"> F  </i>
   <i name="ENCUTGW">     -2.00000000</i>
   <i name="ENCUTGWSOFT">     -2.00000000</i>
   <i name="ENCUTLF">     -1.00000000</i>
   <i type="int" name="LMAXMP2">    -1</i>
   <i name="SCISSOR">      0.00000000</i>
   <i type="int" name="NOMEGA">     0</i>
   <i type="int" name="NOMEGAR">     0</i>
   <i type="int" name="NBANDSGW">    -1</i>
   <i type="int" name="NBANDSO">    -1</i>
   <i type="int" name="NBANDSV">    -1</i>
   <i type="int" name="NELM">   300</i>
   <i type="int" name="NELMHF">     1</i>
   <i type="int" name="DIM">     3</i>
   <i type="int" name="ANTIRES">     0</i>
   <i name="OMEGAMAX">    -30.00000000</i>
   <i name="OMEGAMIN">    -30.00000000</i>
   <i name="OMEGATL">   -200.00000000</i>
   <i type="int" name="OMEGAGRID">   140</i>
   <i name="CSHIFT">     -0.10000000</i>
   <i type="logical" name="SELFENERGY"> F  </i>
   <i type="logical" name="LSPECTRAL"> F  </i>
   <i type="logical" name="LSPECTRALGW"> F  </i>
   <i type="logical" name="LSINGLES"> F  </i>
   <i type="logical" name="LFERMIGW"> F  </i>
   <i type="logical" name="ODDONLYGW"> F  </i>
   <i type="logical" name="EVENONLYGW"> F  </i>
   <i type="int" name="NKREDLFX">     1</i>
   <i type="int" name="NKREDLFY">     1</i>
   <i type="int" name="NKREDLFZ">     1</i>
   <i type="int" name="MAXMEM">  2800</i>
   <i type="int" name="TELESCOPE">     0</i>
   <i type="int" name="TAUPAR">     1</i>
   <i type="int" name="OMEGAPAR">    -1</i>
   <i name="LAMBDA">      1.00000000</i>
  </separator>
  <separator name="External order field" >
   <i name="OFIELD_KAPPA">      0.00000000</i>
   <v name="OFIELD_K">      0.00000000      0.00000000      0.00000000</v>
   <i name="OFIELD_Q6_NEAR">      0.00000000</i>
   <i name="OFIELD_Q6_FAR">      0.00000000</i>
   <i name="OFIELD_A">      0.00000000</i>
  </separator>
 </parameters>
 <atominfo>
  <atoms>       1 </atoms>
  <types>       1 </types>
  <array name="atoms" >
   <dimension dim="1">ion</dimension>
   <field type="string">element</field>
   <field type="int">atomtype</field>
   <set>
    <rc><c>V </c><c>   1</c></rc>
   </set>
  </array>
  <array name="atomtypes" >
   <dimension dim="1">type</dimension>
   <field type="int">atomspertype</field>
   <field type="string">element</field>
   <field>mass</field>
   <field>valence</field>
   <field type="string">pseudopotential</field>
   <set>
    <rc><c>   1</c><c>V </c><c>     50.94100000</c><c>     11.00000000</c><c>  PAW_PBE V_pv 07Sep2000                </c></rc>
   </set>
  </array>
 </atominfo>
 <structure name="initialpos" >
  <crystal>
   <varray name="basis" >
    <v>      10.00000000       0.00000000       0.00000000 </v>
    <v>       0.00000000      10.00000000       0.00000000 </v>
    <v>       0.00000000       0.00000000      10.00000000 </v>
   </varray>
   <i name="volume">   1000.00000000 </i>
   <varray name="rec_basis" >
    <v>       0.10000000       0.00000000       0.00000000 </v>
    <v>       0.00000000       0.10000000       0.00000000 </v>
    <v>       0.00000000       0.00000000       0.10000000 </v>
   </varray>
  </crystal>
  <varray name="positions" >
   <v>       0.50000000       0.50000000       0.50000000 </v>
  </varray>
 </structure>
 <calculation>
  <scstep>
   <time name="total">    1.66    1.67</time>
   <energy>
    <i name="alphaZ">      1.37721705 </i>
    <i name="ewald">   -247.18170407 </i>
    <i name="hartreedc">   -870.70988618 </i>
    <i name="XCdc">     25.38519913 </i>
    <i name="pawpsdc">   1088.19577608 </i>
    <i name="pawaedc">  -1064.13444929 </i>
    <i name="eentropy">     -0.00278509 </i>
    <i name="bandstr">    -21.77134759 </i>
    <i name="atom">   1321.61522025 </i>
    <i name="e_fr_energy">    232.77324029 </i>
    <i name="e_wo_entrp">    232.77602538 </i>
    <i name="e_0_energy">    232.77463283 </i>
   </energy>
  </scstep>
  <scstep>
   <time name="total">    0.88    0.88</time>
   <energy>
    <i name="e_fr_energy">     48.51247468 </i>
    <i name="e_wo_entrp">     48.51764180 </i>
    <i name="e_0_energy">     48.51505824 </i>
   </energy>
  </scstep>
  <scstep>
   <time name="total">    0.86    0.86</time>
   <energy>
    <i name="e_fr_energy">      4.32534868 </i>
    <i name="e_wo_entrp">      4.34307380 </i>
    <i name="e_0_energy">      4.33421124 </i>
   </energy>
  </scstep>
  <scstep>
   <time name="total">    1.09    1.09</time>
   <energy>
    <i name="e_fr_energy">     -1.45608383 </i>
    <i name="e_wo_entrp">     -1.41575184 </i>
    <i name="e_0_energy">     -1.43591784 </i>
   </energy>
  </scstep>
  <scstep>
   <time name="total">    1.48    1.48</time>
   <energy>
    <i name="e_fr_energy">     -1.93722259 </i>
    <i name="e_wo_entrp">     -1.87442134 </i>
    <i name="e_0_energy">     -1.90582197 </i>
   </energy>
  </scstep>
  <scstep>
   <time name="total">    1.60    1.61</time>
   <energy>
    <i name="e_fr_energy">     -1.06490805 </i>
    <i name="e_wo_entrp">     -1.00124054 </i>
    <i name="e_0_energy">     -1.03307429 </i>
   </energy>
  </scstep>
  <scstep>
   <time name="total">    1.55    1.55</time>
   <energy>
    <i name="e_fr_energy">     -1.47856129 </i>
    <i name="e_wo_entrp">     -1.43007264 </i>
    <i name="e_0_energy">     -1.45431697 </i>
   </energy>
  </scstep>
  <scstep>
   <time name="total">    1.55    1.55</time>
   <energy>
    <i name="e_fr_energy">     -0.38786586 </i>
    <i name="e_wo_entrp">     -0.33088877 </i>
    <i name="e_0_energy">     -0.35937731 </i>
   </energy>
  </scstep>
  <scstep>
   <time name="total">    1.54    1.54</time>
   <energy>
    <i name="e_fr_energy">      1.41407807 </i>
    <i name="e_wo_entrp">      1.44123117 </i>
    <i name="e_0_energy">      1.42765462 </i>
   </energy>
  </scstep>
  <scstep>
   <time name="total">    1.55    1.55</time>
   <energy>
    <i name="e_fr_energy">      0.66322300 </i>
    <i name="e_wo_entrp">      0.68706856 </i>
    <i name="e_0_energy">      0.67514578 </i>
   </energy>
  </scstep>
  <scstep>
   <time name="total">    1.55    1.55</time>
   <energy>
    <i name="e_fr_energy">     -3.12313866 </i>
    <i name="e_wo_entrp">     -3.09872172 </i>
    <i name="e_0_energy">     -3.11093019 </i>
   </energy>
  </scstep>
  <scstep>
   <time name="total">    1.56    1.56</time>
   <energy>
    <i name="e_fr_energy">     -3.20996570 </i>
    <i name="e_wo_entrp">     -3.18482812 </i>
    <i name="e_0_energy">     -3.19739691 </i>
   </energy>
  </scstep>
  <scstep>
   <time name="total">    1.55    1.55</time>
   <energy>
    <i name="e_fr_energy">     -3.47779749 </i>
    <i name="e_wo_entrp">     -3.45156531 </i>
    <i name="e_0_energy">     -3.46468140 </i>
   </energy>
  </scstep>
  <scstep>
   <time name="total">    1.55    1.55</time>
   <energy>
    <i name="e_fr_energy">     -3.57964176 </i>
    <i name="e_wo_entrp">     -3.55255222 </i>
    <i name="e_0_energy">     -3.56609699 </i>
   </energy>
  </scstep>
  <scstep>
   <time name="total">    1.54    1.54</time>
   <energy>
    <i name="e_fr_energy">     -3.60739694 </i>
    <i name="e_wo_entrp">     -3.57977954 </i>
    <i name="e_0_energy">     -3.59358824 </i>
   </energy>
  </scstep>
  <scstep>
   <time name="total">    1.55    1.55</time>
   <energy>
    <i name="e_fr_energy">     -3.62490547 </i>
    <i name="e_wo_entrp">     -3.59698873 </i>
    <i name="e_0_energy">     -3.61094710 </i>
   </energy>
  </scstep>
  <scstep>
   <time name="total">    1.57    1.57</time>
   <energy>
    <i name="e_fr_energy">     -3.63039683 </i>
    <i name="e_wo_entrp">     -3.60232305 </i>
    <i name="e_0_energy">     -3.61635994 </i>
   </energy>
  </scstep>
  <scstep>
   <time name="total">    1.54    1.54</time>
   <energy>
    <i name="e_fr_energy">     -3.63320389 </i>
    <i name="e_wo_entrp">     -3.60505386 </i>
    <i name="e_0_energy">     -3.61912887 </i>
   </energy>
  </scstep>
  <scstep>
   <time name="total">    1.54    1.54</time>
   <energy>
    <i name="e_fr_energy">     -3.63400395 </i>
    <i name="e_wo_entrp">     -3.60581916 </i>
    <i name="e_0_energy">     -3.61991156 </i>
   </energy>
  </scstep>
  <scstep>
   <time name="total">    1.54    1.54</time>
   <energy>
    <i name="e_fr_energy">     -3.63462042 </i>
    <i name="e_wo_entrp">     -3.60642064 </i>
    <i name="e_0_energy">     -3.62052053 </i>
   </energy>
  </scstep>
  <scstep>
   <time name="total">    1.55    1.55</time>
   <energy>
    <i name="e_fr_energy">     -3.63473468 </i>
    <i name="e_wo_entrp">     -3.60652879 </i>
    <i name="e_0_energy">     -3.62063173 </i>
   </energy>
  </scstep>
  <scstep>
   <time name="total">    1.54    1.54</time>
   <energy>
    <i name="e_fr_energy">     -3.63484199 </i>
    <i name="e_wo_entrp">     -3.60663374 </i>
    <i name="e_0_energy">     -3.62073787 </i>
   </energy>
  </scstep>
  <scstep>
   <time name="total">    1.71    1.71</time>
   <energy>
    <i name="alphaZ">      1.37721705 </i>
    <i name="ewald">   -247.18170407 </i>
    <i name="hartreedc">   -879.02912256 </i>
    <i name="XCdc">     27.47395116 </i>
    <i name="pawpsdc">   1098.75057815 </i>
    <i name="pawaedc">  -1074.62584470 </i>
    <i name="eentropy">     -0.02820910 </i>
    <i name="bandstr">   -251.98696002 </i>
    <i name="atom">   1321.61522025 </i>
    <i name="e_fr_energy">     -3.63487299 </i>
    <i name="e_wo_entrp">     -3.60666389 </i>
    <i name="e_0_energy">     -3.62076844 </i>
   </energy>
  </scstep>
  <structure>
   <crystal>
    <varray name="basis" >
     <v>      10.00000000       0.00000000       0.00000000 </v>
     <v>       0.00000000      10.00000000       0.00000000 </v>
     <v>       0.00000000       0.00000000      10.00000000 </v>
    </varray>
    <i name="volume">   1000.00000000 </i>
    <varray name="rec_basis" >
     <v>       0.10000000       0.00000000       0.00000000 </v>
     <v>       0.00000000       0.10000000       0.00000000 </v>
     <v>       0.00000000       0.00000000       0.10000000 </v>
    </varray>
   </crystal>
   <varray name="positions" >
    <v>       0.50000000       0.50000000       0.50000000 </v>
   </varray>
  </structure>
  <varray name="forces" >
   <v>       0.00000000       0.00000000       0.00000000 </v>
  </varray>
  <varray name="stress" >
   <v>      -0.07507353       0.00000000      -0.00000000 </v>
   <v>       0.00000000      -0.07507353       0.00000000 </v>
   <v>       0.00000000       0.00000000      -0.07507353 </v>
  </varray>
  <energy>
   <i name="e_fr_energy">     -3.63487299 </i>
   <i name="e_wo_entrp">     -3.62076844 </i>
   <i name="e_0_energy">     -0.02820910 </i>
  </energy>
  <time name="totalsc">   43.25   48.62</time>
  <eigenvalues>
   <array>
    <dimension dim="1">band</dimension>
    <dimension dim="2">kpoint</dimension>
    <dimension dim="3">spin</dimension>
    <field>eigene</field>
    <field>occ</field>
    <set>
     <set comment="spin 1">
      <set comment="kpoint 1">
       <r>  -40.9626    1.0000 </r>
       <r>  -40.9626    1.0000 </r>
       <r>  -40.9626    1.0000 </r>
       <r>   -4.1439    1.0000 </r>
       <r>   -3.0404    1.0000 </r>
       <r>   -3.0404    1.0000 </r>
       <r>   -3.0404    1.0000 </r>
       <r>   -2.6962    0.5021 </r>
       <r>   -2.6962    0.4979 </r>
       <r>   -1.0389    0.0000 </r>
       <r>   -1.0386    0.0000 </r>
       <r>   -1.0371    0.0000 </r>
       <r>   -0.3650    0.0000 </r>
       <r>    0.6455    0.0000 </r>
       <r>    0.6455    0.0000 </r>
       <r>    1.4022    0.0000 </r>
       <r>    1.4026    0.0000 </r>
       <r>    1.4329    0.0000 </r>
       <r>    1.6256    0.0000 </r>
       <r>    1.7684    0.0000 </r>
       <r>    1.7719    0.0000 </r>
       <r>    1.7720    0.0000 </r>
       <r>    2.1916    0.0000 </r>
       <r>    2.1918    0.0000 </r>
       <r>    2.1965    0.0000 </r>
       <r>    2.2896    0.0000 </r>
       <r>    2.3052    0.0000 </r>
       <r>    3.4020    0.0000 </r>
       <r>    3.4249    0.0000 </r>
       <r>    3.4467    0.0000 </r>
       <r>    3.4941    0.0000 </r>
       <r>    3.5245    0.0000 </r>
       <r>    3.5314    0.0000 </r>
       <r>    3.5379    0.0000 </r>
       <r>    3.5426    0.0000 </r>
       <r>    4.5435    0.0000 </r>
      </set>
     </set>
     <set comment="spin 2">
      <set comment="kpoint 1">
       <r>  -37.7126    1.0000 </r>
       <r>  -37.7126    1.0000 </r>
       <r>  -37.7126    1.0000 </r>
       <r>   -1.3415    0.0000 </r>
       <r>    0.0359    0.0000 </r>
       <r>    0.0359    0.0000 </r>
       <r>    0.3916    0.0000 </r>
       <r>    0.3916    0.0000 </r>
       <r>    0.3916    0.0000 </r>
       <r>    0.5406    0.0000 </r>
       <r>    1.3448    0.0000 </r>
       <r>    1.3451    0.0000 </r>
       <r>    1.3452    0.0000 </r>
       <r>    1.7428    0.0000 </r>
       <r>    1.7430    0.0000 </r>
       <r>    2.4724    0.0000 </r>
       <r>    2.5018    0.0000 </r>
       <r>    2.5025    0.0000 </r>
       <r>    2.5052    0.0000 </r>
       <r>    3.2100    0.0000 </r>
       <r>    3.2149    0.0000 </r>
       <r>    3.2187    0.0000 </r>
       <r>    3.2375    0.0000 </r>
       <r>    3.2405    0.0000 </r>
       <r>    3.2458    0.0000 </r>
       <r>    3.2459    0.0000 </r>
       <r>    3.2520    0.0000 </r>
       <r>    4.2839    0.0000 </r>
       <r>    4.3954    0.0000 </r>
       <r>    4.4127    0.0000 </r>
       <r>    4.4828    0.0000 </r>
       <r>    4.5538    0.0000 </r>
       <r>    4.5746    0.0000 </r>
       <r>    4.7218    0.0000 </r>
       <r>    4.7293    0.0000 </r>
       <r>    6.1218    0.0000 </r>
      </set>
     </set>
    </set>
   </array>
  </eigenvalues>
  <separator name="orbital magnetization" >
   <v name="MAGDIPOLOUT">      0.00000000      0.00000000      0.00000000</v>
  </separator>
  <dos>
   <i name="efermi">     -2.69619931 </i>
   <total>
    <array>
     <dimension dim="1">gridpoints</dimension>
     <dimension dim="2">spin</dimension>
     <field>energy</field>
     <field>total</field>
     <field>integrated</field>
     <set>
      <set comment="spin 1">
       <r>   -43.3168     0.0000     0.0000 </r>
       <r>   -43.1442     0.0000     0.0000 </r>
       <r>   -42.9716     0.0000     0.0000 </r>
       <r>   -42.7989     0.0000     0.0000 </r>
       <r>   -42.6263     0.0000     0.0000 </r>
       <r>   -42.4536     0.0000     0.0000 </r>
       <r>   -42.2810     0.0000     0.0000 </r>
       <r>   -42.1083     0.0000     0.0000 </r>
       <r>   -41.9357     0.0000     0.0000 </r>
       <r>   -41.7631     0.0000     0.0000 </r>
       <r>   -41.5904     0.0000     0.0000 </r>
       <r>   -41.4178     0.0000     0.0000 </r>
       <r>   -41.2451     0.0000     0.0000 </r>
       <r>   -41.0725     0.0164     0.0028 </r>
       <r>   -40.8998    16.7018     2.8863 </r>
       <r>   -40.7272     0.6587     3.0000 </r>
       <r>   -40.5546     0.0000     3.0000 </r>
       <r>   -40.3819     0.0000     3.0000 </r>
       <r>   -40.2093     0.0000     3.0000 </r>
       <r>   -40.0366     0.0000     3.0000 </r>
       <r>   -39.8640     0.0000     3.0000 </r>
       <r>   -39.6913     0.0000     3.0000 </r>
       <r>   -39.5187     0.0000     3.0000 </r>
       <r>   -39.3460     0.0000     3.0000 </r>
       <r>   -39.1734     0.0000     3.0000 </r>
       <r>   -39.0008     0.0000     3.0000 </r>
       <r>   -38.8281     0.0000     3.0000 </r>
       <r>   -38.6555     0.0000     3.0000 </r>
       <r>   -38.4828     0.0000     3.0000 </r>
       <r>   -38.3102     0.0000     3.0000 </r>
       <r>   -38.1375     0.0000     3.0000 </r>
       <r>   -37.9649     0.0000     3.0000 </r>
       <r>   -37.7923     0.0000     3.0000 </r>
       <r>   -37.6196     0.0000     3.0000 </r>
       <r>   -37.4470     0.0000     3.0000 </r>
       <r>   -37.2743     0.0000     3.0000 </r>
       <r>   -37.1017     0.0000     3.0000 </r>
       <r>   -36.9290     0.0000     3.0000 </r>
       <r>   -36.7564     0.0000     3.0000 </r>
       <r>   -36.5838     0.0000     3.0000 </r>
       <r>   -36.4111     0.0000     3.0000 </r>
       <r>   -36.2385     0.0000     3.0000 </r>
       <r>   -36.0658     0.0000     3.0000 </r>
       <r>   -35.8932     0.0000     3.0000 </r>
       <r>   -35.7205     0.0000     3.0000 </r>
       <r>   -35.5479     0.0000     3.0000 </r>
       <r>   -35.3753     0.0000     3.0000 </r>
       <r>   -35.2026     0.0000     3.0000 </r>
       <r>   -35.0300     0.0000     3.0000 </r>
       <r>   -34.8573     0.0000     3.0000 </r>
       <r>   -34.6847     0.0000     3.0000 </r>
       <r>   -34.5120     0.0000     3.0000 </r>
       <r>   -34.3394     0.0000     3.0000 </r>
       <r>   -34.1668     0.0000     3.0000 </r>
       <r>   -33.9941     0.0000     3.0000 </r>
       <r>   -33.8215     0.0000     3.0000 </r>
       <r>   -33.6488     0.0000     3.0000 </r>
       <r>   -33.4762     0.0000     3.0000 </r>
       <r>   -33.3035     0.0000     3.0000 </r>
       <r>   -33.1309     0.0000     3.0000 </r>
       <r>   -32.9583     0.0000     3.0000 </r>
       <r>   -32.7856     0.0000     3.0000 </r>
       <r>   -32.6130     0.0000     3.0000 </r>
       <r>   -32.4403     0.0000     3.0000 </r>
       <r>   -32.2677     0.0000     3.0000 </r>
       <r>   -32.0950     0.0000     3.0000 </r>
       <r>   -31.9224     0.0000     3.0000 </r>
       <r>   -31.7498     0.0000     3.0000 </r>
       <r>   -31.5771     0.0000     3.0000 </r>
       <r>   -31.4045     0.0000     3.0000 </r>
       <r>   -31.2318     0.0000     3.0000 </r>
       <r>   -31.0592     0.0000     3.0000 </r>
       <r>   -30.8865     0.0000     3.0000 </r>
       <r>   -30.7139     0.0000     3.0000 </r>
       <r>   -30.5413     0.0000     3.0000 </r>
       <r>   -30.3686     0.0000     3.0000 </r>
       <r>   -30.1960     0.0000     3.0000 </r>
       <r>   -30.0233     0.0000     3.0000 </r>
       <r>   -29.8507     0.0000     3.0000 </r>
       <r>   -29.6780     0.0000     3.0000 </r>
       <r>   -29.5054     0.0000     3.0000 </r>
       <r>   -29.3328     0.0000     3.0000 </r>
       <r>   -29.1601     0.0000     3.0000 </r>
       <r>   -28.9875     0.0000     3.0000 </r>
       <r>   -28.8148     0.0000     3.0000 </r>
       <r>   -28.6422     0.0000     3.0000 </r>
       <r>   -28.4695     0.0000     3.0000 </r>
       <r>   -28.2969     0.0000     3.0000 </r>
       <r>   -28.1243     0.0000     3.0000 </r>
       <r>   -27.9516     0.0000     3.0000 </r>
       <r>   -27.7790     0.0000     3.0000 </r>
       <r>   -27.6063     0.0000     3.0000 </r>
       <r>   -27.4337     0.0000     3.0000 </r>
       <r>   -27.2610     0.0000     3.0000 </r>
       <r>   -27.0884     0.0000     3.0000 </r>
       <r>   -26.9158     0.0000     3.0000 </r>
       <r>   -26.7431     0.0000     3.0000 </r>
       <r>   -26.5705     0.0000     3.0000 </r>
       <r>   -26.3978     0.0000     3.0000 </r>
       <r>   -26.2252     0.0000     3.0000 </r>
       <r>   -26.0525     0.0000     3.0000 </r>
       <r>   -25.8799     0.0000     3.0000 </r>
       <r>   -25.7073     0.0000     3.0000 </r>
       <r>   -25.5346     0.0000     3.0000 </r>
       <r>   -25.3620     0.0000     3.0000 </r>
       <r>   -25.1893     0.0000     3.0000 </r>
       <r>   -25.0167     0.0000     3.0000 </r>
       <r>   -24.8440     0.0000     3.0000 </r>
       <r>   -24.6714     0.0000     3.0000 </r>
       <r>   -24.4988     0.0000     3.0000 </r>
       <r>   -24.3261     0.0000     3.0000 </r>
       <r>   -24.1535     0.0000     3.0000 </r>
       <r>   -23.9808     0.0000     3.0000 </r>
       <r>   -23.8082     0.0000     3.0000 </r>
       <r>   -23.6355     0.0000     3.0000 </r>
       <r>   -23.4629     0.0000     3.0000 </r>
       <r>   -23.2903     0.0000     3.0000 </r>
       <r>   -23.1176     0.0000     3.0000 </r>
       <r>   -22.9450     0.0000     3.0000 </r>
       <r>   -22.7723     0.0000     3.0000 </r>
       <r>   -22.5997     0.0000     3.0000 </r>
       <r>   -22.4270     0.0000     3.0000 </r>
       <r>   -22.2544     0.0000     3.0000 </r>
       <r>   -22.0817     0.0000     3.0000 </r>
       <r>   -21.9091     0.0000     3.0000 </r>
       <r>   -21.7365     0.0000     3.0000 </r>
       <r>   -21.5638     0.0000     3.0000 </r>
       <r>   -21.3912     0.0000     3.0000 </r>
       <r>   -21.2185     0.0000     3.0000 </r>
       <r>   -21.0459     0.0000     3.0000 </r>
       <r>   -20.8732     0.0000     3.0000 </r>
       <r>   -20.7006     0.0000     3.0000 </r>
       <r>   -20.5280     0.0000     3.0000 </r>
       <r>   -20.3553     0.0000     3.0000 </r>
       <r>   -20.1827     0.0000     3.0000 </r>
       <r>   -20.0100     0.0000     3.0000 </r>
       <r>   -19.8374     0.0000     3.0000 </r>
       <r>   -19.6647     0.0000     3.0000 </r>
       <r>   -19.4921     0.0000     3.0000 </r>
       <r>   -19.3195     0.0000     3.0000 </r>
       <r>   -19.1468     0.0000     3.0000 </r>
       <r>   -18.9742     0.0000     3.0000 </r>
       <r>   -18.8015     0.0000     3.0000 </r>
       <r>   -18.6289     0.0000     3.0000 </r>
       <r>   -18.4562     0.0000     3.0000 </r>
       <r>   -18.2836     0.0000     3.0000 </r>
       <r>   -18.1110     0.0000     3.0000 </r>
       <r>   -17.9383     0.0000     3.0000 </r>
       <r>   -17.7657     0.0000     3.0000 </r>
       <r>   -17.5930     0.0000     3.0000 </r>
       <r>   -17.4204     0.0000     3.0000 </r>
       <r>   -17.2477     0.0000     3.0000 </r>
       <r>   -17.0751     0.0000     3.0000 </r>
       <r>   -16.9025     0.0000     3.0000 </r>
       <r>   -16.7298     0.0000     3.0000 </r>
       <r>   -16.5572     0.0000     3.0000 </r>
       <r>   -16.3845     0.0000     3.0000 </r>
       <r>   -16.2119     0.0000     3.0000 </r>
       <r>   -16.0392     0.0000     3.0000 </r>
       <r>   -15.8666     0.0000     3.0000 </r>
       <r>   -15.6940     0.0000     3.0000 </r>
       <r>   -15.5213     0.0000     3.0000 </r>
       <r>   -15.3487     0.0000     3.0000 </r>
       <r>   -15.1760     0.0000     3.0000 </r>
       <r>   -15.0034     0.0000     3.0000 </r>
       <r>   -14.8307     0.0000     3.0000 </r>
       <r>   -14.6581     0.0000     3.0000 </r>
       <r>   -14.4855     0.0000     3.0000 </r>
       <r>   -14.3128     0.0000     3.0000 </r>
       <r>   -14.1402     0.0000     3.0000 </r>
       <r>   -13.9675     0.0000     3.0000 </r>
       <r>   -13.7949     0.0000     3.0000 </r>
       <r>   -13.6222     0.0000     3.0000 </r>
       <r>   -13.4496     0.0000     3.0000 </r>
       <r>   -13.2770     0.0000     3.0000 </r>
       <r>   -13.1043     0.0000     3.0000 </r>
       <r>   -12.9317     0.0000     3.0000 </r>
       <r>   -12.7590     0.0000     3.0000 </r>
       <r>   -12.5864     0.0000     3.0000 </r>
       <r>   -12.4137     0.0000     3.0000 </r>
       <r>   -12.2411     0.0000     3.0000 </r>
       <r>   -12.0685     0.0000     3.0000 </r>
       <r>   -11.8958     0.0000     3.0000 </r>
       <r>   -11.7232     0.0000     3.0000 </r>
       <r>   -11.5505     0.0000     3.0000 </r>
       <r>   -11.3779     0.0000     3.0000 </r>
       <r>   -11.2052     0.0000     3.0000 </r>
       <r>   -11.0326     0.0000     3.0000 </r>
       <r>   -10.8600     0.0000     3.0000 </r>
       <r>   -10.6873     0.0000     3.0000 </r>
       <r>   -10.5147     0.0000     3.0000 </r>
       <r>   -10.3420     0.0000     3.0000 </r>
       <r>   -10.1694     0.0000     3.0000 </r>
       <r>    -9.9967     0.0000     3.0000 </r>
       <r>    -9.8241     0.0000     3.0000 </r>
       <r>    -9.6515     0.0000     3.0000 </r>
       <r>    -9.4788     0.0000     3.0000 </r>
       <r>    -9.3062     0.0000     3.0000 </r>
       <r>    -9.1335     0.0000     3.0000 </r>
       <r>    -8.9609     0.0000     3.0000 </r>
       <r>    -8.7882     0.0000     3.0000 </r>
       <r>    -8.6156     0.0000     3.0000 </r>
       <r>    -8.4430     0.0000     3.0000 </r>
       <r>    -8.2703     0.0000     3.0000 </r>
       <r>    -8.0977     0.0000     3.0000 </r>
       <r>    -7.9250     0.0000     3.0000 </r>
       <r>    -7.7524     0.0000     3.0000 </r>
       <r>    -7.5797     0.0000     3.0000 </r>
       <r>    -7.4071     0.0000     3.0000 </r>
       <r>    -7.2345     0.0000     3.0000 </r>
       <r>    -7.0618     0.0000     3.0000 </r>
       <r>    -6.8892     0.0000     3.0000 </r>
       <r>    -6.7165     0.0000     3.0000 </r>
       <r>    -6.5439     0.0000     3.0000 </r>
       <r>    -6.3712     0.0000     3.0000 </r>
       <r>    -6.1986     0.0000     3.0000 </r>
       <r>    -6.0260     0.0000     3.0000 </r>
       <r>    -5.8533     0.0000     3.0000 </r>
       <r>    -5.6807     0.0000     3.0000 </r>
       <r>    -5.5080     0.0000     3.0000 </r>
       <r>    -5.3354     0.0000     3.0000 </r>
       <r>    -5.1627     0.0000     3.0000 </r>
       <r>    -4.9901     0.0000     3.0000 </r>
       <r>    -4.8175     0.0000     3.0000 </r>
       <r>    -4.6448     0.0000     3.0000 </r>
       <r>    -4.4722     0.0000     3.0000 </r>
       <r>    -4.2995     0.0000     3.0000 </r>
       <r>    -4.1269     3.9685     3.6851 </r>
       <r>    -3.9542     1.8238     4.0000 </r>
       <r>    -3.7816     0.0000     4.0000 </r>
       <r>    -3.6089     0.0000     4.0000 </r>
       <r>    -3.4363     0.0000     4.0000 </r>
       <r>    -3.2637     0.0000     4.0000 </r>
       <r>    -3.0910     1.3205     4.2280 </r>
       <r>    -2.9184    16.0516     6.9992 </r>
       <r>    -2.7457     0.9386     7.1612 </r>
       <r>    -2.5731    10.6480     8.9995 </r>
       <r>    -2.4004     0.0029     9.0000 </r>
       <r>    -2.2278     0.0000     9.0000 </r>
       <r>    -2.0552     0.0000     9.0000 </r>
       <r>    -1.8825     0.0000     9.0000 </r>
       <r>    -1.7099     0.0000     9.0000 </r>
       <r>    -1.5372     0.0000     9.0000 </r>
       <r>    -1.3646     0.0000     9.0000 </r>
       <r>    -1.1919     0.0001     9.0000 </r>
       <r>    -1.0193    12.2242    11.1104 </r>
       <r>    -0.8467     5.1526    12.0000 </r>
       <r>    -0.6740     0.0000    12.0000 </r>
       <r>    -0.5014     0.0003    12.0001 </r>
       <r>    -0.3287     4.9096    12.8477 </r>
       <r>    -0.1561     0.8824    13.0000 </r>
       <r>     0.0166     0.0000    13.0000 </r>
       <r>     0.1892     0.0000    13.0000 </r>
       <r>     0.3618     0.0000    13.0000 </r>
       <r>     0.5345     0.0098    13.0017 </r>
       <r>     0.7071    11.1046    14.9188 </r>
       <r>     0.8798     0.4702    15.0000 </r>
       <r>     1.0524     0.0000    15.0000 </r>
       <r>     1.2251     0.0000    15.0000 </r>
       <r>     1.3977     6.1001    16.0531 </r>
       <r>     1.5703    11.6175    18.0588 </r>
       <r>     1.7430     9.2048    19.6480 </r>
       <r>     1.9156    13.6234    21.9999 </r>
       <r>     2.0883     0.0267    22.0045 </r>
       <r>     2.2609    18.6796    25.2294 </r>
       <r>     2.4336    10.2547    26.9998 </r>
       <r>     2.6062     0.0010    27.0000 </r>
       <r>     2.7788     0.0000    27.0000 </r>
       <r>     2.9515     0.0000    27.0000 </r>
       <r>     3.1241     0.0000    27.0000 </r>
       <r>     3.2968     0.0094    27.0016 </r>
       <r>     3.4694    17.3356    29.9945 </r>
       <r>     3.6421    28.9622    34.9946 </r>
       <r>     3.8147     0.0313    35.0000 </r>
       <r>     3.9873     0.0000    35.0000 </r>
       <r>     4.1600     0.0000    35.0000 </r>
       <r>     4.3326     0.0000    35.0000 </r>
       <r>     4.5053     0.8085    35.1396 </r>
       <r>     4.6779     4.9834    35.9999 </r>
       <r>     4.8506     0.0004    36.0000 </r>
       <r>     5.0232     0.0000    36.0000 </r>
       <r>     5.1958     0.0000    36.0000 </r>
       <r>     5.3685     0.0000    36.0000 </r>
       <r>     5.5411     0.0000    36.0000 </r>
       <r>     5.7138     0.0000    36.0000 </r>
       <r>     5.8864     0.0000    36.0000 </r>
       <r>     6.0591     0.0000    36.0000 </r>
       <r>     6.2317     0.0000    36.0000 </r>
       <r>     6.4043     0.0000    36.0000 </r>
       <r>     6.5770     0.0000    36.0000 </r>
       <r>     6.7496     0.0000    36.0000 </r>
       <r>     6.9223     0.0000    36.0000 </r>
       <r>     7.0949     0.0000    36.0000 </r>
       <r>     7.2676     0.0000    36.0000 </r>
       <r>     7.4402     0.0000    36.0000 </r>
       <r>     7.6128     0.0000    36.0000 </r>
       <r>     7.7855     0.0000    36.0000 </r>
       <r>     7.9581     0.0000    36.0000 </r>
       <r>     8.1308     0.0000    36.0000 </r>
       <r>     8.3034     0.0000    36.0000 </r>
       <r>     8.4761     0.0000    36.0000 </r>
      </set>
      <set comment="spin 2">
       <r>   -43.3168     0.0000     0.0000 </r>
       <r>   -43.1442     0.0000     0.0000 </r>
       <r>   -42.9716     0.0000     0.0000 </r>
       <r>   -42.7989     0.0000     0.0000 </r>
       <r>   -42.6263     0.0000     0.0000 </r>
       <r>   -42.4536     0.0000     0.0000 </r>
       <r>   -42.2810     0.0000     0.0000 </r>
       <r>   -42.1083     0.0000     0.0000 </r>
       <r>   -41.9357     0.0000     0.0000 </r>
       <r>   -41.7631     0.0000     0.0000 </r>
       <r>   -41.5904     0.0000     0.0000 </r>
       <r>   -41.4178     0.0000     0.0000 </r>
       <r>   -41.2451     0.0000     0.0000 </r>
       <r>   -41.0725     0.0000     0.0000 </r>
       <r>   -40.8998     0.0000     0.0000 </r>
       <r>   -40.7272     0.0000     0.0000 </r>
       <r>   -40.5546     0.0000     0.0000 </r>
       <r>   -40.3819     0.0000     0.0000 </r>
       <r>   -40.2093     0.0000     0.0000 </r>
       <r>   -40.0366     0.0000     0.0000 </r>
       <r>   -39.8640     0.0000     0.0000 </r>
       <r>   -39.6913     0.0000     0.0000 </r>
       <r>   -39.5187     0.0000     0.0000 </r>
       <r>   -39.3460     0.0000     0.0000 </r>
       <r>   -39.1734     0.0000     0.0000 </r>
       <r>   -39.0008     0.0000     0.0000 </r>
       <r>   -38.8281     0.0000     0.0000 </r>
       <r>   -38.6555     0.0000     0.0000 </r>
       <r>   -38.4828     0.0000     0.0000 </r>
       <r>   -38.3102     0.0000     0.0000 </r>
       <r>   -38.1375     0.0000     0.0000 </r>
       <r>   -37.9649     0.0000     0.0000 </r>
       <r>   -37.7923     0.2112     0.0365 </r>
       <r>   -37.6196    17.0917     2.9872 </r>
       <r>   -37.4470     0.0740     3.0000 </r>
       <r>   -37.2743     0.0000     3.0000 </r>
       <r>   -37.1017     0.0000     3.0000 </r>
       <r>   -36.9290     0.0000     3.0000 </r>
       <r>   -36.7564     0.0000     3.0000 </r>
       <r>   -36.5838     0.0000     3.0000 </r>
       <r>   -36.4111     0.0000     3.0000 </r>
       <r>   -36.2385     0.0000     3.0000 </r>
       <r>   -36.0658     0.0000     3.0000 </r>
       <r>   -35.8932     0.0000     3.0000 </r>
       <r>   -35.7205     0.0000     3.0000 </r>
       <r>   -35.5479     0.0000     3.0000 </r>
       <r>   -35.3753     0.0000     3.0000 </r>
       <r>   -35.2026     0.0000     3.0000 </r>
       <r>   -35.0300     0.0000     3.0000 </r>
       <r>   -34.8573     0.0000     3.0000 </r>
       <r>   -34.6847     0.0000     3.0000 </r>
       <r>   -34.5120     0.0000     3.0000 </r>
       <r>   -34.3394     0.0000     3.0000 </r>
       <r>   -34.1668     0.0000     3.0000 </r>
       <r>   -33.9941     0.0000     3.0000 </r>
       <r>   -33.8215     0.0000     3.0000 </r>
       <r>   -33.6488     0.0000     3.0000 </r>
       <r>   -33.4762     0.0000     3.0000 </r>
       <r>   -33.3035     0.0000     3.0000 </r>
       <r>   -33.1309     0.0000     3.0000 </r>
       <r>   -32.9583     0.0000     3.0000 </r>
       <r>   -32.7856     0.0000     3.0000 </r>
       <r>   -32.6130     0.0000     3.0000 </r>
       <r>   -32.4403     0.0000     3.0000 </r>
       <r>   -32.2677     0.0000     3.0000 </r>
       <r>   -32.0950     0.0000     3.0000 </r>
       <r>   -31.9224     0.0000     3.0000 </r>
       <r>   -31.7498     0.0000     3.0000 </r>
       <r>   -31.5771     0.0000     3.0000 </r>
       <r>   -31.4045     0.0000     3.0000 </r>
       <r>   -31.2318     0.0000     3.0000 </r>
       <r>   -31.0592     0.0000     3.0000 </r>
       <r>   -30.8865     0.0000     3.0000 </r>
       <r>   -30.7139     0.0000     3.0000 </r>
       <r>   -30.5413     0.0000     3.0000 </r>
       <r>   -30.3686     0.0000     3.0000 </r>
       <r>   -30.1960     0.0000     3.0000 </r>
       <r>   -30.0233     0.0000     3.0000 </r>
       <r>   -29.8507     0.0000     3.0000 </r>
       <r>   -29.6780     0.0000     3.0000 </r>
       <r>   -29.5054     0.0000     3.0000 </r>
       <r>   -29.3328     0.0000     3.0000 </r>
       <r>   -29.1601     0.0000     3.0000 </r>
       <r>   -28.9875     0.0000     3.0000 </r>
       <r>   -28.8148     0.0000     3.0000 </r>
       <r>   -28.6422     0.0000     3.0000 </r>
       <r>   -28.4695     0.0000     3.0000 </r>
       <r>   -28.2969     0.0000     3.0000 </r>
       <r>   -28.1243     0.0000     3.0000 </r>
       <r>   -27.9516     0.0000     3.0000 </r>
       <r>   -27.7790     0.0000     3.0000 </r>
       <r>   -27.6063     0.0000     3.0000 </r>
       <r>   -27.4337     0.0000     3.0000 </r>
       <r>   -27.2610     0.0000     3.0000 </r>
       <r>   -27.0884     0.0000     3.0000 </r>
       <r>   -26.9158     0.0000     3.0000 </r>
       <r>   -26.7431     0.0000     3.0000 </r>
       <r>   -26.5705     0.0000     3.0000 </r>
       <r>   -26.3978     0.0000     3.0000 </r>
       <r>   -26.2252     0.0000     3.0000 </r>
       <r>   -26.0525     0.0000     3.0000 </r>
       <r>   -25.8799     0.0000     3.0000 </r>
       <r>   -25.7073     0.0000     3.0000 </r>
       <r>   -25.5346     0.0000     3.0000 </r>
       <r>   -25.3620     0.0000     3.0000 </r>
       <r>   -25.1893     0.0000     3.0000 </r>
       <r>   -25.0167     0.0000     3.0000 </r>
       <r>   -24.8440     0.0000     3.0000 </r>
       <r>   -24.6714     0.0000     3.0000 </r>
       <r>   -24.4988     0.0000     3.0000 </r>
       <r>   -24.3261     0.0000     3.0000 </r>
       <r>   -24.1535     0.0000     3.0000 </r>
       <r>   -23.9808     0.0000     3.0000 </r>
       <r>   -23.8082     0.0000     3.0000 </r>
       <r>   -23.6355     0.0000     3.0000 </r>
       <r>   -23.4629     0.0000     3.0000 </r>
       <r>   -23.2903     0.0000     3.0000 </r>
       <r>   -23.1176     0.0000     3.0000 </r>
       <r>   -22.9450     0.0000     3.0000 </r>
       <r>   -22.7723     0.0000     3.0000 </r>
       <r>   -22.5997     0.0000     3.0000 </r>
       <r>   -22.4270     0.0000     3.0000 </r>
       <r>   -22.2544     0.0000     3.0000 </r>
       <r>   -22.0817     0.0000     3.0000 </r>
       <r>   -21.9091     0.0000     3.0000 </r>
       <r>   -21.7365     0.0000     3.0000 </r>
       <r>   -21.5638     0.0000     3.0000 </r>
       <r>   -21.3912     0.0000     3.0000 </r>
       <r>   -21.2185     0.0000     3.0000 </r>
       <r>   -21.0459     0.0000     3.0000 </r>
       <r>   -20.8732     0.0000     3.0000 </r>
       <r>   -20.7006     0.0000     3.0000 </r>
       <r>   -20.5280     0.0000     3.0000 </r>
       <r>   -20.3553     0.0000     3.0000 </r>
       <r>   -20.1827     0.0000     3.0000 </r>
       <r>   -20.0100     0.0000     3.0000 </r>
       <r>   -19.8374     0.0000     3.0000 </r>
       <r>   -19.6647     0.0000     3.0000 </r>
       <r>   -19.4921     0.0000     3.0000 </r>
       <r>   -19.3195     0.0000     3.0000 </r>
       <r>   -19.1468     0.0000     3.0000 </r>
       <r>   -18.9742     0.0000     3.0000 </r>
       <r>   -18.8015     0.0000     3.0000 </r>
       <r>   -18.6289     0.0000     3.0000 </r>
       <r>   -18.4562     0.0000     3.0000 </r>
       <r>   -18.2836     0.0000     3.0000 </r>
       <r>   -18.1110     0.0000     3.0000 </r>
       <r>   -17.9383     0.0000     3.0000 </r>
       <r>   -17.7657     0.0000     3.0000 </r>
       <r>   -17.5930     0.0000     3.0000 </r>
       <r>   -17.4204     0.0000     3.0000 </r>
       <r>   -17.2477     0.0000     3.0000 </r>
       <r>   -17.0751     0.0000     3.0000 </r>
       <r>   -16.9025     0.0000     3.0000 </r>
       <r>   -16.7298     0.0000     3.0000 </r>
       <r>   -16.5572     0.0000     3.0000 </r>
       <r>   -16.3845     0.0000     3.0000 </r>
       <r>   -16.2119     0.0000     3.0000 </r>
       <r>   -16.0392     0.0000     3.0000 </r>
       <r>   -15.8666     0.0000     3.0000 </r>
       <r>   -15.6940     0.0000     3.0000 </r>
       <r>   -15.5213     0.0000     3.0000 </r>
       <r>   -15.3487     0.0000     3.0000 </r>
       <r>   -15.1760     0.0000     3.0000 </r>
       <r>   -15.0034     0.0000     3.0000 </r>
       <r>   -14.8307     0.0000     3.0000 </r>
       <r>   -14.6581     0.0000     3.0000 </r>
       <r>   -14.4855     0.0000     3.0000 </r>
       <r>   -14.3128     0.0000     3.0000 </r>
       <r>   -14.1402     0.0000     3.0000 </r>
       <r>   -13.9675     0.0000     3.0000 </r>
       <r>   -13.7949     0.0000     3.0000 </r>
       <r>   -13.6222     0.0000     3.0000 </r>
       <r>   -13.4496     0.0000     3.0000 </r>
       <r>   -13.2770     0.0000     3.0000 </r>
       <r>   -13.1043     0.0000     3.0000 </r>
       <r>   -12.9317     0.0000     3.0000 </r>
       <r>   -12.7590     0.0000     3.0000 </r>
       <r>   -12.5864     0.0000     3.0000 </r>
       <r>   -12.4137     0.0000     3.0000 </r>
       <r>   -12.2411     0.0000     3.0000 </r>
       <r>   -12.0685     0.0000     3.0000 </r>
       <r>   -11.8958     0.0000     3.0000 </r>
       <r>   -11.7232     0.0000     3.0000 </r>
       <r>   -11.5505     0.0000     3.0000 </r>
       <r>   -11.3779     0.0000     3.0000 </r>
       <r>   -11.2052     0.0000     3.0000 </r>
       <r>   -11.0326     0.0000     3.0000 </r>
       <r>   -10.8600     0.0000     3.0000 </r>
       <r>   -10.6873     0.0000     3.0000 </r>
       <r>   -10.5147     0.0000     3.0000 </r>
       <r>   -10.3420     0.0000     3.0000 </r>
       <r>   -10.1694     0.0000     3.0000 </r>
       <r>    -9.9967     0.0000     3.0000 </r>
       <r>    -9.8241     0.0000     3.0000 </r>
       <r>    -9.6515     0.0000     3.0000 </r>
       <r>    -9.4788     0.0000     3.0000 </r>
       <r>    -9.3062     0.0000     3.0000 </r>
       <r>    -9.1335     0.0000     3.0000 </r>
       <r>    -8.9609     0.0000     3.0000 </r>
       <r>    -8.7882     0.0000     3.0000 </r>
       <r>    -8.6156     0.0000     3.0000 </r>
       <r>    -8.4430     0.0000     3.0000 </r>
       <r>    -8.2703     0.0000     3.0000 </r>
       <r>    -8.0977     0.0000     3.0000 </r>
       <r>    -7.9250     0.0000     3.0000 </r>
       <r>    -7.7524     0.0000     3.0000 </r>
       <r>    -7.5797     0.0000     3.0000 </r>
       <r>    -7.4071     0.0000     3.0000 </r>
       <r>    -7.2345     0.0000     3.0000 </r>
       <r>    -7.0618     0.0000     3.0000 </r>
       <r>    -6.8892     0.0000     3.0000 </r>
       <r>    -6.7165     0.0000     3.0000 </r>
       <r>    -6.5439     0.0000     3.0000 </r>
       <r>    -6.3712     0.0000     3.0000 </r>
       <r>    -6.1986     0.0000     3.0000 </r>
       <r>    -6.0260     0.0000     3.0000 </r>
       <r>    -5.8533     0.0000     3.0000 </r>
       <r>    -5.6807     0.0000     3.0000 </r>
       <r>    -5.5080     0.0000     3.0000 </r>
       <r>    -5.3354     0.0000     3.0000 </r>
       <r>    -5.1627     0.0000     3.0000 </r>
       <r>    -4.9901     0.0000     3.0000 </r>
       <r>    -4.8175     0.0000     3.0000 </r>
       <r>    -4.6448     0.0000     3.0000 </r>
       <r>    -4.4722     0.0000     3.0000 </r>
       <r>    -4.2995     0.0000     3.0000 </r>
       <r>    -4.1269     0.0000     3.0000 </r>
       <r>    -3.9542     0.0000     3.0000 </r>
       <r>    -3.7816     0.0000     3.0000 </r>
       <r>    -3.6089     0.0000     3.0000 </r>
       <r>    -3.4363     0.0000     3.0000 </r>
       <r>    -3.2637     0.0000     3.0000 </r>
       <r>    -3.0910     0.0000     3.0000 </r>
       <r>    -2.9184     0.0000     3.0000 </r>
       <r>    -2.7457     0.0000     3.0000 </r>
       <r>    -2.5731     0.0000     3.0000 </r>
       <r>    -2.4004     0.0000     3.0000 </r>
       <r>    -2.2278     0.0000     3.0000 </r>
       <r>    -2.0552     0.0000     3.0000 </r>
       <r>    -1.8825     0.0000     3.0000 </r>
       <r>    -1.7099     0.0000     3.0000 </r>
       <r>    -1.5372     0.0000     3.0000 </r>
       <r>    -1.3646     1.4893     3.2571 </r>
       <r>    -1.1919     4.3029     4.0000 </r>
       <r>    -1.0193     0.0001     4.0000 </r>
       <r>    -0.8467     0.0000     4.0000 </r>
       <r>    -0.6740     0.0000     4.0000 </r>
       <r>    -0.5014     0.0000     4.0000 </r>
       <r>    -0.3287     0.0000     4.0000 </r>
       <r>    -0.1561     0.0000     4.0000 </r>
       <r>     0.0166     3.3821     4.5839 </r>
       <r>     0.1892     8.2024     6.0000 </r>
       <r>     0.3618     3.4717     6.5994 </r>
       <r>     0.5345    16.4032     9.4312 </r>
       <r>     0.7071     3.2944    10.0000 </r>
       <r>     0.8798     0.0000    10.0000 </r>
       <r>     1.0524     0.0000    10.0000 </r>
       <r>     1.2251     0.0060    10.0010 </r>
       <r>     1.3977    16.1867    12.7956 </r>
       <r>     1.5703     1.1842    13.0000 </r>
       <r>     1.7430     5.8008    14.0015 </r>
       <r>     1.9156     5.7838    15.0000 </r>
       <r>     2.0883     0.0000    15.0000 </r>
       <r>     2.2609     0.0000    15.0000 </r>
       <r>     2.4336     1.2159    15.2099 </r>
       <r>     2.6062    21.9217    18.9945 </r>
       <r>     2.7788     0.0316    19.0000 </r>
       <r>     2.9515     0.0000    19.0000 </r>
       <r>     3.1241     0.1061    19.0183 </r>
       <r>     3.2968    43.9954    26.6138 </r>
       <r>     3.4694     2.2368    27.0000 </r>
       <r>     3.6421     0.0000    27.0000 </r>
       <r>     3.8147     0.0000    27.0000 </r>
       <r>     3.9873     0.0000    27.0000 </r>
       <r>     4.1600     0.0013    27.0002 </r>
       <r>     4.3326     5.5914    27.9655 </r>
       <r>     4.5053    16.6596    30.8417 </r>
       <r>     4.6779    13.5369    33.1788 </r>
       <r>     4.8506    10.5465    34.9996 </r>
       <r>     5.0232     0.0025    35.0000 </r>
       <r>     5.1958     0.0000    35.0000 </r>
       <r>     5.3685     0.0000    35.0000 </r>
       <r>     5.5411     0.0000    35.0000 </r>
       <r>     5.7138     0.0000    35.0000 </r>
       <r>     5.8864     0.0000    35.0000 </r>
       <r>     6.0591     0.2195    35.0379 </r>
       <r>     6.2317     5.5673    35.9991 </r>
       <r>     6.4043     0.0055    36.0000 </r>
       <r>     6.5770     0.0000    36.0000 </r>
       <r>     6.7496     0.0000    36.0000 </r>
       <r>     6.9223     0.0000    36.0000 </r>
       <r>     7.0949     0.0000    36.0000 </r>
       <r>     7.2676     0.0000    36.0000 </r>
       <r>     7.4402     0.0000    36.0000 </r>
       <r>     7.6128     0.0000    36.0000 </r>
       <r>     7.7855     0.0000    36.0000 </r>
       <r>     7.9581     0.0000    36.0000 </r>
       <r>     8.1308     0.0000    36.0000 </r>
       <r>     8.3034     0.0000    36.0000 </r>
       <r>     8.4761     0.0000    36.0000 </r>
      </set>
     </set>
    </array>
   </total>
   <partial>
    <array>
     <dimension dim="1">gridpoints</dimension>
     <dimension dim="2">spin</dimension>
     <dimension dim="3">ion</dimension>
     <field>energy</field>
     <field>    s</field>
     <field>   py</field>
     <field>   pz</field>
     <field>   px</field>
     <field>  dxy</field>
     <field>  dyz</field>
     <field>  dz2</field>
     <field>  dxz</field>
     <field>x2-y2</field>
     <set>
      <set comment="ion 1">
       <set comment="spin 1">
        <r>   -43.3168     0.0000     0.0000     0.0000     0.0000     0.0000     0.0000     0.0000     0.0000     0.0000 </r>
        <r>   -43.1442     0.0000     0.0000     0.0000     0.0000     0.0000     0.0000     0.0000     0.0000     0.0000 </r>
        <r>   -42.9716     0.0000     0.0000     0.0000     0.0000     0.0000     0.0000     0.0000     0.0000     0.0000 </r>
        <r>   -42.7989     0.0000     0.0000     0.0000     0.0000     0.0000     0.0000     0.0000     0.0000     0.0000 </r>
        <r>   -42.6263     0.0000     0.0000     0.0000     0.0000     0.0000     0.0000     0.0000     0.0000     0.0000 </r>
        <r>   -42.4536     0.0000     0.0000     0.0000     0.0000     0.0000     0.0000     0.0000     0.0000     0.0000 </r>
        <r>   -42.2810     0.0000     0.0000     0.0000     0.0000     0.0000     0.0000     0.0000     0.0000     0.0000 </r>
        <r>   -42.1083     0.0000     0.0000     0.0000     0.0000     0.0000     0.0000     0.0000     0.0000     0.0000 </r>
        <r>   -41.9357     0.0000     0.0000     0.0000     0.0000     0.0000     0.0000     0.0000     0.0000     0.0000 </r>
        <r>   -41.7631     0.0000     0.0000     0.0000     0.0000     0.0000     0.0000     0.0000     0.0000     0.0000 </r>
        <r>   -41.5904     0.0000     0.0000     0.0000     0.0000     0.0000     0.0000     0.0000     0.0000     0.0000 </r>
        <r>   -41.4178     0.0000     0.0000     0.0000     0.0000     0.0000     0.0000     0.0000     0.0000     0.0000 </r>
        <r>   -41.2451     0.0000     0.0000     0.0000     0.0000     0.0000     0.0000     0.0000     0.0000     0.0000 </r>
        <r>   -41.0725     0.0000     0.0054     0.0054     0.0054     0.0000     0.0000     0.0000     0.0000     0.0000 </r>
        <r>   -40.8998     0.0000     5.5257     5.5257     5.5255     0.0000     0.0000     0.0000     0.0000     0.0000 </r>
        <r>   -40.7272     0.0000     0.2179     0.2179     0.2181     0.0000     0.0000     0.0000     0.0000     0.0000 </r>
        <r>   -40.5546     0.0000     0.0000     0.0000     0.0000     0.0000     0.0000     0.0000     0.0000     0.0000 </r>
        <r>   -40.3819     0.0000     0.0000     0.0000     0.0000     0.0000     0.0000     0.0000     0.0000     0.0000 </r>
        <r>   -40.2093     0.0000     0.0000     0.0000     0.0000     0.0000     0.0000     0.0000     0.0000     0.0000 </r>
        <r>   -40.0366     0.0000     0.0000     0.0000     0.0000     0.0000     0.0000     0.0000     0.0000     0.0000 </r>
        <r>   -39.8640     0.0000     0.0000     0.0000     0.0000     0.0000     0.0000     0.0000     0.0000     0.0000 </r>
        <r>   -39.6913     0.0000     0.0000     0.0000     0.0000     0.0000     0.0000     0.0000     0.0000     0.0000 </r>
        <r>   -39.5187     0.0000     0.0000     0.0000     0.0000     0.0000     0.0000     0.0000     0.0000     0.0000 </r>
        <r>   -39.3460     0.0000     0.0000     0.0000     0.0000     0.0000     0.0000     0.0000     0.0000     0.0000 </r>
        <r>   -39.1734     0.0000     0.0000     0.0000     0.0000     0.0000     0.0000     0.0000     0.0000     0.0000 </r>
        <r>   -39.0008     0.0000     0.0000     0.0000     0.0000     0.0000     0.0000     0.0000     0.0000     0.0000 </r>
        <r>   -38.8281     0.0000     0.0000     0.0000     0.0000     0.0000     0.0000     0.0000     0.0000     0.0000 </r>
        <r>   -38.6555     0.0000     0.0000     0.0000     0.0000     0.0000     0.0000     0.0000     0.0000     0.0000 </r>
        <r>   -38.4828     0.0000     0.0000     0.0000     0.0000     0.0000     0.0000     0.0000     0.0000     0.0000 </r>
        <r>   -38.3102     0.0000     0.0000     0.0000     0.0000     0.0000     0.0000     0.0000     0.0000     0.0000 </r>
        <r>   -38.1375     0.0000     0.0000     0.0000     0.0000     0.0000     0.0000     0.0000     0.0000     0.0000 </r>
        <r>   -37.9649     0.0000     0.0000     0.0000     0.0000     0.0000     0.0000     0.0000     0.0000     0.0000 </r>
        <r>   -37.7923     0.0000     0.0000     0.0000     0.0000     0.0000     0.0000     0.0000     0.0000     0.0000 </r>
        <r>   -37.6196     0.0000     0.0000     0.0000     0.0000     0.0000     0.0000     0.0000     0.0000     0.0000 </r>
        <r>   -37.4470     0.0000     0.0000     0.0000     0.0000     0.0000     0.0000     0.0000     0.0000     0.0000 </r>
        <r>   -37.2743     0.0000     0.0000     0.0000     0.0000     0.0000     0.0000     0.0000     0.0000     0.0000 </r>
        <r>   -37.1017     0.0000     0.0000     0.0000     0.0000     0.0000     0.0000     0.0000     0.0000     0.0000 </r>
        <r>   -36.9290     0.0000     0.0000     0.0000     0.0000     0.0000     0.0000     0.0000     0.0000     0.0000 </r>
        <r>   -36.7564     0.0000     0.0000     0.0000     0.0000     0.0000     0.0000     0.0000     0.0000     0.0000 </r>
        <r>   -36.5838     0.0000     0.0000     0.0000     0.0000     0.0000     0.0000     0.0000     0.0000     0.0000 </r>
        <r>   -36.4111     0.0000     0.0000     0.0000     0.0000     0.0000     0.0000     0.0000     0.0000     0.0000 </r>
        <r>   -36.2385     0.0000     0.0000     0.0000     0.0000     0.0000     0.0000     0.0000     0.0000     0.0000 </r>
        <r>   -36.0658     0.0000     0.0000     0.0000     0.0000     0.0000     0.0000     0.0000     0.0000     0.0000 </r>
        <r>   -35.8932     0.0000     0.0000     0.0000     0.0000     0.0000     0.0000     0.0000     0.0000     0.0000 </r>
        <r>   -35.7205     0.0000     0.0000     0.0000     0.0000     0.0000     0.0000     0.0000     0.0000     0.0000 </r>
        <r>   -35.5479     0.0000     0.0000     0.0000     0.0000     0.0000     0.0000     0.0000     0.0000     0.0000 </r>
        <r>   -35.3753     0.0000     0.0000     0.0000     0.0000     0.0000     0.0000     0.0000     0.0000     0.0000 </r>
        <r>   -35.2026     0.0000     0.0000     0.0000     0.0000     0.0000     0.0000     0.0000     0.0000     0.0000 </r>
        <r>   -35.0300     0.0000     0.0000     0.0000     0.0000     0.0000     0.0000     0.0000     0.0000     0.0000 </r>
        <r>   -34.8573     0.0000     0.0000     0.0000     0.0000     0.0000     0.0000     0.0000     0.0000     0.0000 </r>
        <r>   -34.6847     0.0000     0.0000     0.0000     0.0000     0.0000     0.0000     0.0000     0.0000     0.0000 </r>
        <r>   -34.5120     0.0000     0.0000     0.0000     0.0000     0.0000     0.0000     0.0000     0.0000     0.0000 </r>
        <r>   -34.3394     0.0000     0.0000     0.0000     0.0000     0.0000     0.0000     0.0000     0.0000     0.0000 </r>
        <r>   -34.1668     0.0000     0.0000     0.0000     0.0000     0.0000     0.0000     0.0000     0.0000     0.0000 </r>
        <r>   -33.9941     0.0000     0.0000     0.0000     0.0000     0.0000     0.0000     0.0000     0.0000     0.0000 </r>
        <r>   -33.8215     0.0000     0.0000     0.0000     0.0000     0.0000     0.0000     0.0000     0.0000     0.0000 </r>
        <r>   -33.6488     0.0000     0.0000     0.0000     0.0000     0.0000     0.0000     0.0000     0.0000     0.0000 </r>
        <r>   -33.4762     0.0000     0.0000     0.0000     0.0000     0.0000     0.0000     0.0000     0.0000     0.0000 </r>
        <r>   -33.3035     0.0000     0.0000     0.0000     0.0000     0.0000     0.0000     0.0000     0.0000     0.0000 </r>
        <r>   -33.1309     0.0000     0.0000     0.0000     0.0000     0.0000     0.0000     0.0000     0.0000     0.0000 </r>
        <r>   -32.9583     0.0000     0.0000     0.0000     0.0000     0.0000     0.0000     0.0000     0.0000     0.0000 </r>
        <r>   -32.7856     0.0000     0.0000     0.0000     0.0000     0.0000     0.0000     0.0000     0.0000     0.0000 </r>
        <r>   -32.6130     0.0000     0.0000     0.0000     0.0000     0.0000     0.0000     0.0000     0.0000     0.0000 </r>
        <r>   -32.4403     0.0000     0.0000     0.0000     0.0000     0.0000     0.0000     0.0000     0.0000     0.0000 </r>
        <r>   -32.2677     0.0000     0.0000     0.0000     0.0000     0.0000     0.0000     0.0000     0.0000     0.0000 </r>
        <r>   -32.0950     0.0000     0.0000     0.0000     0.0000     0.0000     0.0000     0.0000     0.0000     0.0000 </r>
        <r>   -31.9224     0.0000     0.0000     0.0000     0.0000     0.0000     0.0000     0.0000     0.0000     0.0000 </r>
        <r>   -31.7498     0.0000     0.0000     0.0000     0.0000     0.0000     0.0000     0.0000     0.0000     0.0000 </r>
        <r>   -31.5771     0.0000     0.0000     0.0000     0.0000     0.0000     0.0000     0.0000     0.0000     0.0000 </r>
        <r>   -31.4045     0.0000     0.0000     0.0000     0.0000     0.0000     0.0000     0.0000     0.0000     0.0000 </r>
        <r>   -31.2318     0.0000     0.0000     0.0000     0.0000     0.0000     0.0000     0.0000     0.0000     0.0000 </r>
        <r>   -31.0592     0.0000     0.0000     0.0000     0.0000     0.0000     0.0000     0.0000     0.0000     0.0000 </r>
        <r>   -30.8865     0.0000     0.0000     0.0000     0.0000     0.0000     0.0000     0.0000     0.0000     0.0000 </r>
        <r>   -30.7139     0.0000     0.0000     0.0000     0.0000     0.0000     0.0000     0.0000     0.0000     0.0000 </r>
        <r>   -30.5413     0.0000     0.0000     0.0000     0.0000     0.0000     0.0000     0.0000     0.0000     0.0000 </r>
        <r>   -30.3686     0.0000     0.0000     0.0000     0.0000     0.0000     0.0000     0.0000     0.0000     0.0000 </r>
        <r>   -30.1960     0.0000     0.0000     0.0000     0.0000     0.0000     0.0000     0.0000     0.0000     0.0000 </r>
        <r>   -30.0233     0.0000     0.0000     0.0000     0.0000     0.0000     0.0000     0.0000     0.0000     0.0000 </r>
        <r>   -29.8507     0.0000     0.0000     0.0000     0.0000     0.0000     0.0000     0.0000     0.0000     0.0000 </r>
        <r>   -29.6780     0.0000     0.0000     0.0000     0.0000     0.0000     0.0000     0.0000     0.0000     0.0000 </r>
        <r>   -29.5054     0.0000     0.0000     0.0000     0.0000     0.0000     0.0000     0.0000     0.0000     0.0000 </r>
        <r>   -29.3328     0.0000     0.0000     0.0000     0.0000     0.0000     0.0000     0.0000     0.0000     0.0000 </r>
        <r>   -29.1601     0.0000     0.0000     0.0000     0.0000     0.0000     0.0000     0.0000     0.0000     0.0000 </r>
        <r>   -28.9875     0.0000     0.0000     0.0000     0.0000     0.0000     0.0000     0.0000     0.0000     0.0000 </r>
        <r>   -28.8148     0.0000     0.0000     0.0000     0.0000     0.0000     0.0000     0.0000     0.0000     0.0000 </r>
        <r>   -28.6422     0.0000     0.0000     0.0000     0.0000     0.0000     0.0000     0.0000     0.0000     0.0000 </r>
        <r>   -28.4695     0.0000     0.0000     0.0000     0.0000     0.0000     0.0000     0.0000     0.0000     0.0000 </r>
        <r>   -28.2969     0.0000     0.0000     0.0000     0.0000     0.0000     0.0000     0.0000     0.0000     0.0000 </r>
        <r>   -28.1243     0.0000     0.0000     0.0000     0.0000     0.0000     0.0000     0.0000     0.0000     0.0000 </r>
        <r>   -27.9516     0.0000     0.0000     0.0000     0.0000     0.0000     0.0000     0.0000     0.0000     0.0000 </r>
        <r>   -27.7790     0.0000     0.0000     0.0000     0.0000     0.0000     0.0000     0.0000     0.0000     0.0000 </r>
        <r>   -27.6063     0.0000     0.0000     0.0000     0.0000     0.0000     0.0000     0.0000     0.0000     0.0000 </r>
        <r>   -27.4337     0.0000     0.0000     0.0000     0.0000     0.0000     0.0000     0.0000     0.0000     0.0000 </r>
        <r>   -27.2610     0.0000     0.0000     0.0000     0.0000     0.0000     0.0000     0.0000     0.0000     0.0000 </r>
        <r>   -27.0884     0.0000     0.0000     0.0000     0.0000     0.0000     0.0000     0.0000     0.0000     0.0000 </r>
        <r>   -26.9158     0.0000     0.0000     0.0000     0.0000     0.0000     0.0000     0.0000     0.0000     0.0000 </r>
        <r>   -26.7431     0.0000     0.0000     0.0000     0.0000     0.0000     0.0000     0.0000     0.0000     0.0000 </r>
        <r>   -26.5705     0.0000     0.0000     0.0000     0.0000     0.0000     0.0000     0.0000     0.0000     0.0000 </r>
        <r>   -26.3978     0.0000     0.0000     0.0000     0.0000     0.0000     0.0000     0.0000     0.0000     0.0000 </r>
        <r>   -26.2252     0.0000     0.0000     0.0000     0.0000     0.0000     0.0000     0.0000     0.0000     0.0000 </r>
        <r>   -26.0525     0.0000     0.0000     0.0000     0.0000     0.0000     0.0000     0.0000     0.0000     0.0000 </r>
        <r>   -25.8799     0.0000     0.0000     0.0000     0.0000     0.0000     0.0000     0.0000     0.0000     0.0000 </r>
        <r>   -25.7073     0.0000     0.0000     0.0000     0.0000     0.0000     0.0000     0.0000     0.0000     0.0000 </r>
        <r>   -25.5346     0.0000     0.0000     0.0000     0.0000     0.0000     0.0000     0.0000     0.0000     0.0000 </r>
        <r>   -25.3620     0.0000     0.0000     0.0000     0.0000     0.0000     0.0000     0.0000     0.0000     0.0000 </r>
        <r>   -25.1893     0.0000     0.0000     0.0000     0.0000     0.0000     0.0000     0.0000     0.0000     0.0000 </r>
        <r>   -25.0167     0.0000     0.0000     0.0000     0.0000     0.0000     0.0000     0.0000     0.0000     0.0000 </r>
        <r>   -24.8440     0.0000     0.0000     0.0000     0.0000     0.0000     0.0000     0.0000     0.0000     0.0000 </r>
        <r>   -24.6714     0.0000     0.0000     0.0000     0.0000     0.0000     0.0000     0.0000     0.0000     0.0000 </r>
        <r>   -24.4988     0.0000     0.0000     0.0000     0.0000     0.0000     0.0000     0.0000     0.0000     0.0000 </r>
        <r>   -24.3261     0.0000     0.0000     0.0000     0.0000     0.0000     0.0000     0.0000     0.0000     0.0000 </r>
        <r>   -24.1535     0.0000     0.0000     0.0000     0.0000     0.0000     0.0000     0.0000     0.0000     0.0000 </r>
        <r>   -23.9808     0.0000     0.0000     0.0000     0.0000     0.0000     0.0000     0.0000     0.0000     0.0000 </r>
        <r>   -23.8082     0.0000     0.0000     0.0000     0.0000     0.0000     0.0000     0.0000     0.0000     0.0000 </r>
        <r>   -23.6355     0.0000     0.0000     0.0000     0.0000     0.0000     0.0000     0.0000     0.0000     0.0000 </r>
        <r>   -23.4629     0.0000     0.0000     0.0000     0.0000     0.0000     0.0000     0.0000     0.0000     0.0000 </r>
        <r>   -23.2903     0.0000     0.0000     0.0000     0.0000     0.0000     0.0000     0.0000     0.0000     0.0000 </r>
        <r>   -23.1176     0.0000     0.0000     0.0000     0.0000     0.0000     0.0000     0.0000     0.0000     0.0000 </r>
        <r>   -22.9450     0.0000     0.0000     0.0000     0.0000     0.0000     0.0000     0.0000     0.0000     0.0000 </r>
        <r>   -22.7723     0.0000     0.0000     0.0000     0.0000     0.0000     0.0000     0.0000     0.0000     0.0000 </r>
        <r>   -22.5997     0.0000     0.0000     0.0000     0.0000     0.0000     0.0000     0.0000     0.0000     0.0000 </r>
        <r>   -22.4270     0.0000     0.0000     0.0000     0.0000     0.0000     0.0000     0.0000     0.0000     0.0000 </r>
        <r>   -22.2544     0.0000     0.0000     0.0000     0.0000     0.0000     0.0000     0.0000     0.0000     0.0000 </r>
        <r>   -22.0817     0.0000     0.0000     0.0000     0.0000     0.0000     0.0000     0.0000     0.0000     0.0000 </r>
        <r>   -21.9091     0.0000     0.0000     0.0000     0.0000     0.0000     0.0000     0.0000     0.0000     0.0000 </r>
        <r>   -21.7365     0.0000     0.0000     0.0000     0.0000     0.0000     0.0000     0.0000     0.0000     0.0000 </r>
        <r>   -21.5638     0.0000     0.0000     0.0000     0.0000     0.0000     0.0000     0.0000     0.0000     0.0000 </r>
        <r>   -21.3912     0.0000     0.0000     0.0000     0.0000     0.0000     0.0000     0.0000     0.0000     0.0000 </r>
        <r>   -21.2185     0.0000     0.0000     0.0000     0.0000     0.0000     0.0000     0.0000     0.0000     0.0000 </r>
        <r>   -21.0459     0.0000     0.0000     0.0000     0.0000     0.0000     0.0000     0.0000     0.0000     0.0000 </r>
        <r>   -20.8732     0.0000     0.0000     0.0000     0.0000     0.0000     0.0000     0.0000     0.0000     0.0000 </r>
        <r>   -20.7006     0.0000     0.0000     0.0000     0.0000     0.0000     0.0000     0.0000     0.0000     0.0000 </r>
        <r>   -20.5280     0.0000     0.0000     0.0000     0.0000     0.0000     0.0000     0.0000     0.0000     0.0000 </r>
        <r>   -20.3553     0.0000     0.0000     0.0000     0.0000     0.0000     0.0000     0.0000     0.0000     0.0000 </r>
        <r>   -20.1827     0.0000     0.0000     0.0000     0.0000     0.0000     0.0000     0.0000     0.0000     0.0000 </r>
        <r>   -20.0100     0.0000     0.0000     0.0000     0.0000     0.0000     0.0000     0.0000     0.0000     0.0000 </r>
        <r>   -19.8374     0.0000     0.0000     0.0000     0.0000     0.0000     0.0000     0.0000     0.0000     0.0000 </r>
        <r>   -19.6647     0.0000     0.0000     0.0000     0.0000     0.0000     0.0000     0.0000     0.0000     0.0000 </r>
        <r>   -19.4921     0.0000     0.0000     0.0000     0.0000     0.0000     0.0000     0.0000     0.0000     0.0000 </r>
        <r>   -19.3195     0.0000     0.0000     0.0000     0.0000     0.0000     0.0000     0.0000     0.0000     0.0000 </r>
        <r>   -19.1468     0.0000     0.0000     0.0000     0.0000     0.0000     0.0000     0.0000     0.0000     0.0000 </r>
        <r>   -18.9742     0.0000     0.0000     0.0000     0.0000     0.0000     0.0000     0.0000     0.0000     0.0000 </r>
        <r>   -18.8015     0.0000     0.0000     0.0000     0.0000     0.0000     0.0000     0.0000     0.0000     0.0000 </r>
        <r>   -18.6289     0.0000     0.0000     0.0000     0.0000     0.0000     0.0000     0.0000     0.0000     0.0000 </r>
        <r>   -18.4562     0.0000     0.0000     0.0000     0.0000     0.0000     0.0000     0.0000     0.0000     0.0000 </r>
        <r>   -18.2836     0.0000     0.0000     0.0000     0.0000     0.0000     0.0000     0.0000     0.0000     0.0000 </r>
        <r>   -18.1110     0.0000     0.0000     0.0000     0.0000     0.0000     0.0000     0.0000     0.0000     0.0000 </r>
        <r>   -17.9383     0.0000     0.0000     0.0000     0.0000     0.0000     0.0000     0.0000     0.0000     0.0000 </r>
        <r>   -17.7657     0.0000     0.0000     0.0000     0.0000     0.0000     0.0000     0.0000     0.0000     0.0000 </r>
        <r>   -17.5930     0.0000     0.0000     0.0000     0.0000     0.0000     0.0000     0.0000     0.0000     0.0000 </r>
        <r>   -17.4204     0.0000     0.0000     0.0000     0.0000     0.0000     0.0000     0.0000     0.0000     0.0000 </r>
        <r>   -17.2477     0.0000     0.0000     0.0000     0.0000     0.0000     0.0000     0.0000     0.0000     0.0000 </r>
        <r>   -17.0751     0.0000     0.0000     0.0000     0.0000     0.0000     0.0000     0.0000     0.0000     0.0000 </r>
        <r>   -16.9025     0.0000     0.0000     0.0000     0.0000     0.0000     0.0000     0.0000     0.0000     0.0000 </r>
        <r>   -16.7298     0.0000     0.0000     0.0000     0.0000     0.0000     0.0000     0.0000     0.0000     0.0000 </r>
        <r>   -16.5572     0.0000     0.0000     0.0000     0.0000     0.0000     0.0000     0.0000     0.0000     0.0000 </r>
        <r>   -16.3845     0.0000     0.0000     0.0000     0.0000     0.0000     0.0000     0.0000     0.0000     0.0000 </r>
        <r>   -16.2119     0.0000     0.0000     0.0000     0.0000     0.0000     0.0000     0.0000     0.0000     0.0000 </r>
        <r>   -16.0392     0.0000     0.0000     0.0000     0.0000     0.0000     0.0000     0.0000     0.0000     0.0000 </r>
        <r>   -15.8666     0.0000     0.0000     0.0000     0.0000     0.0000     0.0000     0.0000     0.0000     0.0000 </r>
        <r>   -15.6940     0.0000     0.0000     0.0000     0.0000     0.0000     0.0000     0.0000     0.0000     0.0000 </r>
        <r>   -15.5213     0.0000     0.0000     0.0000     0.0000     0.0000     0.0000     0.0000     0.0000     0.0000 </r>
        <r>   -15.3487     0.0000     0.0000     0.0000     0.0000     0.0000     0.0000     0.0000     0.0000     0.0000 </r>
        <r>   -15.1760     0.0000     0.0000     0.0000     0.0000     0.0000     0.0000     0.0000     0.0000     0.0000 </r>
        <r>   -15.0034     0.0000     0.0000     0.0000     0.0000     0.0000     0.0000     0.0000     0.0000     0.0000 </r>
        <r>   -14.8307     0.0000     0.0000     0.0000     0.0000     0.0000     0.0000     0.0000     0.0000     0.0000 </r>
        <r>   -14.6581     0.0000     0.0000     0.0000     0.0000     0.0000     0.0000     0.0000     0.0000     0.0000 </r>
        <r>   -14.4855     0.0000     0.0000     0.0000     0.0000     0.0000     0.0000     0.0000     0.0000     0.0000 </r>
        <r>   -14.3128     0.0000     0.0000     0.0000     0.0000     0.0000     0.0000     0.0000     0.0000     0.0000 </r>
        <r>   -14.1402     0.0000     0.0000     0.0000     0.0000     0.0000     0.0000     0.0000     0.0000     0.0000 </r>
        <r>   -13.9675     0.0000     0.0000     0.0000     0.0000     0.0000     0.0000     0.0000     0.0000     0.0000 </r>
        <r>   -13.7949     0.0000     0.0000     0.0000     0.0000     0.0000     0.0000     0.0000     0.0000     0.0000 </r>
        <r>   -13.6222     0.0000     0.0000     0.0000     0.0000     0.0000     0.0000     0.0000     0.0000     0.0000 </r>
        <r>   -13.4496     0.0000     0.0000     0.0000     0.0000     0.0000     0.0000     0.0000     0.0000     0.0000 </r>
        <r>   -13.2770     0.0000     0.0000     0.0000     0.0000     0.0000     0.0000     0.0000     0.0000     0.0000 </r>
        <r>   -13.1043     0.0000     0.0000     0.0000     0.0000     0.0000     0.0000     0.0000     0.0000     0.0000 </r>
[...]
        <r>     0.7071     0.0940     0.0000     0.0000     0.0000     0.0001     0.0001     0.0000     0.0001     0.0000 </r>
        <r>     0.8798     0.0000     0.0000     0.0000     0.0000     0.0000     0.0000     0.0000     0.0000     0.0000 </r>
        <r>     1.0524     0.0000     0.0000     0.0000     0.0000     0.0000     0.0000     0.0000     0.0000     0.0000 </r>
        <r>     1.2251     0.0000     0.0001     0.0001     0.0001     0.0000     0.0000     0.0000     0.0000     0.0000 </r>
        <r>     1.3977     0.0000     0.1721     0.1733     0.1740     0.0000     0.0000     0.0000     0.0001     0.0000 </r>
        <r>     1.5703     0.0000     0.0126     0.0128     0.0126     0.0000     0.0000     0.0000     0.0000     0.0000 </r>
        <r>     1.7430     0.0000     0.0000     0.0000     0.0000     0.0000     0.0000     0.0624     0.0000     0.0632 </r>
        <r>     1.9156     0.0000     0.0000     0.0000     0.0000     0.0000     0.0000     0.0621     0.0000     0.0631 </r>
        <r>     2.0883     0.0000     0.0000     0.0000     0.0000     0.0000     0.0000     0.0000     0.0000     0.0000 </r>
        <r>     2.2609     0.0000     0.0000     0.0000     0.0000     0.0000     0.0000     0.0000     0.0000     0.0000 </r>
        <r>     2.4336     0.0196     0.0048     0.0051     0.0045     0.0000     0.0000     0.0000     0.0000     0.0000 </r>
        <r>     2.6062     0.1249     0.1873     0.1860     0.1901     0.0001     0.0000     0.0000     0.0001     0.0000 </r>
        <r>     2.7788     0.0000     0.0003     0.0003     0.0004     0.0000     0.0000     0.0000     0.0000     0.0000 </r>
        <r>     2.9515     0.0000     0.0000     0.0000     0.0000     0.0000     0.0000     0.0000     0.0000     0.0000 </r>
        <r>     3.1241     0.0000     0.0000     0.0000     0.0000     0.0001     0.0000     0.0000     0.0001     0.0000 </r>
        <r>     3.2968     0.0000     0.0006     0.0002     0.0003     0.1442     0.1398     0.0596     0.1439     0.0599 </r>
        <r>     3.4694     0.0000     0.0000     0.0000     0.0000     0.0101     0.0154     0.0029     0.0102     0.0038 </r>
        <r>     3.6421     0.0000     0.0000     0.0000     0.0000     0.0000     0.0000     0.0000     0.0000     0.0000 </r>
        <r>     3.8147     0.0000     0.0000     0.0000     0.0000     0.0000     0.0000     0.0000     0.0000     0.0000 </r>
        <r>     3.9873     0.0000     0.0000     0.0000     0.0000     0.0000     0.0000     0.0000     0.0000     0.0000 </r>
        <r>     4.1600     0.0000     0.0000     0.0000     0.0000     0.0000     0.0000     0.0000     0.0000     0.0000 </r>
        <r>     4.3326     0.0013     0.0041     0.0426     0.0681     0.0018     0.0004     0.0000     0.0000     0.0000 </r>
        <r>     4.5053     0.0966     0.0397     0.0724     0.0366     0.0163     0.0118     0.0000     0.0012     0.0004 </r>
        <r>     4.6779     0.0035     0.0720     0.0108     0.0122     0.0500     0.0453     0.0000     0.0203     0.0002 </r>
        <r>     4.8506     0.0000     0.0022     0.0008     0.0013     0.0524     0.0626     0.0000     0.1004     0.0000 </r>
        <r>     5.0232     0.0000     0.0000     0.0000     0.0000     0.0000     0.0000     0.0000     0.0000     0.0000 </r>
        <r>     5.1958     0.0000     0.0000     0.0000     0.0000     0.0000     0.0000     0.0000     0.0000     0.0000 </r>
        <r>     5.3685     0.0000     0.0000     0.0000     0.0000     0.0000     0.0000     0.0000     0.0000     0.0000 </r>
        <r>     5.5411     0.0000     0.0000     0.0000     0.0000     0.0000     0.0000     0.0000     0.0000     0.0000 </r>
        <r>     5.7138     0.0000     0.0000     0.0000     0.0000     0.0000     0.0000     0.0000     0.0000     0.0000 </r>
        <r>     5.8864     0.0000     0.0000     0.0000     0.0000     0.0000     0.0000     0.0000     0.0000     0.0000 </r>
        <r>     6.0591     0.0010     0.0001     0.0000     0.0005     0.0000     0.0000     0.0000     0.0000     0.0036 </r>
        <r>     6.2317     0.0256     0.0016     0.0001     0.0122     0.0000     0.0000     0.0007     0.0000     0.0913 </r>
        <r>     6.4043     0.0000     0.0000     0.0000     0.0000     0.0000     0.0000     0.0000     0.0000     0.0001 </r>
        <r>     6.5770     0.0000     0.0000     0.0000     0.0000     0.0000     0.0000     0.0000     0.0000     0.0000 </r>
        <r>     6.7496     0.0000     0.0000     0.0000     0.0000     0.0000     0.0000     0.0000     0.0000     0.0000 </r>
        <r>     6.9223     0.0000     0.0000     0.0000     0.0000     0.0000     0.0000     0.0000     0.0000     0.0000 </r>
        <r>     7.0949     0.0000     0.0000     0.0000     0.0000     0.0000     0.0000     0.0000     0.0000     0.0000 </r>
        <r>     7.2676     0.0000     0.0000     0.0000     0.0000     0.0000     0.0000     0.0000     0.0000     0.0000 </r>
        <r>     7.4402     0.0000     0.0000     0.0000     0.0000     0.0000     0.0000     0.0000     0.0000     0.0000 </r>
        <r>     7.6128     0.0000     0.0000     0.0000     0.0000     0.0000     0.0000     0.0000     0.0000     0.0000 </r>
        <r>     7.7855     0.0000     0.0000     0.0000     0.0000     0.0000     0.0000     0.0000     0.0000     0.0000 </r>
        <r>     7.9581     0.0000     0.0000     0.0000     0.0000     0.0000     0.0000     0.0000     0.0000     0.0000 </r>
        <r>     8.1308     0.0000     0.0000     0.0000     0.0000     0.0000     0.0000     0.0000     0.0000     0.0000 </r>
        <r>     8.3034     0.0000     0.0000     0.0000     0.0000     0.0000     0.0000     0.0000     0.0000     0.0000 </r>
        <r>     8.4761     0.0000     0.0000     0.0000     0.0000     0.0000     0.0000     0.0000     0.0000     0.0000 </r>
       </set>
      </set>
     </set>
    </array>
   </partial>
  </dos>
  <projected>
   <eigenvalues>
    <array>
     <dimension dim="1">band</dimension>
     <dimension dim="2">kpoint</dimension>
     <dimension dim="3">spin</dimension>
     <field>eigene</field>
     <field>occ</field>
     <set>
      <set comment="spin 1">
       <set comment="kpoint 1">
        <r>  -40.9626    1.0000 </r>
        <r>  -40.9626    1.0000 </r>
        <r>  -40.9626    1.0000 </r>
        <r>   -4.1439    1.0000 </r>
        <r>   -3.0404    1.0000 </r>
        <r>   -3.0404    1.0000 </r>
        <r>   -3.0404    1.0000 </r>
        <r>   -2.6962    0.5002 </r>
        <r>   -2.6962    0.4998 </r>
        <r>   -1.0389    0.0000 </r>
        <r>   -1.0386    0.0000 </r>
        <r>   -1.0371    0.0000 </r>
        <r>   -0.3650    0.0000 </r>
        <r>    0.6455    0.0000 </r>
        <r>    0.6455    0.0000 </r>
        <r>    1.4022    0.0000 </r>
        <r>    1.4026    0.0000 </r>
        <r>    1.4329    0.0000 </r>
        <r>    1.6256    0.0000 </r>
        <r>    1.7684    0.0000 </r>
        <r>    1.7719    0.0000 </r>
        <r>    1.7720    0.0000 </r>
        <r>    2.1916    0.0000 </r>
        <r>    2.1918    0.0000 </r>
        <r>    2.1965    0.0000 </r>
        <r>    2.2896    0.0000 </r>
        <r>    2.3052    0.0000 </r>
        <r>    3.4020    0.0000 </r>
        <r>    3.4249    0.0000 </r>
        <r>    3.4467    0.0000 </r>
        <r>    3.4941    0.0000 </r>
        <r>    3.5245    0.0000 </r>
        <r>    3.5314    0.0000 </r>
        <r>    3.5379    0.0000 </r>
        <r>    3.5426    0.0000 </r>
        <r>    4.5435    0.0000 </r>
       </set>
      </set>
      <set comment="spin 2">
       <set comment="kpoint 1">
        <r>  -37.7126    1.0000 </r>
        <r>  -37.7126    1.0000 </r>
        <r>  -37.7126    1.0000 </r>
        <r>   -1.3415    0.0000 </r>
        <r>    0.0359    0.0000 </r>
        <r>    0.0359    0.0000 </r>
        <r>    0.3916    0.0000 </r>
        <r>    0.3916    0.0000 </r>
        <r>    0.3916    0.0000 </r>
        <r>    0.5406    0.0000 </r>
        <r>    1.3448    0.0000 </r>
        <r>    1.3451    0.0000 </r>
        <r>    1.3452    0.0000 </r>
        <r>    1.7428    0.0000 </r>
        <r>    1.7430    0.0000 </r>
        <r>    2.4724    0.0000 </r>
        <r>    2.5018    0.0000 </r>
        <r>    2.5025    0.0000 </r>
        <r>    2.5052    0.0000 </r>
        <r>    3.2100    0.0000 </r>
        <r>    3.2149    0.0000 </r>
        <r>    3.2187    0.0000 </r>
        <r>    3.2375    0.0000 </r>
        <r>    3.2405    0.0000 </r>
        <r>    3.2458    0.0000 </r>
        <r>    3.2459    0.0000 </r>
        <r>    3.2520    0.0000 </r>
        <r>    4.2839    0.0000 </r>
        <r>    4.3954    0.0000 </r>
        <r>    4.4127    0.0000 </r>
        <r>    4.4828    0.0000 </r>
        <r>    4.5538    0.0000 </r>
        <r>    4.5746    0.0000 </r>
        <r>    4.7218    0.0000 </r>
        <r>    4.7293    0.0000 </r>
        <r>    6.1218    0.0000 </r>
       </set>
      </set>
     </set>
    </array>
   </eigenvalues>
   <array>
    <dimension dim="1">ion</dimension>
    <dimension dim="2">band</dimension>
    <dimension dim="3">kpoint</dimension>
    <dimension dim="4">spin</dimension>
    <field>    s</field>
    <field>   py</field>
    <field>   pz</field>
    <field>   px</field>
    <field>  dxy</field>
    <field>  dyz</field>
    <field>  dz2</field>
    <field>  dxz</field>
    <field>x2-y2</field>
    <set>
     <set comment="spin1">
      <set comment="kpoint 1">
       <set comment="band 1">
        <r>  0.0000  0.0001  0.9925  0.0000  0.0000  0.0000  0.0000  0.0000  0.0000 </r>
       </set>
       <set comment="band 2">
        <r>  0.0000  0.9924  0.0001  0.0000  0.0000  0.0000  0.0000  0.0000  0.0000 </r>
       </set>
       <set comment="band 3">
        <r>  0.0000  0.0000  0.0000  0.9925  0.0000  0.0000  0.0000  0.0000  0.0000 </r>
       </set>
       <set comment="band 4">
        <r>  0.2145  0.0000  0.0000  0.0000  0.0000  0.0000  0.0000  0.0000  0.0000 </r>
       </set>
       <set comment="band 5">
        <r>  0.0000  0.0000  0.0000  0.0000  0.8192  0.0026  0.0000  0.0005  0.0000 </r>
       </set>
       <set comment="band 6">
        <r>  0.0000  0.0000  0.0000  0.0000  0.0023  0.8038  0.0000  0.0162  0.0000 </r>
       </set>
       <set comment="band 7">
        <r>  0.0000  0.0000  0.0000  0.0000  0.0008  0.0159  0.0000  0.8056  0.0000 </r>
       </set>
       <set comment="band 8">
        <r>  0.0000  0.0000  0.0000  0.0000  0.0000  0.0000  0.7788  0.0000  0.0344 </r>
       </set>
       <set comment="band 9">
        <r>  0.0000  0.0000  0.0000  0.0000  0.0000  0.0000  0.0344  0.0000  0.7788 </r>
       </set>
       <set comment="band 10">
        <r>  0.0000  0.0470  0.0115  0.0067  0.0000  0.0000  0.0000  0.0000  0.0000 </r>
       </set>
       <set comment="band 11">
        <r>  0.0000  0.0002  0.0299  0.0347  0.0000  0.0000  0.0000  0.0000  0.0000 </r>
       </set>
       <set comment="band 12">
        <r>  0.0000  0.0175  0.0231  0.0231  0.0000  0.0000  0.0000  0.0000  0.0000 </r>
       </set>
       <set comment="band 13">
        <r>  0.0282  0.0000  0.0000  0.0000  0.0000  0.0000  0.0000  0.0000  0.0000 </r>
       </set>
       <set comment="band 14">
        <r>  0.0000  0.0000  0.0000  0.0000  0.0000  0.0000  0.0224  0.0000  0.0001 </r>
       </set>
       <set comment="band 15">
        <r>  0.0000  0.0000  0.0000  0.0000  0.0000  0.0000  0.0001  0.0000  0.0224 </r>
       </set>
       <set comment="band 16">
        <r>  0.0001  0.0171  0.0048  0.0000  0.0000  0.0000  0.0000  0.0000  0.0000 </r>
       </set>
       <set comment="band 17">
        <r>  0.0000  0.0021  0.0084  0.0112  0.0000  0.0000  0.0000  0.0000  0.0000 </r>
       </set>
       <set comment="band 18">
        <r>  0.0020  0.0026  0.0088  0.0098  0.0005  0.0001  0.0000  0.0000  0.0000 </r>
       </set>
       <set comment="band 19">
        <r>  0.0250  0.0000  0.0008  0.0007  0.0001  0.0001  0.0000  0.0000  0.0000 </r>
       </set>
       <set comment="band 20">
        <r>  0.0000  0.0000  0.0001  0.0003  0.0115  0.0252  0.0000  0.0002  0.0000 </r>
       </set>
       <set comment="band 21">
        <r>  0.0000  0.0000  0.0000  0.0000  0.0052  0.0043  0.0000  0.0283  0.0000 </r>
       </set>
       <set comment="band 22">
        <r>  0.0000  0.0000  0.0000  0.0000  0.0205  0.0078  0.0000  0.0093  0.0000 </r>
       </set>
       <set comment="band 23">
        <r>  0.0000  0.0000  0.0001  0.0001  0.0000  0.0000  0.0002  0.0000  0.0000 </r>
       </set>
       <set comment="band 24">
        <r>  0.0000  0.0000  0.0001  0.0003  0.0000  0.0000  0.0006  0.0000  0.0002 </r>
       </set>
       <set comment="band 25">
        <r>  0.0000  0.0000  0.0001  0.0000  0.0000  0.0000  0.0003  0.0000  0.0000 </r>
       </set>
       <set comment="band 26">
        <r>  0.0000  0.0000  0.0000  0.0001  0.0000  0.0000  0.0075  0.0000  0.0010 </r>
       </set>
       <set comment="band 27">
        <r>  0.0000  0.0000  0.0000  0.0000  0.0000  0.0000  0.0011  0.0000  0.0085 </r>
       </set>
       <set comment="band 28">
        <r>  0.0004  0.0135  0.0000  0.0002  0.0000  0.0002  0.0002  0.0001  0.0000 </r>
       </set>
       <set comment="band 29">
        <r>  0.0060  0.0045  0.0082  0.0014  0.0001  0.0000  0.0000  0.0001  0.0002 </r>
       </set>
       <set comment="band 30">
        <r>  0.0056  0.0026  0.0134  0.0030  0.0000  0.0007  0.0000  0.0001  0.0000 </r>
       </set>
       <set comment="band 31">
        <r>  0.0015  0.0000  0.0047  0.0056  0.0047  0.0028  0.0000  0.0001  0.0000 </r>
       </set>
       <set comment="band 32">
        <r>  0.0001  0.0000  0.0015  0.0044  0.0093  0.0011  0.0000  0.0003  0.0000 </r>
       </set>
       <set comment="band 33">
        <r>  0.0003  0.0000  0.0003  0.0057  0.0000  0.0016  0.0000  0.0095  0.0000 </r>
       </set>
       <set comment="band 34">
        <r>  0.0121  0.0041  0.0000  0.0042  0.0002  0.0001  0.0000  0.0001  0.0000 </r>
       </set>
       <set comment="band 35">
        <r>  0.0004  0.0001  0.0000  0.0044  0.0001  0.0078  0.0000  0.0039  0.0000 </r>
       </set>
       <set comment="band 36">
        <r>  0.0142  0.0030  0.0002  0.0003  0.0000  0.0000  0.0003  0.0000  0.0228 </r>
       </set>
      </set>
     </set>
     <set comment="spin2">
      <set comment="kpoint 1">
       <set comment="band 1">
        <r>  0.0000  0.9769  0.0149  0.0004  0.0000  0.0000  0.0000  0.0000  0.0000 </r>
       </set>
       <set comment="band 2">
        <r>  0.0000  0.0141  0.9641  0.0140  0.0000  0.0000  0.0000  0.0000  0.0000 </r>
       </set>
       <set comment="band 3">
        <r>  0.0000  0.0012  0.0132  0.9778  0.0000  0.0000  0.0000  0.0000  0.0000 </r>
       </set>
       <set comment="band 4">
        <r>  0.2035  0.0000  0.0000  0.0000  0.0000  0.0000  0.0000  0.0000  0.0000 </r>
       </set>
       <set comment="band 5">
        <r>  0.0000  0.0000  0.0000  0.0000  0.0000  0.0000  0.2744  0.0000  0.5242 </r>
       </set>
       <set comment="band 6">
        <r>  0.0000  0.0000  0.0000  0.0000  0.0000  0.0000  0.5243  0.0000  0.2743 </r>
       </set>
       <set comment="band 7">
        <r>  0.0000  0.0000  0.0000  0.0000  0.4620  0.3263  0.0000  0.0061  0.0000 </r>
       </set>
       <set comment="band 8">
        <r>  0.0000  0.0000  0.0000  0.0000  0.2801  0.3252  0.0000  0.1891  0.0000 </r>
       </set>
       <set comment="band 9">
        <r>  0.0000  0.0000  0.0000  0.0000  0.0524  0.1429  0.0000  0.5991  0.0000 </r>
       </set>
       <set comment="band 10">
        <r>  0.0285  0.0000  0.0000  0.0000  0.0000  0.0000  0.0000  0.0000  0.0000 </r>
       </set>
       <set comment="band 11">
        <r>  0.0000  0.0095  0.0000  0.0224  0.0000  0.0000  0.0000  0.0000  0.0000 </r>
       </set>
       <set comment="band 12">
        <r>  0.0000  0.0218  0.0006  0.0098  0.0000  0.0000  0.0000  0.0000  0.0000 </r>
       </set>
       <set comment="band 13">
        <r>  0.0000  0.0006  0.0315  0.0001  0.0000  0.0000  0.0000  0.0000  0.0000 </r>
       </set>
       <set comment="band 14">
        <r>  0.0000  0.0000  0.0000  0.0000  0.0000  0.0000  0.0128  0.0000  0.0088 </r>
       </set>
       <set comment="band 15">
        <r>  0.0000  0.0000  0.0000  0.0000  0.0000  0.0000  0.0087  0.0000  0.0130 </r>
       </set>
       <set comment="band 16">
        <r>  0.0248  0.0000  0.0001  0.0001  0.0000  0.0000  0.0000  0.0000  0.0000 </r>
       </set>
       <set comment="band 17">
        <r>  0.0001  0.0014  0.0291  0.0030  0.0000  0.0000  0.0000  0.0000  0.0000 </r>
       </set>
       <set comment="band 18">
        <r>  0.0000  0.0266  0.0001  0.0069  0.0000  0.0000  0.0000  0.0000  0.0000 </r>
       </set>
       <set comment="band 19">
        <r>  0.0000  0.0053  0.0038  0.0237  0.0000  0.0000  0.0000  0.0000  0.0000 </r>
       </set>
       <set comment="band 20">
        <r>  0.0000  0.0000  0.0000  0.0000  0.0000  0.0001  0.0000  0.0002  0.0003 </r>
       </set>
       <set comment="band 21">
        <r>  0.0000  0.0001  0.0000  0.0000  0.0010  0.0001  0.0000  0.0001  0.0000 </r>
       </set>
       <set comment="band 22">
        <r>  0.0000  0.0000  0.0000  0.0000  0.0015  0.0004  0.0002  0.0031  0.0000 </r>
       </set>
       <set comment="band 23">
        <r>  0.0000  0.0000  0.0000  0.0000  0.0005  0.0000  0.0096  0.0000  0.0007 </r>
       </set>
       <set comment="band 24">
        <r>  0.0000  0.0000  0.0000  0.0000  0.0044  0.0002  0.0010  0.0018  0.0069 </r>
       </set>
       <set comment="band 25">
        <r>  0.0000  0.0000  0.0000  0.0000  0.0187  0.0005  0.0000  0.0004  0.0020 </r>
       </set>
       <set comment="band 26">
        <r>  0.0000  0.0000  0.0000  0.0000  0.0003  0.0004  0.0000  0.0207  0.0007 </r>
       </set>
       <set comment="band 27">
        <r>  0.0000  0.0000  0.0000  0.0000  0.0002  0.0250  0.0000  0.0003  0.0004 </r>
       </set>
       <set comment="band 28">
        <r>  0.0000  0.0008  0.0076  0.0126  0.0002  0.0000  0.0000  0.0000  0.0000 </r>
       </set>
       <set comment="band 29">
        <r>  0.0001  0.0000  0.0097  0.0052  0.0023  0.0015  0.0000  0.0000  0.0000 </r>
       </set>
       <set comment="band 30">
        <r>  0.0168  0.0007  0.0002  0.0001  0.0000  0.0000  0.0000  0.0000  0.0000 </r>
       </set>
       <set comment="band 31">
        <r>  0.0000  0.0074  0.0031  0.0000  0.0000  0.0002  0.0000  0.0002  0.0001 </r>
       </set>
       <set comment="band 32">
        <r>  0.0003  0.0049  0.0011  0.0023  0.0065  0.0049  0.0000  0.0005  0.0000 </r>
       </set>
       <set comment="band 33">
        <r>  0.0002  0.0061  0.0000  0.0000  0.0020  0.0025  0.0000  0.0010  0.0000 </r>
       </set>
       <set comment="band 34">
        <r>  0.0000  0.0004  0.0001  0.0001  0.0023  0.0000  0.0000  0.0180  0.0000 </r>
       </set>
       <set comment="band 35">
        <r>  0.0000  0.0000  0.0001  0.0001  0.0075  0.0116  0.0000  0.0014  0.0000 </r>
       </set>
       <set comment="band 36">
        <r>  0.0046  0.0003  0.0000  0.0022  0.0000  0.0000  0.0001  0.0000  0.0164 </r>
       </set>
      </set>
     </set>
    </set>
   </array>
  </projected>
 </calculation>
 <structure name="finalpos" >
  <crystal>
   <varray name="basis" >
    <v>      10.00000000       0.00000000       0.00000000 </v>
    <v>       0.00000000      10.00000000       0.00000000 </v>
    <v>       0.00000000       0.00000000      10.00000000 </v>
   </varray>
   <i name="volume">   1000.00000000 </i>
   <varray name="rec_basis" >
    <v>       0.10000000       0.00000000       0.00000000 </v>
    <v>       0.00000000       0.10000000       0.00000000 </v>
    <v>       0.00000000       0.00000000       0.10000000 </v>
   </varray>
  </crystal>
  <varray name="positions" >
   <v>       0.50000000       0.50000000       0.50000000 </v>
  </varray>
 </structure>
</modeling>
