       N       E                     dE             d eps       ncg     rms          ort
DAV:   1     0.143352852799E+03    0.14335E+03   -0.70012E+03    36   0.367E+02
DAV:   2     0.216935261694E+02   -0.12166E+03   -0.12166E+03    36   0.130E+02
DAV:   3     0.195523776205E+01   -0.19738E+02   -0.19726E+02    36   0.609E+01
DAV:   4     0.354504196664E+00   -0.16007E+01   -0.15685E+01    36   0.167E+01
DAV:   5     0.907165820363E-01   -0.26379E+00   -0.26375E+00    36   0.482E+00
SDA:   6    -0.700927143453E-01   -0.16081E+00   -0.31317E+00    36   0.783E+00 0.000E+00
DMP:   7    -0.135110378404E+00   -0.65018E-01   -0.45305E+00    36   0.129E+01-0.415E+00
DMP:   8    -0.392464361003E-01    0.95864E-01   -0.11059E+01    36   0.328E+01-0.136E+01
DMP:   9     0.645283603589E+00    0.68453E+00   -0.58026E+01    36   0.169E+02-0.629E+01
DMP:  10     0.416252882073E+01    0.35172E+01   -0.24530E+02    36   0.730E+02-0.305E+02
DMP:  11     0.142621540483E+02    0.10100E+02   -0.84698E+02    36   0.256E+03-0.115E+03
DMP:  12     0.317692278820E+02    0.17507E+02   -0.13295E+03    36   0.427E+03-0.248E+03
DMP:  13     0.222963252602E+02   -0.94729E+01   -0.80173E+02    36   0.288E+03-0.230E+03
DMP:  14     0.734902207000E+01   -0.14947E+02   -0.19501E+02    36   0.827E+02-0.890E+02
DMP:  15     0.649214053411E+00   -0.66998E+01   -0.12233E+01    36   0.804E+01-0.131E+02
DMP:  16     0.109256096676E+00   -0.53996E+00   -0.99781E+00    36   0.258E+01-0.234E+00
DMP:  17     0.865971592930E-01   -0.22659E-01   -0.73620E+00    36   0.272E+01-0.229E+01
DMP:  18    -0.186601999084E+00   -0.27320E+00   -0.52163E-01    36   0.315E+00-0.484E+00
DMP:  19    -0.208164510544E+00   -0.21563E-01   -0.70715E-01    36   0.185E+00-0.220E-01
DMP:  20    -0.223149373504E+00   -0.14985E-01   -0.19417E-01    36   0.871E-01-0.101E+00
DMP:  21    -0.233779035128E+00   -0.10630E-01   -0.64326E-02    36   0.143E-01 0.453E-02
DMP:  22    -0.234739619094E+00   -0.96058E-03   -0.37836E-02    36   0.138E-01-0.113E-01
DMP:  23    -0.236527528579E+00   -0.17879E-02   -0.83278E-03    36   0.228E-02-0.511E-03
DMP:  24    -0.236727483411E+00   -0.19995E-03   -0.64277E-03    36   0.202E-02-0.109E-02
DMP:  25    -0.236992051115E+00   -0.26457E-03   -0.14384E-03    36   0.469E-03-0.285E-03
DMP:  26    -0.237052858490E+00   -0.60807E-04   -0.96439E-04    36   0.262E-03-0.546E-04
DMP:  27    -0.237088538720E+00   -0.35680E-04   -0.34252E-04    36   0.110E-03-0.626E-04
   1 F= -.23708854E+00 E0= -.23708854E+00  d E =-.237089E+00  mag=     1.0000
