<?xml version="1.0" encoding="ISO-8859-1"?>
<modeling>
 <generator>
  <i name="program" type="string">vasp </i>
  <i name="version" type="string">5.4.4.18Apr17-6-g9f103f2a35  </i>
  <i name="subversion" type="string">(build Nov 08 2019 15:19:53) gamma-only         parallel </i>
  <i name="platform" type="string">LinuxIFC </i>
  <i name="date" type="string">2020 11 30 </i>
  <i name="time" type="string">09:30:48 </i>
 </generator>
 <incar>
  <i type="string" name="PREC">accurate</i>
  <i type="string" name="ALGO"> D</i>
  <i type="int" name="ISPIN">     2</i>
  <i type="int" name="NELM">   300</i>
  <i type="int" name="IBRION">     2</i>
  <i name="EDIFF">      0.00005000</i>
  <i type="int" name="NSW">    99</i>
  <i type="int" name="ISIF">     2</i>
  <i name="ENCUT">    520.00000000</i>
  <v name="MAGMOM">      0.60000000</v>
  <i type="string" name="LREAL"> Auto</i>
  <i type="int" name="ISMEAR">     0</i>
  <i name="SIGMA">      0.05000000</i>
  <i type="logical" name="LWAVE"> F  </i>
  <i type="int" name="LORBIT">    11</i>
  <i type="logical" name="LASPH"> T  </i>
  <v type="int" name="KPOINT_BSE">    -1     0     0     0</v>
  <i type="int" name="NELM">   300</i>
  <i type="logical" name="LASPH"> T  </i>
 </incar>
 <structure name="primitive_cell" >
  <crystal>
   <varray name="basis" >
    <v>      10.00000000       0.00000000       0.00000000 </v>
    <v>       0.00000000      10.00000000       0.00000000 </v>
    <v>       0.00000000       0.00000000      10.00000000 </v>
   </varray>
   <i name="volume">   1000.00000000 </i>
   <varray name="rec_basis" >
    <v>       0.10000000       0.00000000       0.00000000 </v>
    <v>       0.00000000       0.10000000       0.00000000 </v>
    <v>       0.00000000       0.00000000       0.10000000 </v>
   </varray>
  </crystal>
  <varray name="positions" >
   <v>      -0.50000000      -0.50000000      -0.50000000 </v>
  </varray>
 </structure>
 <varray name="primitive_index" >
  <v type="int" >        1 </v>
 </varray>
 <kpoints>
  <generation param="Gamma">
   <v type="int" name="divisions">       1        1        1 </v>
   <v name="usershift">      0.00000000       0.00000000       0.00000000 </v>
   <v name="genvec1">      1.00000000       0.00000000       0.00000000 </v>
   <v name="genvec2">      0.00000000       1.00000000       0.00000000 </v>
   <v name="genvec3">      0.00000000       0.00000000       1.00000000 </v>
   <v name="shift">      0.00000000       0.00000000       0.00000000 </v>
  </generation>
  <varray name="kpointlist" >
   <v>       0.00000000       0.00000000       0.00000000 </v>
  </varray>
  <varray name="weights" >
   <v>       1.00000000 </v>
  </varray>
 </kpoints>
 <parameters>
  <separator name="general" >
   <i type="string" name="SYSTEM">unknown system</i>
   <i type="logical" name="LCOMPAT"> F  </i>
  </separator>
  <separator name="electronic" >
   <i type="string" name="PREC">accura</i>
   <i name="ENMAX">    520.00000000</i>
   <i name="ENAUG">    758.23300000</i>
   <i name="EDIFF">      0.00005000</i>
   <i type="int" name="IALGO">    53</i>
   <i type="int" name="IWAVPR">    11</i>
   <i type="int" name="NBANDS">    36</i>
   <i name="NELECT">     17.00000000</i>
   <i type="int" name="TURBO">     0</i>
   <i type="int" name="IRESTART">     0</i>
   <i type="int" name="NREBOOT">     0</i>
   <i type="int" name="NMIN">     0</i>
   <i name="EREF">      0.00000000</i>
   <separator name="electronic smearing" >
    <i type="int" name="ISMEAR">     0</i>
    <i name="SIGMA">      0.05000000</i>
    <i name="KSPACING">      0.50000000</i>
    <i type="logical" name="KGAMMA"> T  </i>
   </separator>
   <separator name="electronic projectors" >
    <i type="logical" name="LREAL"> T  </i>
    <v name="ROPT">     -0.00025000</v>
    <i type="int" name="LMAXPAW">  -100</i>
    <i type="int" name="LMAXMIX">     2</i>
    <i type="logical" name="NLSPLINE"> F  </i>
   </separator>
   <separator name="electronic startup" >
    <i type="int" name="ISTART">     0</i>
    <i type="int" name="ICHARG">     2</i>
    <i type="int" name="INIWAV">     1</i>
   </separator>
   <separator name="electronic spin" >
    <i type="int" name="ISPIN">     2</i>
    <i type="logical" name="LNONCOLLINEAR"> F  </i>
    <v name="MAGMOM">      0.60000000</v>
    <i name="NUPDOWN">     -1.00000000</i>
    <i type="logical" name="LSORBIT"> F  </i>
    <v name="SAXIS">      0.00000000      0.00000000      1.00000000</v>
    <i type="logical" name="LSPIRAL"> F  </i>
    <v name="QSPIRAL">      0.00000000      0.00000000      0.00000000</v>
    <i type="logical" name="LZEROZ"> F  </i>
   </separator>
   <separator name="electronic exchange-correlation" >
    <i type="logical" name="LASPH"> T  </i>
    <i type="logical" name="LMETAGGA"> F  </i>
   </separator>
   <separator name="electronic convergence" >
    <i type="int" name="NELM">   300</i>
    <i type="int" name="NELMDL">    -5</i>
    <i type="int" name="NELMIN">     2</i>
    <i name="ENINI">    520.00000000</i>
    <separator name="electronic convergence detail" >
     <i type="logical" name="LDIAG"> T  </i>
     <i type="logical" name="LSUBROT"> F  </i>
     <i name="WEIMIN">      0.00100000</i>
     <i name="EBREAK">      0.00000035</i>
     <i name="DEPER">      0.30000000</i>
     <i type="int" name="NRMM">     4</i>
     <i name="TIME">      0.40000000</i>
    </separator>
   </separator>
   <separator name="electronic mixer" >
    <i name="AMIX">      0.40000000</i>
    <i name="BMIX">      1.00000000</i>
    <i name="AMIN">      0.10000000</i>
    <i name="AMIX_MAG">      1.60000000</i>
    <i name="BMIX_MAG">      1.00000000</i>
    <separator name="electronic mixer details" >
     <i type="int" name="IMIX">     4</i>
     <i type="logical" name="MIXFIRST"> F  </i>
     <i type="int" name="MAXMIX">   -45</i>
     <i name="WC">    100.00000000</i>
     <i type="int" name="INIMIX">     1</i>
     <i type="int" name="MIXPRE">     1</i>
     <i type="int" name="MREMOVE">     5</i>
    </separator>
   </separator>
   <separator name="electronic dipolcorrection" >
    <i type="logical" name="LDIPOL"> F  </i>
    <i type="logical" name="LMONO"> F  </i>
    <i type="int" name="IDIPOL">     0</i>
    <i name="EPSILON">      1.00000000</i>
    <v name="DIPOL">   -100.00000000   -100.00000000   -100.00000000</v>
    <i name="EFIELD">      0.00000000</i>
   </separator>
  </separator>
  <separator name="grids" >
   <i type="int" name="NGX">    80</i>
   <i type="int" name="NGY">    80</i>
   <i type="int" name="NGZ">    80</i>
   <i type="int" name="NGXF">   160</i>
   <i type="int" name="NGYF">   160</i>
   <i type="int" name="NGZF">   160</i>
   <i type="logical" name="ADDGRID"> F  </i>
  </separator>
  <separator name="ionic" >
   <i type="int" name="NSW">    99</i>
   <i type="int" name="IBRION">     2</i>
   <i type="int" name="MDALGO">     0</i>
   <i type="int" name="ISIF">     2</i>
   <i name="PSTRESS">      0.00000000</i>
   <i name="EDIFFG">      0.00050000</i>
   <i type="int" name="NFREE">     1</i>
   <i name="POTIM">      0.50000000</i>
   <i name="SMASS">     -3.00000000</i>
   <i name="SCALEE">      1.00000000</i>
  </separator>
  <separator name="ionic md" >
   <i name="TEBEG">      0.00010000</i>
   <i name="TEEND">      0.00010000</i>
   <i type="int" name="NBLOCK">     1</i>
   <i type="int" name="KBLOCK">    99</i>
   <i type="int" name="NPACO">   256</i>
   <i name="APACO">     16.00000000</i>
  </separator>
  <separator name="symmetry" >
   <i type="int" name="ISYM">     2</i>
   <i name="SYMPREC">      0.00001000</i>
  </separator>
  <separator name="dos" >
   <i type="int" name="LORBIT">    11</i>
   <v name="RWIGS">     -1.00000000</v>
   <i type="int" name="NEDOS">   301</i>
   <i name="EMIN">     10.00000000</i>
   <i name="EMAX">    -10.00000000</i>
   <i name="EFERMI">      0.00000000</i>
  </separator>
  <separator name="writing" >
   <i type="int" name="NWRITE">     2</i>
   <i type="logical" name="LWAVE"> F  </i>
   <i type="logical" name="LDOWNSAMPLE"> F  </i>
   <i type="logical" name="LCHARG"> T  </i>
   <i type="logical" name="LPARD"> F  </i>
   <i type="logical" name="LVTOT"> F  </i>
   <i type="logical" name="LVHAR"> F  </i>
   <i type="logical" name="LELF"> F  </i>
   <i type="logical" name="LOPTICS"> F  </i>
   <v name="STM">      0.00000000      0.00000000      0.00000000      0.00000000      0.00000000      0.00000000      0.00000000</v>
  </separator>
  <separator name="performance" >
   <i type="int" name="NPAR">    36</i>
   <i type="int" name="NSIM">     4</i>
   <i type="int" name="NBLK">    -1</i>
   <i type="logical" name="LPLANE"> T  </i>
   <i type="logical" name="LSCALAPACK"> T  </i>
   <i type="logical" name="LSCAAWARE"> F  </i>
   <i type="logical" name="LSCALU"> F  </i>
   <i type="logical" name="LASYNC"> F  </i>
   <i type="logical" name="LORBITALREAL"> F  </i>
  </separator>
  <separator name="miscellaneous" >
   <i type="int" name="IDIOT">     3</i>
   <i type="int" name="ISPECIAL">     0</i>
   <i type="logical" name="LMUSIC"> F  </i>
   <v name="POMASS">     63.54600000</v>
   <v name="DARWINR">      0.00000000</v>
   <v name="DARWINV">      1.00000000</v>
   <i type="logical" name="LCORR"> T  </i>
  </separator>
  <i type="logical" name="GGA_COMPAT"> T  </i>
  <i type="logical" name="LBERRY"> F  </i>
  <i type="int" name="ICORELEVEL">     0</i>
  <i type="logical" name="LDAU"> F  </i>
  <i type="int" name="I_CONSTRAINED_M">     0</i>
  <separator name="electronic exchange-correlation" >
   <i type="string" name="GGA">--</i>
   <i type="int" name="VOSKOWN">     0</i>
   <i type="logical" name="LHFCALC"> F  </i>
   <i type="string" name="PRECFOCK"></i>
   <i type="logical" name="LSYMGRAD"> F  </i>
   <i type="logical" name="LHFONE"> F  </i>
   <i type="logical" name="LRHFCALC"> F  </i>
   <i type="logical" name="LTHOMAS"> F  </i>
   <i type="logical" name="LMODELHF"> F  </i>
   <i name="ENCUT4O">     -1.00000000</i>
   <i type="int" name="EXXOEP">     0</i>
   <i type="int" name="FOURORBIT">     0</i>
   <i name="AEXX">      0.00000000</i>
   <i name="HFALPHA">      0.00000000</i>
   <i name="MCALPHA">      0.00000000</i>
   <i name="ALDAX">      1.00000000</i>
   <i name="AGGAX">      1.00000000</i>
   <i name="ALDAC">      1.00000000</i>
   <i name="AGGAC">      1.00000000</i>
   <i type="int" name="NKREDX">     1</i>
   <i type="int" name="NKREDY">     1</i>
   <i type="int" name="NKREDZ">     1</i>
   <i type="logical" name="SHIFTRED"> F  </i>
   <i type="logical" name="ODDONLY"> F  </i>
   <i type="logical" name="EVENONLY"> F  </i>
   <i type="int" name="LMAXFOCK">     0</i>
   <i type="int" name="NMAXFOCKAE">     0</i>
   <i type="logical" name="LFOCKAEDFT"> F  </i>
   <i name="HFSCREEN">      0.00000000</i>
   <i name="HFSCREENC">      0.00000000</i>
   <i type="int" name="NBANDSGWLOW">     0</i>
  </separator>
  <separator name="vdW DFT" >
   <i type="logical" name="LUSE_VDW"> F  </i>
   <i name="Zab_VDW">     -0.84910000</i>
   <i name="PARAM1">      0.12340000</i>
   <i name="PARAM2">      1.00000000</i>
   <i name="PARAM3">      0.00000000</i>
  </separator>
  <separator name="model GW" >
   <i type="int" name="MODEL_GW">     0</i>
   <i name="MODEL_EPS0">    600.00000000</i>
   <i name="MODEL_ALPHA">      1.00000000</i>
  </separator>
  <separator name="linear response parameters" >
   <i type="logical" name="LEPSILON"> F  </i>
   <i type="logical" name="LRPA"> F  </i>
   <i type="logical" name="LNABLA"> F  </i>
   <i type="logical" name="LVEL"> F  </i>
   <i type="int" name="KINTER">     0</i>
   <i name="CSHIFT">      0.10000000</i>
   <i name="OMEGAMAX">     -1.00000000</i>
   <i name="DEG_THRESHOLD">      0.00200000</i>
   <i name="RTIME">     -0.10000000</i>
   <i name="WPLASMAI">      0.00000000</i>
   <v name="DFIELD">      0.00000000      0.00000000      0.00000000</v>
   <v name="WPLASMA">      0.00000000      0.00000000      0.00000000      0.00000000      0.00000000      0.00000000      0.00000000      0.00000000      0.00000000</v>
  </separator>
  <separator name="orbital magnetization" >
   <i type="logical" name="NUCIND"> F  </i>
   <v name="MAGPOS">      0.00000000      0.00000000      0.00000000</v>
   <i type="logical" name="LNICSALL"> T  </i>
   <i type="logical" name="ORBITALMAG"> F  </i>
   <i type="logical" name="LMAGBLOCH"> F  </i>
   <i type="logical" name="LCHIMAG"> F  </i>
   <i type="logical" name="LGAUGE"> T  </i>
   <i type="int" name="MAGATOM">     0</i>
   <v name="MAGDIPOL">      0.00000000      0.00000000      0.00000000</v>
   <v name="AVECCONST">      0.00000000      0.00000000      0.00000000</v>
  </separator>
  <separator name="response functions" >
   <i type="logical" name="LADDER"> F  </i>
   <i type="logical" name="LRPAFORCE"> F  </i>
   <i type="logical" name="LFXC"> F  </i>
   <i type="logical" name="LHARTREE"> T  </i>
   <i type="int" name="IBSE">     0</i>
   <v type="int" name="KPOINT">    -1     0     0     0</v>
   <i type="logical" name="LTCTE"> F  </i>
   <i type="logical" name="LTETE"> F  </i>
   <i type="logical" name="LTRIPLET"> F  </i>
   <i type="logical" name="LFXCEPS"> F  </i>
   <i type="logical" name="LFXHEG"> F  </i>
   <i type="int" name="NATURALO">     2</i>
   <i type="logical" name="L2ORDER"> F  </i>
   <i type="logical" name="LMP2LT"> F  </i>
   <i type="logical" name="LUSEW"> F  </i>
   <i name="ENCUTGW">     -2.00000000</i>
   <i name="ENCUTGWSOFT">     -2.00000000</i>
   <i name="ENCUTLF">     -1.00000000</i>
   <i type="int" name="LMAXMP2">    -1</i>
   <i name="SCISSOR">      0.00000000</i>
   <i type="int" name="NOMEGA">     0</i>
   <i type="int" name="NOMEGAR">     0</i>
   <i type="int" name="NBANDSGW">    -1</i>
   <i type="int" name="NBANDSO">    -1</i>
   <i type="int" name="NBANDSV">    -1</i>
   <i type="int" name="NELM">   300</i>
   <i type="int" name="NELMHF">     1</i>
   <i type="int" name="DIM">     3</i>
   <i type="int" name="ANTIRES">     0</i>
   <i name="OMEGAMAX">    -30.00000000</i>
   <i name="OMEGAMIN">    -30.00000000</i>
   <i name="OMEGATL">   -200.00000000</i>
   <i type="int" name="OMEGAGRID">   140</i>
   <i name="CSHIFT">     -0.10000000</i>
   <i type="logical" name="SELFENERGY"> F  </i>
   <i type="logical" name="LSPECTRAL"> F  </i>
   <i type="logical" name="LSPECTRALGW"> F  </i>
   <i type="logical" name="LSINGLES"> F  </i>
   <i type="logical" name="LFERMIGW"> F  </i>
   <i type="logical" name="ODDONLYGW"> F  </i>
   <i type="logical" name="EVENONLYGW"> F  </i>
   <i type="int" name="NKREDLFX">     1</i>
   <i type="int" name="NKREDLFY">     1</i>
   <i type="int" name="NKREDLFZ">     1</i>
   <i type="int" name="MAXMEM">  2800</i>
   <i type="int" name="TELESCOPE">     0</i>
   <i type="int" name="TAUPAR">     1</i>
   <i type="int" name="OMEGAPAR">    -1</i>
   <i name="LAMBDA">      1.00000000</i>
  </separator>
  <separator name="External order field" >
   <i name="OFIELD_KAPPA">      0.00000000</i>
   <v name="OFIELD_K">      0.00000000      0.00000000      0.00000000</v>
   <i name="OFIELD_Q6_NEAR">      0.00000000</i>
   <i name="OFIELD_Q6_FAR">      0.00000000</i>
   <i name="OFIELD_A">      0.00000000</i>
  </separator>
 </parameters>
 <atominfo>
  <atoms>       1 </atoms>
  <types>       1 </types>
  <array name="atoms" >
   <dimension dim="1">ion</dimension>
   <field type="string">element</field>
   <field type="int">atomtype</field>
   <set>
    <rc><c>Cu</c><c>   1</c></rc>
   </set>
  </array>
  <array name="atomtypes" >
   <dimension dim="1">type</dimension>
   <field type="int">atomspertype</field>
   <field type="string">element</field>
   <field>mass</field>
   <field>valence</field>
   <field type="string">pseudopotential</field>
   <set>
    <rc><c>   1</c><c>Cu</c><c>     63.54600000</c><c>     17.00000000</c><c>  PAW_PBE Cu_pv 06Sep2000               </c></rc>
   </set>
  </array>
 </atominfo>
 <structure name="initialpos" >
  <crystal>
   <varray name="basis" >
    <v>      10.00000000       0.00000000       0.00000000 </v>
    <v>       0.00000000      10.00000000       0.00000000 </v>
    <v>       0.00000000       0.00000000      10.00000000 </v>
   </varray>
   <i name="volume">   1000.00000000 </i>
   <varray name="rec_basis" >
    <v>       0.10000000       0.00000000       0.00000000 </v>
    <v>       0.00000000       0.10000000       0.00000000 </v>
    <v>       0.00000000       0.00000000       0.10000000 </v>
   </varray>
  </crystal>
  <varray name="positions" >
   <v>       0.50000000       0.50000000       0.50000000 </v>
  </varray>
 </structure>
 <calculation>
  <scstep>
   <time name="total">    0.95    0.96</time>
   <energy>
    <i name="alphaZ">      1.80951196 </i>
    <i name="ewald">   -590.37613616 </i>
    <i name="hartreedc">  -3003.11826610 </i>
    <i name="XCdc">    106.26255392 </i>
    <i name="pawpsdc">   3479.84203090 </i>
    <i name="pawaedc">  -3629.29062348 </i>
    <i name="eentropy">     -0.00000000 </i>
    <i name="bandstr">   -341.84220782 </i>
    <i name="atom">   4120.06598957 </i>
    <i name="e_fr_energy">    143.35285280 </i>
    <i name="e_wo_entrp">    143.35285280 </i>
    <i name="e_0_energy">    143.35285280 </i>
   </energy>
  </scstep>
  <scstep>
   <time name="total">    0.26    0.26</time>
   <energy>
    <i name="e_fr_energy">     21.69352617 </i>
    <i name="e_wo_entrp">     21.69465331 </i>
    <i name="e_0_energy">     21.69408974 </i>
   </energy>
  </scstep>
  <scstep>
   <time name="total">    0.40    0.40</time>
   <energy>
    <i name="e_fr_energy">      1.95523776 </i>
    <i name="e_wo_entrp">      1.98610901 </i>
    <i name="e_0_energy">      1.97067339 </i>
   </energy>
  </scstep>
  <scstep>
   <time name="total">    0.41    0.41</time>
   <energy>
    <i name="e_fr_energy">      0.35450420 </i>
    <i name="e_wo_entrp">      0.36219697 </i>
    <i name="e_0_energy">      0.35835058 </i>
   </energy>
  </scstep>
  <scstep>
   <time name="total">    0.63    0.63</time>
   <energy>
    <i name="e_fr_energy">      0.09071658 </i>
    <i name="e_wo_entrp">      0.09727503 </i>
    <i name="e_0_energy">      0.09399581 </i>
   </energy>
  </scstep>
  <scstep>
   <time name="total">    0.92    0.92</time>
   <energy>
    <i name="e_fr_energy">     -0.07009271 </i>
    <i name="e_wo_entrp">     -0.06870554 </i>
    <i name="e_0_energy">     -0.06939913 </i>
   </energy>
  </scstep>
  <scstep>
   <time name="total">    0.89    0.89</time>
   <energy>
    <i name="e_fr_energy">     -0.13511038 </i>
    <i name="e_wo_entrp">     -0.13511032 </i>
    <i name="e_0_energy">     -0.13511035 </i>
   </energy>
  </scstep>
  <scstep>
   <time name="total">    0.89    0.89</time>
   <energy>
    <i name="e_fr_energy">     -0.03924644 </i>
    <i name="e_wo_entrp">     -0.03924591 </i>
    <i name="e_0_energy">     -0.03924617 </i>
   </energy>
  </scstep>
  <scstep>
   <time name="total">    0.89    0.89</time>
   <energy>
    <i name="e_fr_energy">      0.64528360 </i>
    <i name="e_wo_entrp">      0.64528360 </i>
    <i name="e_0_energy">      0.64528360 </i>
   </energy>
  </scstep>
  <scstep>
   <time name="total">    0.89    0.89</time>
   <energy>
    <i name="e_fr_energy">      4.16252882 </i>
    <i name="e_wo_entrp">      4.16252882 </i>
    <i name="e_0_energy">      4.16252882 </i>
   </energy>
  </scstep>
  <scstep>
   <time name="total">    0.88    0.88</time>
   <energy>
    <i name="e_fr_energy">     14.26215405 </i>
    <i name="e_wo_entrp">     14.26215405 </i>
    <i name="e_0_energy">     14.26215405 </i>
   </energy>
  </scstep>
  <scstep>
   <time name="total">    0.88    0.88</time>
   <energy>
    <i name="e_fr_energy">     31.76922788 </i>
    <i name="e_wo_entrp">     31.76922788 </i>
    <i name="e_0_energy">     31.76922788 </i>
   </energy>
  </scstep>
  <scstep>
   <time name="total">    0.89    0.89</time>
   <energy>
    <i name="e_fr_energy">     22.29632526 </i>
    <i name="e_wo_entrp">     22.29632526 </i>
    <i name="e_0_energy">     22.29632526 </i>
   </energy>
  </scstep>
  <scstep>
   <time name="total">    0.87    0.87</time>
   <energy>
    <i name="e_fr_energy">      7.34902207 </i>
    <i name="e_wo_entrp">      7.34902207 </i>
    <i name="e_0_energy">      7.34902207 </i>
   </energy>
  </scstep>
  <scstep>
   <time name="total">    0.88    0.88</time>
   <energy>
    <i name="e_fr_energy">      0.64921405 </i>
    <i name="e_wo_entrp">      0.64921405 </i>
    <i name="e_0_energy">      0.64921405 </i>
   </energy>
  </scstep>
  <scstep>
   <time name="total">    0.89    0.89</time>
   <energy>
    <i name="e_fr_energy">      0.10925610 </i>
    <i name="e_wo_entrp">      0.10925610 </i>
    <i name="e_0_energy">      0.10925610 </i>
   </energy>
  </scstep>
  <scstep>
   <time name="total">    0.88    0.88</time>
   <energy>
    <i name="e_fr_energy">      0.08659716 </i>
    <i name="e_wo_entrp">      0.08659716 </i>
    <i name="e_0_energy">      0.08659716 </i>
   </energy>
  </scstep>
  <scstep>
   <time name="total">    0.90    0.90</time>
   <energy>
    <i name="e_fr_energy">     -0.18660200 </i>
    <i name="e_wo_entrp">     -0.18660200 </i>
    <i name="e_0_energy">     -0.18660200 </i>
   </energy>
  </scstep>
  <scstep>
   <time name="total">    0.88    0.88</time>
   <energy>
    <i name="e_fr_energy">     -0.20816451 </i>
    <i name="e_wo_entrp">     -0.20816451 </i>
    <i name="e_0_energy">     -0.20816451 </i>
   </energy>
  </scstep>
  <scstep>
   <time name="total">    0.89    0.89</time>
   <energy>
    <i name="e_fr_energy">     -0.22314937 </i>
    <i name="e_wo_entrp">     -0.22314937 </i>
    <i name="e_0_energy">     -0.22314937 </i>
   </energy>
  </scstep>
  <scstep>
   <time name="total">    0.88    0.88</time>
   <energy>
    <i name="e_fr_energy">     -0.23377904 </i>
    <i name="e_wo_entrp">     -0.23377904 </i>
    <i name="e_0_energy">     -0.23377904 </i>
   </energy>
  </scstep>
  <scstep>
   <time name="total">    0.88    0.88</time>
   <energy>
    <i name="e_fr_energy">     -0.23473962 </i>
    <i name="e_wo_entrp">     -0.23473962 </i>
    <i name="e_0_energy">     -0.23473962 </i>
   </energy>
  </scstep>
  <scstep>
   <time name="total">    0.87    0.87</time>
   <energy>
    <i name="e_fr_energy">     -0.23652753 </i>
    <i name="e_wo_entrp">     -0.23652753 </i>
    <i name="e_0_energy">     -0.23652753 </i>
   </energy>
  </scstep>
  <scstep>
   <time name="total">    0.88    0.88</time>
   <energy>
    <i name="e_fr_energy">     -0.23672748 </i>
    <i name="e_wo_entrp">     -0.23672748 </i>
    <i name="e_0_energy">     -0.23672748 </i>
   </energy>
  </scstep>
  <scstep>
   <time name="total">    0.88    0.88</time>
   <energy>
    <i name="e_fr_energy">     -0.23699205 </i>
    <i name="e_wo_entrp">     -0.23699205 </i>
    <i name="e_0_energy">     -0.23699205 </i>
   </energy>
  </scstep>
  <scstep>
   <time name="total">    0.87    0.87</time>
   <energy>
    <i name="e_fr_energy">     -0.23705286 </i>
    <i name="e_wo_entrp">     -0.23705286 </i>
    <i name="e_0_energy">     -0.23705286 </i>
   </energy>
  </scstep>
  <scstep>
   <time name="total">    0.94    0.94</time>
   <energy>
    <i name="alphaZ">      1.80951196 </i>
    <i name="ewald">   -590.37613616 </i>
    <i name="hartreedc">  -3003.95967022 </i>
    <i name="XCdc">    106.37856108 </i>
    <i name="pawpsdc">   3471.92494179 </i>
    <i name="pawaedc">  -3621.63526025 </i>
    <i name="eentropy">     -0.00000000 </i>
    <i name="bandstr">   -484.44502632 </i>
    <i name="atom">   4120.06598957 </i>
    <i name="e_fr_energy">     -0.23708854 </i>
    <i name="e_wo_entrp">     -0.23708854 </i>
    <i name="e_0_energy">     -0.23708854 </i>
   </energy>
  </scstep>
  <structure>
   <crystal>
    <varray name="basis" >
     <v>      10.00000000       0.00000000       0.00000000 </v>
     <v>       0.00000000      10.00000000       0.00000000 </v>
     <v>       0.00000000       0.00000000      10.00000000 </v>
    </varray>
    <i name="volume">   1000.00000000 </i>
    <varray name="rec_basis" >
     <v>       0.10000000       0.00000000       0.00000000 </v>
     <v>       0.00000000       0.10000000       0.00000000 </v>
     <v>       0.00000000       0.00000000       0.10000000 </v>
    </varray>
   </crystal>
   <varray name="positions" >
    <v>       0.50000000       0.50000000       0.50000000 </v>
   </varray>
  </structure>
  <varray name="forces" >
   <v>       0.00000000       0.00000000       0.00000000 </v>
  </varray>
  <varray name="stress" >
   <v>      -0.40191059       0.00000000      -0.00000000 </v>
   <v>       0.00000000      -0.40191059       0.00000000 </v>
   <v>       0.00000000       0.00000000      -0.40191059 </v>
  </varray>
  <energy>
   <i name="e_fr_energy">     -0.23708854 </i>
   <i name="e_wo_entrp">     -0.23708854 </i>
   <i name="e_0_energy">     -0.00000000 </i>
  </energy>
  <time name="totalsc">   29.62   29.81</time>
  <eigenvalues>
   <array>
    <dimension dim="1">band</dimension>
    <dimension dim="2">kpoint</dimension>
    <dimension dim="3">spin</dimension>
    <field>eigene</field>
    <field>occ</field>
    <set>
     <set comment="spin 1">
      <set comment="kpoint 1">
       <r>  -71.8881    1.0000 </r>
       <r>  -71.8881    1.0000 </r>
       <r>  -71.8881    1.0000 </r>
       <r>   -4.9002    1.0000 </r>
       <r>   -4.9002    1.0000 </r>
       <r>   -4.9001    1.0000 </r>
       <r>   -4.9001    1.0000 </r>
       <r>   -4.9001    1.0000 </r>
       <r>   -4.8647    1.0000 </r>
       <r>   -0.7537    0.0000 </r>
       <r>   -0.7536    0.0000 </r>
       <r>   -0.7533    0.0000 </r>
       <r>   -0.2988    0.0000 </r>
       <r>    0.8514    0.0000 </r>
       <r>    0.8514    0.0000 </r>
       <r>    1.5567    0.0000 </r>
       <r>    1.5586    0.0000 </r>
       <r>    1.5605    0.0000 </r>
       <r>    1.6161    0.0000 </r>
       <r>    2.0067    0.0000 </r>
       <r>    2.0068    0.0000 </r>
       <r>    2.0069    0.0000 </r>
       <r>    2.4504    0.0000 </r>
       <r>    2.4511    0.0000 </r>
       <r>    2.4520    0.0000 </r>
       <r>    2.4776    0.0000 </r>
       <r>    2.4793    0.0000 </r>
       <r>    3.4381    0.0000 </r>
       <r>    3.4922    0.0000 </r>
       <r>    3.5015    0.0000 </r>
       <r>    3.5638    0.0000 </r>
       <r>    3.6931    0.0000 </r>
       <r>    3.7192    0.0000 </r>
       <r>    3.7758    0.0000 </r>
       <r>    3.7789    0.0000 </r>
       <r>    4.6881    0.0000 </r>
      </set>
     </set>
     <set comment="spin 2">
      <set comment="kpoint 1">
       <r>  -71.9140    1.0000 </r>
       <r>  -71.9140    1.0000 </r>
       <r>  -71.9140    1.0000 </r>
       <r>   -4.7348    1.0000 </r>
       <r>   -4.7348    1.0000 </r>
       <r>   -4.7345    1.0000 </r>
       <r>   -4.7345    1.0000 </r>
       <r>   -4.7345    1.0000 </r>
       <r>   -3.9225    0.0000 </r>
       <r>    0.0696    0.0000 </r>
       <r>    0.0699    0.0000 </r>
       <r>    0.0700    0.0000 </r>
       <r>    0.1234    0.0000 </r>
       <r>    1.3306    0.0000 </r>
       <r>    1.3306    0.0000 </r>
       <r>    1.9605    0.0000 </r>
       <r>    1.9607    0.0000 </r>
       <r>    1.9614    0.0000 </r>
       <r>    1.9614    0.0000 </r>
       <r>    2.5920    0.0000 </r>
       <r>    2.5920    0.0000 </r>
       <r>    2.5924    0.0000 </r>
       <r>    2.8474    0.0000 </r>
       <r>    2.8475    0.0000 </r>
       <r>    2.8890    0.0000 </r>
       <r>    2.8895    0.0000 </r>
       <r>    2.8907    0.0000 </r>
       <r>    3.8391    0.0000 </r>
       <r>    3.8761    0.0000 </r>
       <r>    3.9201    0.0000 </r>
       <r>    3.9268    0.0000 </r>
       <r>    4.1050    0.0000 </r>
       <r>    4.1481    0.0000 </r>
       <r>    4.1773    0.0000 </r>
       <r>    4.2093    0.0000 </r>
       <r>    5.3036    0.0000 </r>
      </set>
     </set>
    </set>
   </array>
  </eigenvalues>
  <separator name="orbital magnetization" >
   <v name="MAGDIPOLOUT">      0.00000000      0.00000000      0.00000000</v>
  </separator>
  <dos>
   <i name="efermi">     -4.35504905 </i>
   <total>
    <array>
     <dimension dim="1">gridpoints</dimension>
     <dimension dim="2">spin</dimension>
     <field>energy</field>
     <field>total</field>
     <field>integrated</field>
     <set>
      <set comment="spin 1">
       <r>   -75.7749     0.0000     0.0000 </r>
       <r>   -75.4918     0.0000     0.0000 </r>
       <r>   -75.2086     0.0000     0.0000 </r>
       <r>   -74.9255     0.0000     0.0000 </r>
       <r>   -74.6424     0.0000     0.0000 </r>
       <r>   -74.3592     0.0000     0.0000 </r>
       <r>   -74.0761     0.0000     0.0000 </r>
       <r>   -73.7930     0.0000     0.0000 </r>
       <r>   -73.5098     0.0000     0.0000 </r>
       <r>   -73.2267     0.0000     0.0000 </r>
       <r>   -72.9436     0.0000     0.0000 </r>
       <r>   -72.6604     0.0000     0.0000 </r>
       <r>   -72.3773     0.0000     0.0000 </r>
       <r>   -72.0942     0.0000     0.0000 </r>
       <r>   -71.8111    10.4410     2.9562 </r>
       <r>   -71.5279     0.1548     3.0000 </r>
       <r>   -71.2448     0.0000     3.0000 </r>
       <r>   -70.9617     0.0000     3.0000 </r>
       <r>   -70.6785     0.0000     3.0000 </r>
       <r>   -70.3954     0.0000     3.0000 </r>
       <r>   -70.1123     0.0000     3.0000 </r>
       <r>   -69.8291     0.0000     3.0000 </r>
       <r>   -69.5460     0.0000     3.0000 </r>
       <r>   -69.2629     0.0000     3.0000 </r>
       <r>   -68.9797     0.0000     3.0000 </r>
       <r>   -68.6966     0.0000     3.0000 </r>
       <r>   -68.4135     0.0000     3.0000 </r>
       <r>   -68.1303     0.0000     3.0000 </r>
       <r>   -67.8472     0.0000     3.0000 </r>
       <r>   -67.5641     0.0000     3.0000 </r>
       <r>   -67.2810     0.0000     3.0000 </r>
       <r>   -66.9978     0.0000     3.0000 </r>
       <r>   -66.7147     0.0000     3.0000 </r>
       <r>   -66.4316     0.0000     3.0000 </r>
       <r>   -66.1484     0.0000     3.0000 </r>
       <r>   -65.8653     0.0000     3.0000 </r>
       <r>   -65.5822     0.0000     3.0000 </r>
       <r>   -65.2990     0.0000     3.0000 </r>
       <r>   -65.0159     0.0000     3.0000 </r>
       <r>   -64.7328     0.0000     3.0000 </r>
       <r>   -64.4496     0.0000     3.0000 </r>
       <r>   -64.1665     0.0000     3.0000 </r>
       <r>   -63.8834     0.0000     3.0000 </r>
       <r>   -63.6002     0.0000     3.0000 </r>
       <r>   -63.3171     0.0000     3.0000 </r>
       <r>   -63.0340     0.0000     3.0000 </r>
       <r>   -62.7509     0.0000     3.0000 </r>
       <r>   -62.4677     0.0000     3.0000 </r>
       <r>   -62.1846     0.0000     3.0000 </r>
       <r>   -61.9015     0.0000     3.0000 </r>
       <r>   -61.6183     0.0000     3.0000 </r>
       <r>   -61.3352     0.0000     3.0000 </r>
       <r>   -61.0521     0.0000     3.0000 </r>
       <r>   -60.7689     0.0000     3.0000 </r>
       <r>   -60.4858     0.0000     3.0000 </r>
       <r>   -60.2027     0.0000     3.0000 </r>
       <r>   -59.9195     0.0000     3.0000 </r>
       <r>   -59.6364     0.0000     3.0000 </r>
       <r>   -59.3533     0.0000     3.0000 </r>
       <r>   -59.0701     0.0000     3.0000 </r>
       <r>   -58.7870     0.0000     3.0000 </r>
       <r>   -58.5039     0.0000     3.0000 </r>
       <r>   -58.2208     0.0000     3.0000 </r>
       <r>   -57.9376     0.0000     3.0000 </r>
       <r>   -57.6545     0.0000     3.0000 </r>
       <r>   -57.3714     0.0000     3.0000 </r>
       <r>   -57.0882     0.0000     3.0000 </r>
       <r>   -56.8051     0.0000     3.0000 </r>
       <r>   -56.5220     0.0000     3.0000 </r>
       <r>   -56.2388     0.0000     3.0000 </r>
       <r>   -55.9557     0.0000     3.0000 </r>
       <r>   -55.6726     0.0000     3.0000 </r>
       <r>   -55.3894     0.0000     3.0000 </r>
       <r>   -55.1063     0.0000     3.0000 </r>
       <r>   -54.8232     0.0000     3.0000 </r>
       <r>   -54.5400     0.0000     3.0000 </r>
       <r>   -54.2569     0.0000     3.0000 </r>
       <r>   -53.9738     0.0000     3.0000 </r>
       <r>   -53.6907     0.0000     3.0000 </r>
       <r>   -53.4075     0.0000     3.0000 </r>
       <r>   -53.1244     0.0000     3.0000 </r>
       <r>   -52.8413     0.0000     3.0000 </r>
       <r>   -52.5581     0.0000     3.0000 </r>
       <r>   -52.2750     0.0000     3.0000 </r>
       <r>   -51.9919     0.0000     3.0000 </r>
       <r>   -51.7087     0.0000     3.0000 </r>
       <r>   -51.4256     0.0000     3.0000 </r>
       <r>   -51.1425     0.0000     3.0000 </r>
       <r>   -50.8593     0.0000     3.0000 </r>
       <r>   -50.5762     0.0000     3.0000 </r>
       <r>   -50.2931     0.0000     3.0000 </r>
       <r>   -50.0100     0.0000     3.0000 </r>
       <r>   -49.7268     0.0000     3.0000 </r>
       <r>   -49.4437     0.0000     3.0000 </r>
       <r>   -49.1606     0.0000     3.0000 </r>
       <r>   -48.8774     0.0000     3.0000 </r>
       <r>   -48.5943     0.0000     3.0000 </r>
       <r>   -48.3112     0.0000     3.0000 </r>
       <r>   -48.0280     0.0000     3.0000 </r>
       <r>   -47.7449     0.0000     3.0000 </r>
       <r>   -47.4618     0.0000     3.0000 </r>
       <r>   -47.1786     0.0000     3.0000 </r>
       <r>   -46.8955     0.0000     3.0000 </r>
       <r>   -46.6124     0.0000     3.0000 </r>
       <r>   -46.3292     0.0000     3.0000 </r>
       <r>   -46.0461     0.0000     3.0000 </r>
       <r>   -45.7630     0.0000     3.0000 </r>
       <r>   -45.4799     0.0000     3.0000 </r>
       <r>   -45.1967     0.0000     3.0000 </r>
       <r>   -44.9136     0.0000     3.0000 </r>
       <r>   -44.6305     0.0000     3.0000 </r>
       <r>   -44.3473     0.0000     3.0000 </r>
       <r>   -44.0642     0.0000     3.0000 </r>
       <r>   -43.7811     0.0000     3.0000 </r>
       <r>   -43.4979     0.0000     3.0000 </r>
       <r>   -43.2148     0.0000     3.0000 </r>
       <r>   -42.9317     0.0000     3.0000 </r>
       <r>   -42.6485     0.0000     3.0000 </r>
       <r>   -42.3654     0.0000     3.0000 </r>
       <r>   -42.0823     0.0000     3.0000 </r>
       <r>   -41.7991     0.0000     3.0000 </r>
       <r>   -41.5160     0.0000     3.0000 </r>
       <r>   -41.2329     0.0000     3.0000 </r>
       <r>   -40.9498     0.0000     3.0000 </r>
       <r>   -40.6666     0.0000     3.0000 </r>
       <r>   -40.3835     0.0000     3.0000 </r>
       <r>   -40.1004     0.0000     3.0000 </r>
       <r>   -39.8172     0.0000     3.0000 </r>
       <r>   -39.5341     0.0000     3.0000 </r>
       <r>   -39.2510     0.0000     3.0000 </r>
       <r>   -38.9678     0.0000     3.0000 </r>
       <r>   -38.6847     0.0000     3.0000 </r>
       <r>   -38.4016     0.0000     3.0000 </r>
       <r>   -38.1184     0.0000     3.0000 </r>
       <r>   -37.8353     0.0000     3.0000 </r>
       <r>   -37.5522     0.0000     3.0000 </r>
       <r>   -37.2690     0.0000     3.0000 </r>
       <r>   -36.9859     0.0000     3.0000 </r>
       <r>   -36.7028     0.0000     3.0000 </r>
       <r>   -36.4197     0.0000     3.0000 </r>
       <r>   -36.1365     0.0000     3.0000 </r>
       <r>   -35.8534     0.0000     3.0000 </r>
       <r>   -35.5703     0.0000     3.0000 </r>
       <r>   -35.2871     0.0000     3.0000 </r>
       <r>   -35.0040     0.0000     3.0000 </r>
       <r>   -34.7209     0.0000     3.0000 </r>
       <r>   -34.4377     0.0000     3.0000 </r>
       <r>   -34.1546     0.0000     3.0000 </r>
       <r>   -33.8715     0.0000     3.0000 </r>
       <r>   -33.5883     0.0000     3.0000 </r>
       <r>   -33.3052     0.0000     3.0000 </r>
       <r>   -33.0221     0.0000     3.0000 </r>
       <r>   -32.7389     0.0000     3.0000 </r>
       <r>   -32.4558     0.0000     3.0000 </r>
       <r>   -32.1727     0.0000     3.0000 </r>
       <r>   -31.8896     0.0000     3.0000 </r>
       <r>   -31.6064     0.0000     3.0000 </r>
       <r>   -31.3233     0.0000     3.0000 </r>
       <r>   -31.0402     0.0000     3.0000 </r>
       <r>   -30.7570     0.0000     3.0000 </r>
       <r>   -30.4739     0.0000     3.0000 </r>
       <r>   -30.1908     0.0000     3.0000 </r>
       <r>   -29.9076     0.0000     3.0000 </r>
       <r>   -29.6245     0.0000     3.0000 </r>
       <r>   -29.3414     0.0000     3.0000 </r>
       <r>   -29.0582     0.0000     3.0000 </r>
       <r>   -28.7751     0.0000     3.0000 </r>
       <r>   -28.4920     0.0000     3.0000 </r>
       <r>   -28.2089     0.0000     3.0000 </r>
       <r>   -27.9257     0.0000     3.0000 </r>
       <r>   -27.6426     0.0000     3.0000 </r>
       <r>   -27.3595     0.0000     3.0000 </r>
       <r>   -27.0763     0.0000     3.0000 </r>
       <r>   -26.7932     0.0000     3.0000 </r>
       <r>   -26.5101     0.0000     3.0000 </r>
       <r>   -26.2269     0.0000     3.0000 </r>
       <r>   -25.9438     0.0000     3.0000 </r>
       <r>   -25.6607     0.0000     3.0000 </r>
       <r>   -25.3775     0.0000     3.0000 </r>
       <r>   -25.0944     0.0000     3.0000 </r>
       <r>   -24.8113     0.0000     3.0000 </r>
       <r>   -24.5281     0.0000     3.0000 </r>
       <r>   -24.2450     0.0000     3.0000 </r>
       <r>   -23.9619     0.0000     3.0000 </r>
       <r>   -23.6788     0.0000     3.0000 </r>
       <r>   -23.3956     0.0000     3.0000 </r>
       <r>   -23.1125     0.0000     3.0000 </r>
       <r>   -22.8294     0.0000     3.0000 </r>
       <r>   -22.5462     0.0000     3.0000 </r>
       <r>   -22.2631     0.0000     3.0000 </r>
       <r>   -21.9800     0.0000     3.0000 </r>
       <r>   -21.6968     0.0000     3.0000 </r>
       <r>   -21.4137     0.0000     3.0000 </r>
       <r>   -21.1306     0.0000     3.0000 </r>
       <r>   -20.8474     0.0000     3.0000 </r>
       <r>   -20.5643     0.0000     3.0000 </r>
       <r>   -20.2812     0.0000     3.0000 </r>
       <r>   -19.9980     0.0000     3.0000 </r>
       <r>   -19.7149     0.0000     3.0000 </r>
       <r>   -19.4318     0.0000     3.0000 </r>
       <r>   -19.1487     0.0000     3.0000 </r>
       <r>   -18.8655     0.0000     3.0000 </r>
       <r>   -18.5824     0.0000     3.0000 </r>
       <r>   -18.2993     0.0000     3.0000 </r>
       <r>   -18.0161     0.0000     3.0000 </r>
       <r>   -17.7330     0.0000     3.0000 </r>
       <r>   -17.4499     0.0000     3.0000 </r>
       <r>   -17.1667     0.0000     3.0000 </r>
       <r>   -16.8836     0.0000     3.0000 </r>
       <r>   -16.6005     0.0000     3.0000 </r>
       <r>   -16.3173     0.0000     3.0000 </r>
       <r>   -16.0342     0.0000     3.0000 </r>
       <r>   -15.7511     0.0000     3.0000 </r>
       <r>   -15.4679     0.0000     3.0000 </r>
       <r>   -15.1848     0.0000     3.0000 </r>
       <r>   -14.9017     0.0000     3.0000 </r>
       <r>   -14.6186     0.0000     3.0000 </r>
       <r>   -14.3354     0.0000     3.0000 </r>
       <r>   -14.0523     0.0000     3.0000 </r>
       <r>   -13.7692     0.0000     3.0000 </r>
       <r>   -13.4860     0.0000     3.0000 </r>
       <r>   -13.2029     0.0000     3.0000 </r>
       <r>   -12.9198     0.0000     3.0000 </r>
       <r>   -12.6366     0.0000     3.0000 </r>
       <r>   -12.3535     0.0000     3.0000 </r>
       <r>   -12.0704     0.0000     3.0000 </r>
       <r>   -11.7872     0.0000     3.0000 </r>
       <r>   -11.5041     0.0000     3.0000 </r>
       <r>   -11.2210     0.0000     3.0000 </r>
       <r>   -10.9378     0.0000     3.0000 </r>
       <r>   -10.6547     0.0000     3.0000 </r>
       <r>   -10.3716     0.0000     3.0000 </r>
       <r>   -10.0885     0.0000     3.0000 </r>
       <r>    -9.8053     0.0000     3.0000 </r>
       <r>    -9.5222     0.0000     3.0000 </r>
       <r>    -9.2391     0.0000     3.0000 </r>
       <r>    -8.9559     0.0000     3.0000 </r>
       <r>    -8.6728     0.0000     3.0000 </r>
       <r>    -8.3897     0.0000     3.0000 </r>
       <r>    -8.1065     0.0000     3.0000 </r>
       <r>    -7.8234     0.0000     3.0000 </r>
       <r>    -7.5403     0.0000     3.0000 </r>
       <r>    -7.2571     0.0000     3.0000 </r>
       <r>    -6.9740     0.0000     3.0000 </r>
       <r>    -6.6909     0.0000     3.0000 </r>
       <r>    -6.4078     0.0000     3.0000 </r>
       <r>    -6.1246     0.0000     3.0000 </r>
       <r>    -5.8415     0.0000     3.0000 </r>
       <r>    -5.5584     0.0000     3.0000 </r>
       <r>    -5.2752     0.0000     3.0000 </r>
       <r>    -4.9921     0.0827     3.0234 </r>
       <r>    -4.7090    21.1089     9.0000 </r>
       <r>    -4.4258     0.0000     9.0000 </r>
       <r>    -4.1427     0.0000     9.0000 </r>
       <r>    -3.8596     0.0000     9.0000 </r>
       <r>    -3.5764     0.0000     9.0000 </r>
       <r>    -3.2933     0.0000     9.0000 </r>
       <r>    -3.0102     0.0000     9.0000 </r>
       <r>    -2.7270     0.0000     9.0000 </r>
       <r>    -2.4439     0.0000     9.0000 </r>
       <r>    -2.1608     0.0000     9.0000 </r>
       <r>    -1.8777     0.0000     9.0000 </r>
       <r>    -1.5945     0.0000     9.0000 </r>
       <r>    -1.3114     0.0000     9.0000 </r>
       <r>    -1.0283     0.0000     9.0000 </r>
       <r>    -0.7451     6.2956    10.7825 </r>
       <r>    -0.4620     4.3002    12.0000 </r>
       <r>    -0.1789     3.5307    12.9997 </r>
       <r>     0.1043     0.0000    13.0000 </r>
       <r>     0.3874     0.0000    13.0000 </r>
       <r>     0.6705     0.0000    13.0000 </r>
       <r>     0.9537     7.0504    14.9962 </r>
       <r>     1.2368     0.0135    15.0000 </r>
       <r>     1.5199     1.4659    15.4151 </r>
       <r>     1.8031    12.6618    19.0000 </r>
       <r>     2.0862    10.4647    21.9629 </r>
       <r>     2.3693     0.2476    22.0330 </r>
       <r>     2.6524    17.5431    27.0000 </r>
       <r>     2.9356     0.0000    27.0000 </r>
       <r>     3.2187     0.0000    27.0000 </r>
       <r>     3.5018     7.4733    29.1159 </r>
       <r>     3.7850    17.7262    34.1348 </r>
       <r>     4.0681     3.0560    35.0000 </r>
       <r>     4.3512     0.0000    35.0000 </r>
       <r>     4.6344     0.2267    35.0642 </r>
       <r>     4.9175     3.3053    36.0000 </r>
       <r>     5.2006     0.0000    36.0000 </r>
       <r>     5.4838     0.0000    36.0000 </r>
       <r>     5.7669     0.0000    36.0000 </r>
       <r>     6.0500     0.0000    36.0000 </r>
       <r>     6.3332     0.0000    36.0000 </r>
       <r>     6.6163     0.0000    36.0000 </r>
       <r>     6.8994     0.0000    36.0000 </r>
       <r>     7.1825     0.0000    36.0000 </r>
       <r>     7.4657     0.0000    36.0000 </r>
       <r>     7.7488     0.0000    36.0000 </r>
       <r>     8.0319     0.0000    36.0000 </r>
       <r>     8.3151     0.0000    36.0000 </r>
       <r>     8.5982     0.0000    36.0000 </r>
       <r>     8.8813     0.0000    36.0000 </r>
       <r>     9.1645     0.0000    36.0000 </r>
      </set>
      <set comment="spin 2">
       <r>   -75.7749     0.0000     0.0000 </r>
       <r>   -75.4918     0.0000     0.0000 </r>
       <r>   -75.2086     0.0000     0.0000 </r>
       <r>   -74.9255     0.0000     0.0000 </r>
       <r>   -74.6424     0.0000     0.0000 </r>
       <r>   -74.3592     0.0000     0.0000 </r>
       <r>   -74.0761     0.0000     0.0000 </r>
       <r>   -73.7930     0.0000     0.0000 </r>
       <r>   -73.5098     0.0000     0.0000 </r>
       <r>   -73.2267     0.0000     0.0000 </r>
       <r>   -72.9436     0.0000     0.0000 </r>
       <r>   -72.6604     0.0000     0.0000 </r>
       <r>   -72.3773     0.0000     0.0000 </r>
       <r>   -72.0942     0.0000     0.0000 </r>
       <r>   -71.8111    10.5768     2.9946 </r>
       <r>   -71.5279     0.0190     3.0000 </r>
       <r>   -71.2448     0.0000     3.0000 </r>
       <r>   -70.9617     0.0000     3.0000 </r>
       <r>   -70.6785     0.0000     3.0000 </r>
       <r>   -70.3954     0.0000     3.0000 </r>
       <r>   -70.1123     0.0000     3.0000 </r>
       <r>   -69.8291     0.0000     3.0000 </r>
       <r>   -69.5460     0.0000     3.0000 </r>
       <r>   -69.2629     0.0000     3.0000 </r>
       <r>   -68.9797     0.0000     3.0000 </r>
       <r>   -68.6966     0.0000     3.0000 </r>
       <r>   -68.4135     0.0000     3.0000 </r>
       <r>   -68.1303     0.0000     3.0000 </r>
       <r>   -67.8472     0.0000     3.0000 </r>
       <r>   -67.5641     0.0000     3.0000 </r>
       <r>   -67.2810     0.0000     3.0000 </r>
       <r>   -66.9978     0.0000     3.0000 </r>
       <r>   -66.7147     0.0000     3.0000 </r>
       <r>   -66.4316     0.0000     3.0000 </r>
       <r>   -66.1484     0.0000     3.0000 </r>
       <r>   -65.8653     0.0000     3.0000 </r>
       <r>   -65.5822     0.0000     3.0000 </r>
       <r>   -65.2990     0.0000     3.0000 </r>
       <r>   -65.0159     0.0000     3.0000 </r>
       <r>   -64.7328     0.0000     3.0000 </r>
       <r>   -64.4496     0.0000     3.0000 </r>
       <r>   -64.1665     0.0000     3.0000 </r>
       <r>   -63.8834     0.0000     3.0000 </r>
       <r>   -63.6002     0.0000     3.0000 </r>
       <r>   -63.3171     0.0000     3.0000 </r>
       <r>   -63.0340     0.0000     3.0000 </r>
       <r>   -62.7509     0.0000     3.0000 </r>
       <r>   -62.4677     0.0000     3.0000 </r>
       <r>   -62.1846     0.0000     3.0000 </r>
       <r>   -61.9015     0.0000     3.0000 </r>
       <r>   -61.6183     0.0000     3.0000 </r>
       <r>   -61.3352     0.0000     3.0000 </r>
       <r>   -61.0521     0.0000     3.0000 </r>
       <r>   -60.7689     0.0000     3.0000 </r>
       <r>   -60.4858     0.0000     3.0000 </r>
       <r>   -60.2027     0.0000     3.0000 </r>
       <r>   -59.9195     0.0000     3.0000 </r>
       <r>   -59.6364     0.0000     3.0000 </r>
       <r>   -59.3533     0.0000     3.0000 </r>
       <r>   -59.0701     0.0000     3.0000 </r>
       <r>   -58.7870     0.0000     3.0000 </r>
       <r>   -58.5039     0.0000     3.0000 </r>
       <r>   -58.2208     0.0000     3.0000 </r>
       <r>   -57.9376     0.0000     3.0000 </r>
       <r>   -57.6545     0.0000     3.0000 </r>
       <r>   -57.3714     0.0000     3.0000 </r>
       <r>   -57.0882     0.0000     3.0000 </r>
       <r>   -56.8051     0.0000     3.0000 </r>
       <r>   -56.5220     0.0000     3.0000 </r>
       <r>   -56.2388     0.0000     3.0000 </r>
       <r>   -55.9557     0.0000     3.0000 </r>
       <r>   -55.6726     0.0000     3.0000 </r>
       <r>   -55.3894     0.0000     3.0000 </r>
       <r>   -55.1063     0.0000     3.0000 </r>
       <r>   -54.8232     0.0000     3.0000 </r>
       <r>   -54.5400     0.0000     3.0000 </r>
       <r>   -54.2569     0.0000     3.0000 </r>
       <r>   -53.9738     0.0000     3.0000 </r>
       <r>   -53.6907     0.0000     3.0000 </r>
       <r>   -53.4075     0.0000     3.0000 </r>
       <r>   -53.1244     0.0000     3.0000 </r>
       <r>   -52.8413     0.0000     3.0000 </r>
       <r>   -52.5581     0.0000     3.0000 </r>
       <r>   -52.2750     0.0000     3.0000 </r>
       <r>   -51.9919     0.0000     3.0000 </r>
       <r>   -51.7087     0.0000     3.0000 </r>
       <r>   -51.4256     0.0000     3.0000 </r>
       <r>   -51.1425     0.0000     3.0000 </r>
       <r>   -50.8593     0.0000     3.0000 </r>
       <r>   -50.5762     0.0000     3.0000 </r>
       <r>   -50.2931     0.0000     3.0000 </r>
       <r>   -50.0100     0.0000     3.0000 </r>
       <r>   -49.7268     0.0000     3.0000 </r>
       <r>   -49.4437     0.0000     3.0000 </r>
       <r>   -49.1606     0.0000     3.0000 </r>
       <r>   -48.8774     0.0000     3.0000 </r>
       <r>   -48.5943     0.0000     3.0000 </r>
       <r>   -48.3112     0.0000     3.0000 </r>
       <r>   -48.0280     0.0000     3.0000 </r>
       <r>   -47.7449     0.0000     3.0000 </r>
       <r>   -47.4618     0.0000     3.0000 </r>
       <r>   -47.1786     0.0000     3.0000 </r>
       <r>   -46.8955     0.0000     3.0000 </r>
       <r>   -46.6124     0.0000     3.0000 </r>
       <r>   -46.3292     0.0000     3.0000 </r>
       <r>   -46.0461     0.0000     3.0000 </r>
       <r>   -45.7630     0.0000     3.0000 </r>
       <r>   -45.4799     0.0000     3.0000 </r>
       <r>   -45.1967     0.0000     3.0000 </r>
       <r>   -44.9136     0.0000     3.0000 </r>
       <r>   -44.6305     0.0000     3.0000 </r>
       <r>   -44.3473     0.0000     3.0000 </r>
       <r>   -44.0642     0.0000     3.0000 </r>
       <r>   -43.7811     0.0000     3.0000 </r>
       <r>   -43.4979     0.0000     3.0000 </r>
       <r>   -43.2148     0.0000     3.0000 </r>
       <r>   -42.9317     0.0000     3.0000 </r>
       <r>   -42.6485     0.0000     3.0000 </r>
       <r>   -42.3654     0.0000     3.0000 </r>
       <r>   -42.0823     0.0000     3.0000 </r>
       <r>   -41.7991     0.0000     3.0000 </r>
       <r>   -41.5160     0.0000     3.0000 </r>
       <r>   -41.2329     0.0000     3.0000 </r>
       <r>   -40.9498     0.0000     3.0000 </r>
       <r>   -40.6666     0.0000     3.0000 </r>
       <r>   -40.3835     0.0000     3.0000 </r>
       <r>   -40.1004     0.0000     3.0000 </r>
       <r>   -39.8172     0.0000     3.0000 </r>
       <r>   -39.5341     0.0000     3.0000 </r>
       <r>   -39.2510     0.0000     3.0000 </r>
       <r>   -38.9678     0.0000     3.0000 </r>
       <r>   -38.6847     0.0000     3.0000 </r>
       <r>   -38.4016     0.0000     3.0000 </r>
       <r>   -38.1184     0.0000     3.0000 </r>
       <r>   -37.8353     0.0000     3.0000 </r>
       <r>   -37.5522     0.0000     3.0000 </r>
       <r>   -37.2690     0.0000     3.0000 </r>
       <r>   -36.9859     0.0000     3.0000 </r>
       <r>   -36.7028     0.0000     3.0000 </r>
       <r>   -36.4197     0.0000     3.0000 </r>
       <r>   -36.1365     0.0000     3.0000 </r>
       <r>   -35.8534     0.0000     3.0000 </r>
       <r>   -35.5703     0.0000     3.0000 </r>
       <r>   -35.2871     0.0000     3.0000 </r>
       <r>   -35.0040     0.0000     3.0000 </r>
       <r>   -34.7209     0.0000     3.0000 </r>
       <r>   -34.4377     0.0000     3.0000 </r>
       <r>   -34.1546     0.0000     3.0000 </r>
       <r>   -33.8715     0.0000     3.0000 </r>
       <r>   -33.5883     0.0000     3.0000 </r>
       <r>   -33.3052     0.0000     3.0000 </r>
       <r>   -33.0221     0.0000     3.0000 </r>
       <r>   -32.7389     0.0000     3.0000 </r>
       <r>   -32.4558     0.0000     3.0000 </r>
       <r>   -32.1727     0.0000     3.0000 </r>
       <r>   -31.8896     0.0000     3.0000 </r>
       <r>   -31.6064     0.0000     3.0000 </r>
       <r>   -31.3233     0.0000     3.0000 </r>
       <r>   -31.0402     0.0000     3.0000 </r>
       <r>   -30.7570     0.0000     3.0000 </r>
       <r>   -30.4739     0.0000     3.0000 </r>
       <r>   -30.1908     0.0000     3.0000 </r>
       <r>   -29.9076     0.0000     3.0000 </r>
       <r>   -29.6245     0.0000     3.0000 </r>
       <r>   -29.3414     0.0000     3.0000 </r>
       <r>   -29.0582     0.0000     3.0000 </r>
       <r>   -28.7751     0.0000     3.0000 </r>
       <r>   -28.4920     0.0000     3.0000 </r>
       <r>   -28.2089     0.0000     3.0000 </r>
       <r>   -27.9257     0.0000     3.0000 </r>
       <r>   -27.6426     0.0000     3.0000 </r>
       <r>   -27.3595     0.0000     3.0000 </r>
       <r>   -27.0763     0.0000     3.0000 </r>
       <r>   -26.7932     0.0000     3.0000 </r>
       <r>   -26.5101     0.0000     3.0000 </r>
       <r>   -26.2269     0.0000     3.0000 </r>
       <r>   -25.9438     0.0000     3.0000 </r>
       <r>   -25.6607     0.0000     3.0000 </r>
       <r>   -25.3775     0.0000     3.0000 </r>
       <r>   -25.0944     0.0000     3.0000 </r>
       <r>   -24.8113     0.0000     3.0000 </r>
       <r>   -24.5281     0.0000     3.0000 </r>
       <r>   -24.2450     0.0000     3.0000 </r>
       <r>   -23.9619     0.0000     3.0000 </r>
       <r>   -23.6788     0.0000     3.0000 </r>
       <r>   -23.3956     0.0000     3.0000 </r>
       <r>   -23.1125     0.0000     3.0000 </r>
       <r>   -22.8294     0.0000     3.0000 </r>
       <r>   -22.5462     0.0000     3.0000 </r>
       <r>   -22.2631     0.0000     3.0000 </r>
       <r>   -21.9800     0.0000     3.0000 </r>
       <r>   -21.6968     0.0000     3.0000 </r>
       <r>   -21.4137     0.0000     3.0000 </r>
       <r>   -21.1306     0.0000     3.0000 </r>
       <r>   -20.8474     0.0000     3.0000 </r>
       <r>   -20.5643     0.0000     3.0000 </r>
       <r>   -20.2812     0.0000     3.0000 </r>
       <r>   -19.9980     0.0000     3.0000 </r>
       <r>   -19.7149     0.0000     3.0000 </r>
       <r>   -19.4318     0.0000     3.0000 </r>
       <r>   -19.1487     0.0000     3.0000 </r>
       <r>   -18.8655     0.0000     3.0000 </r>
       <r>   -18.5824     0.0000     3.0000 </r>
       <r>   -18.2993     0.0000     3.0000 </r>
       <r>   -18.0161     0.0000     3.0000 </r>
       <r>   -17.7330     0.0000     3.0000 </r>
       <r>   -17.4499     0.0000     3.0000 </r>
       <r>   -17.1667     0.0000     3.0000 </r>
       <r>   -16.8836     0.0000     3.0000 </r>
       <r>   -16.6005     0.0000     3.0000 </r>
       <r>   -16.3173     0.0000     3.0000 </r>
       <r>   -16.0342     0.0000     3.0000 </r>
       <r>   -15.7511     0.0000     3.0000 </r>
       <r>   -15.4679     0.0000     3.0000 </r>
       <r>   -15.1848     0.0000     3.0000 </r>
       <r>   -14.9017     0.0000     3.0000 </r>
       <r>   -14.6186     0.0000     3.0000 </r>
       <r>   -14.3354     0.0000     3.0000 </r>
       <r>   -14.0523     0.0000     3.0000 </r>
       <r>   -13.7692     0.0000     3.0000 </r>
       <r>   -13.4860     0.0000     3.0000 </r>
       <r>   -13.2029     0.0000     3.0000 </r>
       <r>   -12.9198     0.0000     3.0000 </r>
       <r>   -12.6366     0.0000     3.0000 </r>
       <r>   -12.3535     0.0000     3.0000 </r>
       <r>   -12.0704     0.0000     3.0000 </r>
       <r>   -11.7872     0.0000     3.0000 </r>
       <r>   -11.5041     0.0000     3.0000 </r>
       <r>   -11.2210     0.0000     3.0000 </r>
       <r>   -10.9378     0.0000     3.0000 </r>
       <r>   -10.6547     0.0000     3.0000 </r>
       <r>   -10.3716     0.0000     3.0000 </r>
       <r>   -10.0885     0.0000     3.0000 </r>
       <r>    -9.8053     0.0000     3.0000 </r>
       <r>    -9.5222     0.0000     3.0000 </r>
       <r>    -9.2391     0.0000     3.0000 </r>
       <r>    -8.9559     0.0000     3.0000 </r>
       <r>    -8.6728     0.0000     3.0000 </r>
       <r>    -8.3897     0.0000     3.0000 </r>
       <r>    -8.1065     0.0000     3.0000 </r>
       <r>    -7.8234     0.0000     3.0000 </r>
       <r>    -7.5403     0.0000     3.0000 </r>
       <r>    -7.2571     0.0000     3.0000 </r>
       <r>    -6.9740     0.0000     3.0000 </r>
       <r>    -6.6909     0.0000     3.0000 </r>
       <r>    -6.4078     0.0000     3.0000 </r>
       <r>    -6.1246     0.0000     3.0000 </r>
       <r>    -5.8415     0.0000     3.0000 </r>
       <r>    -5.5584     0.0000     3.0000 </r>
       <r>    -5.2752     0.0000     3.0000 </r>
       <r>    -4.9921     0.0000     3.0000 </r>
       <r>    -4.7090    13.5301     6.8308 </r>
       <r>    -4.4258     4.1296     8.0000 </r>
       <r>    -4.1427     0.0000     8.0000 </r>
       <r>    -3.8596     3.3995     8.9625 </r>
       <r>    -3.5764     0.1324     9.0000 </r>
       <r>    -3.2933     0.0000     9.0000 </r>
       <r>    -3.0102     0.0000     9.0000 </r>
       <r>    -2.7270     0.0000     9.0000 </r>
       <r>    -2.4439     0.0000     9.0000 </r>
       <r>    -2.1608     0.0000     9.0000 </r>
       <r>    -1.8777     0.0000     9.0000 </r>
       <r>    -1.5945     0.0000     9.0000 </r>
       <r>    -1.3114     0.0000     9.0000 </r>
       <r>    -1.0283     0.0000     9.0000 </r>
       <r>    -0.7451     0.0000     9.0000 </r>
       <r>    -0.4620     0.0000     9.0000 </r>
       <r>    -0.1789     0.0000     9.0000 </r>
       <r>     0.1043     9.8841    11.7985 </r>
       <r>     0.3874     4.2437    13.0000 </r>
       <r>     0.6705     0.0000    13.0000 </r>
       <r>     0.9537     0.0000    13.0000 </r>
       <r>     1.2368     0.0281    13.0080 </r>
       <r>     1.5199     7.0358    15.0000 </r>
       <r>     1.8031     0.0001    15.0000 </r>
       <r>     2.0862    14.1248    18.9992 </r>
       <r>     2.3693     0.0000    19.0000 </r>
       <r>     2.6524    10.1291    21.8679 </r>
       <r>     2.9356    17.0492    26.6950 </r>
       <r>     3.2187     1.0771    27.0000 </r>
       <r>     3.5018     0.0000    27.0000 </r>
       <r>     3.7850     0.2405    27.0681 </r>
       <r>     4.0681    14.4555    31.1609 </r>
       <r>     4.3512    13.5592    35.0000 </r>
       <r>     4.6344     0.0000    35.0000 </r>
       <r>     4.9175     0.0000    35.0000 </r>
       <r>     5.2006     0.0063    35.0018 </r>
       <r>     5.4838     3.5256    36.0000 </r>
       <r>     5.7669     0.0000    36.0000 </r>
       <r>     6.0500     0.0000    36.0000 </r>
       <r>     6.3332     0.0000    36.0000 </r>
       <r>     6.6163     0.0000    36.0000 </r>
       <r>     6.8994     0.0000    36.0000 </r>
       <r>     7.1825     0.0000    36.0000 </r>
       <r>     7.4657     0.0000    36.0000 </r>
       <r>     7.7488     0.0000    36.0000 </r>
       <r>     8.0319     0.0000    36.0000 </r>
       <r>     8.3151     0.0000    36.0000 </r>
       <r>     8.5982     0.0000    36.0000 </r>
       <r>     8.8813     0.0000    36.0000 </r>
       <r>     9.1645     0.0000    36.0000 </r>
      </set>
     </set>
    </array>
   </total>
   <partial>
    <array>
     <dimension dim="1">gridpoints</dimension>
     <dimension dim="2">spin</dimension>
     <dimension dim="3">ion</dimension>
     <field>energy</field>
     <field>    s</field>
     <field>   py</field>
     <field>   pz</field>
     <field>   px</field>
     <field>  dxy</field>
     <field>  dyz</field>
     <field>  dz2</field>
     <field>  dxz</field>
     <field>x2-y2</field>
     <set>
      <set comment="ion 1">
       <set comment="spin 1">
        <r>   -75.7749     0.0000     0.0000     0.0000     0.0000     0.0000     0.0000     0.0000     0.0000     0.0000 </r>
        <r>   -75.4918     0.0000     0.0000     0.0000     0.0000     0.0000     0.0000     0.0000     0.0000     0.0000 </r>
        <r>   -75.2086     0.0000     0.0000     0.0000     0.0000     0.0000     0.0000     0.0000     0.0000     0.0000 </r>
        <r>   -74.9255     0.0000     0.0000     0.0000     0.0000     0.0000     0.0000     0.0000     0.0000     0.0000 </r>
        <r>   -74.6424     0.0000     0.0000     0.0000     0.0000     0.0000     0.0000     0.0000     0.0000     0.0000 </r>
        <r>   -74.3592     0.0000     0.0000     0.0000     0.0000     0.0000     0.0000     0.0000     0.0000     0.0000 </r>
        <r>   -74.0761     0.0000     0.0000     0.0000     0.0000     0.0000     0.0000     0.0000     0.0000     0.0000 </r>
        <r>   -73.7930     0.0000     0.0000     0.0000     0.0000     0.0000     0.0000     0.0000     0.0000     0.0000 </r>
        <r>   -73.5098     0.0000     0.0000     0.0000     0.0000     0.0000     0.0000     0.0000     0.0000     0.0000 </r>
        <r>   -73.2267     0.0000     0.0000     0.0000     0.0000     0.0000     0.0000     0.0000     0.0000     0.0000 </r>
        <r>   -72.9436     0.0000     0.0000     0.0000     0.0000     0.0000     0.0000     0.0000     0.0000     0.0000 </r>
        <r>   -72.6604     0.0000     0.0000     0.0000     0.0000     0.0000     0.0000     0.0000     0.0000     0.0000 </r>
        <r>   -72.3773     0.0000     0.0000     0.0000     0.0000     0.0000     0.0000     0.0000     0.0000     0.0000 </r>
        <r>   -72.0942     0.0000     0.0000     0.0000     0.0000     0.0000     0.0000     0.0000     0.0000     0.0000 </r>
        <r>   -71.8111     0.0000     3.4712     3.4712     3.4712     0.0000     0.0000     0.0000     0.0000     0.0000 </r>
        <r>   -71.5279     0.0000     0.0515     0.0515     0.0515     0.0000     0.0000     0.0000     0.0000     0.0000 </r>
        <r>   -71.2448     0.0000     0.0000     0.0000     0.0000     0.0000     0.0000     0.0000     0.0000     0.0000 </r>
        <r>   -70.9617     0.0000     0.0000     0.0000     0.0000     0.0000     0.0000     0.0000     0.0000     0.0000 </r>
        <r>   -70.6785     0.0000     0.0000     0.0000     0.0000     0.0000     0.0000     0.0000     0.0000     0.0000 </r>
        <r>   -70.3954     0.0000     0.0000     0.0000     0.0000     0.0000     0.0000     0.0000     0.0000     0.0000 </r>
        <r>   -70.1123     0.0000     0.0000     0.0000     0.0000     0.0000     0.0000     0.0000     0.0000     0.0000 </r>
        <r>   -69.8291     0.0000     0.0000     0.0000     0.0000     0.0000     0.0000     0.0000     0.0000     0.0000 </r>
        <r>   -69.5460     0.0000     0.0000     0.0000     0.0000     0.0000     0.0000     0.0000     0.0000     0.0000 </r>
        <r>   -69.2629     0.0000     0.0000     0.0000     0.0000     0.0000     0.0000     0.0000     0.0000     0.0000 </r>
        <r>   -68.9797     0.0000     0.0000     0.0000     0.0000     0.0000     0.0000     0.0000     0.0000     0.0000 </r>
        <r>   -68.6966     0.0000     0.0000     0.0000     0.0000     0.0000     0.0000     0.0000     0.0000     0.0000 </r>
        <r>   -68.4135     0.0000     0.0000     0.0000     0.0000     0.0000     0.0000     0.0000     0.0000     0.0000 </r>
        <r>   -68.1303     0.0000     0.0000     0.0000     0.0000     0.0000     0.0000     0.0000     0.0000     0.0000 </r>
        <r>   -67.8472     0.0000     0.0000     0.0000     0.0000     0.0000     0.0000     0.0000     0.0000     0.0000 </r>
        <r>   -67.5641     0.0000     0.0000     0.0000     0.0000     0.0000     0.0000     0.0000     0.0000     0.0000 </r>
        <r>   -67.2810     0.0000     0.0000     0.0000     0.0000     0.0000     0.0000     0.0000     0.0000     0.0000 </r>
        <r>   -66.9978     0.0000     0.0000     0.0000     0.0000     0.0000     0.0000     0.0000     0.0000     0.0000 </r>
        <r>   -66.7147     0.0000     0.0000     0.0000     0.0000     0.0000     0.0000     0.0000     0.0000     0.0000 </r>
        <r>   -66.4316     0.0000     0.0000     0.0000     0.0000     0.0000     0.0000     0.0000     0.0000     0.0000 </r>
        <r>   -66.1484     0.0000     0.0000     0.0000     0.0000     0.0000     0.0000     0.0000     0.0000     0.0000 </r>
        <r>   -65.8653     0.0000     0.0000     0.0000     0.0000     0.0000     0.0000     0.0000     0.0000     0.0000 </r>
        <r>   -65.5822     0.0000     0.0000     0.0000     0.0000     0.0000     0.0000     0.0000     0.0000     0.0000 </r>
        <r>   -65.2990     0.0000     0.0000     0.0000     0.0000     0.0000     0.0000     0.0000     0.0000     0.0000 </r>
        <r>   -65.0159     0.0000     0.0000     0.0000     0.0000     0.0000     0.0000     0.0000     0.0000     0.0000 </r>
        <r>   -64.7328     0.0000     0.0000     0.0000     0.0000     0.0000     0.0000     0.0000     0.0000     0.0000 </r>
        <r>   -64.4496     0.0000     0.0000     0.0000     0.0000     0.0000     0.0000     0.0000     0.0000     0.0000 </r>
        <r>   -64.1665     0.0000     0.0000     0.0000     0.0000     0.0000     0.0000     0.0000     0.0000     0.0000 </r>
        <r>   -63.8834     0.0000     0.0000     0.0000     0.0000     0.0000     0.0000     0.0000     0.0000     0.0000 </r>
        <r>   -63.6002     0.0000     0.0000     0.0000     0.0000     0.0000     0.0000     0.0000     0.0000     0.0000 </r>
        <r>   -63.3171     0.0000     0.0000     0.0000     0.0000     0.0000     0.0000     0.0000     0.0000     0.0000 </r>
        <r>   -63.0340     0.0000     0.0000     0.0000     0.0000     0.0000     0.0000     0.0000     0.0000     0.0000 </r>
        <r>   -62.7509     0.0000     0.0000     0.0000     0.0000     0.0000     0.0000     0.0000     0.0000     0.0000 </r>
        <r>   -62.4677     0.0000     0.0000     0.0000     0.0000     0.0000     0.0000     0.0000     0.0000     0.0000 </r>
        <r>   -62.1846     0.0000     0.0000     0.0000     0.0000     0.0000     0.0000     0.0000     0.0000     0.0000 </r>
        <r>   -61.9015     0.0000     0.0000     0.0000     0.0000     0.0000     0.0000     0.0000     0.0000     0.0000 </r>
        <r>   -61.6183     0.0000     0.0000     0.0000     0.0000     0.0000     0.0000     0.0000     0.0000     0.0000 </r>
        <r>   -61.3352     0.0000     0.0000     0.0000     0.0000     0.0000     0.0000     0.0000     0.0000     0.0000 </r>
        <r>   -61.0521     0.0000     0.0000     0.0000     0.0000     0.0000     0.0000     0.0000     0.0000     0.0000 </r>
        <r>   -60.7689     0.0000     0.0000     0.0000     0.0000     0.0000     0.0000     0.0000     0.0000     0.0000 </r>
        <r>   -60.4858     0.0000     0.0000     0.0000     0.0000     0.0000     0.0000     0.0000     0.0000     0.0000 </r>
        <r>   -60.2027     0.0000     0.0000     0.0000     0.0000     0.0000     0.0000     0.0000     0.0000     0.0000 </r>
        <r>   -59.9195     0.0000     0.0000     0.0000     0.0000     0.0000     0.0000     0.0000     0.0000     0.0000 </r>
        <r>   -59.6364     0.0000     0.0000     0.0000     0.0000     0.0000     0.0000     0.0000     0.0000     0.0000 </r>
        <r>   -59.3533     0.0000     0.0000     0.0000     0.0000     0.0000     0.0000     0.0000     0.0000     0.0000 </r>
        <r>   -59.0701     0.0000     0.0000     0.0000     0.0000     0.0000     0.0000     0.0000     0.0000     0.0000 </r>
        <r>   -58.7870     0.0000     0.0000     0.0000     0.0000     0.0000     0.0000     0.0000     0.0000     0.0000 </r>
        <r>   -58.5039     0.0000     0.0000     0.0000     0.0000     0.0000     0.0000     0.0000     0.0000     0.0000 </r>
        <r>   -58.2208     0.0000     0.0000     0.0000     0.0000     0.0000     0.0000     0.0000     0.0000     0.0000 </r>
        <r>   -57.9376     0.0000     0.0000     0.0000     0.0000     0.0000     0.0000     0.0000     0.0000     0.0000 </r>
        <r>   -57.6545     0.0000     0.0000     0.0000     0.0000     0.0000     0.0000     0.0000     0.0000     0.0000 </r>
        <r>   -57.3714     0.0000     0.0000     0.0000     0.0000     0.0000     0.0000     0.0000     0.0000     0.0000 </r>
        <r>   -57.0882     0.0000     0.0000     0.0000     0.0000     0.0000     0.0000     0.0000     0.0000     0.0000 </r>
        <r>   -56.8051     0.0000     0.0000     0.0000     0.0000     0.0000     0.0000     0.0000     0.0000     0.0000 </r>
        <r>   -56.5220     0.0000     0.0000     0.0000     0.0000     0.0000     0.0000     0.0000     0.0000     0.0000 </r>
        <r>   -56.2388     0.0000     0.0000     0.0000     0.0000     0.0000     0.0000     0.0000     0.0000     0.0000 </r>
        <r>   -55.9557     0.0000     0.0000     0.0000     0.0000     0.0000     0.0000     0.0000     0.0000     0.0000 </r>
        <r>   -55.6726     0.0000     0.0000     0.0000     0.0000     0.0000     0.0000     0.0000     0.0000     0.0000 </r>
        <r>   -55.3894     0.0000     0.0000     0.0000     0.0000     0.0000     0.0000     0.0000     0.0000     0.0000 </r>
        <r>   -55.1063     0.0000     0.0000     0.0000     0.0000     0.0000     0.0000     0.0000     0.0000     0.0000 </r>
        <r>   -54.8232     0.0000     0.0000     0.0000     0.0000     0.0000     0.0000     0.0000     0.0000     0.0000 </r>
        <r>   -54.5400     0.0000     0.0000     0.0000     0.0000     0.0000     0.0000     0.0000     0.0000     0.0000 </r>
        <r>   -54.2569     0.0000     0.0000     0.0000     0.0000     0.0000     0.0000     0.0000     0.0000     0.0000 </r>
        <r>   -53.9738     0.0000     0.0000     0.0000     0.0000     0.0000     0.0000     0.0000     0.0000     0.0000 </r>
        <r>   -53.6907     0.0000     0.0000     0.0000     0.0000     0.0000     0.0000     0.0000     0.0000     0.0000 </r>
        <r>   -53.4075     0.0000     0.0000     0.0000     0.0000     0.0000     0.0000     0.0000     0.0000     0.0000 </r>
        <r>   -53.1244     0.0000     0.0000     0.0000     0.0000     0.0000     0.0000     0.0000     0.0000     0.0000 </r>
        <r>   -52.8413     0.0000     0.0000     0.0000     0.0000     0.0000     0.0000     0.0000     0.0000     0.0000 </r>
        <r>   -52.5581     0.0000     0.0000     0.0000     0.0000     0.0000     0.0000     0.0000     0.0000     0.0000 </r>
        <r>   -52.2750     0.0000     0.0000     0.0000     0.0000     0.0000     0.0000     0.0000     0.0000     0.0000 </r>
        <r>   -51.9919     0.0000     0.0000     0.0000     0.0000     0.0000     0.0000     0.0000     0.0000     0.0000 </r>
        <r>   -51.7087     0.0000     0.0000     0.0000     0.0000     0.0000     0.0000     0.0000     0.0000     0.0000 </r>
        <r>   -51.4256     0.0000     0.0000     0.0000     0.0000     0.0000     0.0000     0.0000     0.0000     0.0000 </r>
        <r>   -51.1425     0.0000     0.0000     0.0000     0.0000     0.0000     0.0000     0.0000     0.0000     0.0000 </r>
        <r>   -50.8593     0.0000     0.0000     0.0000     0.0000     0.0000     0.0000     0.0000     0.0000     0.0000 </r>
        <r>   -50.5762     0.0000     0.0000     0.0000     0.0000     0.0000     0.0000     0.0000     0.0000     0.0000 </r>
        <r>   -50.2931     0.0000     0.0000     0.0000     0.0000     0.0000     0.0000     0.0000     0.0000     0.0000 </r>
        <r>   -50.0100     0.0000     0.0000     0.0000     0.0000     0.0000     0.0000     0.0000     0.0000     0.0000 </r>
        <r>   -49.7268     0.0000     0.0000     0.0000     0.0000     0.0000     0.0000     0.0000     0.0000     0.0000 </r>
        <r>   -49.4437     0.0000     0.0000     0.0000     0.0000     0.0000     0.0000     0.0000     0.0000     0.0000 </r>
        <r>   -49.1606     0.0000     0.0000     0.0000     0.0000     0.0000     0.0000     0.0000     0.0000     0.0000 </r>
        <r>   -48.8774     0.0000     0.0000     0.0000     0.0000     0.0000     0.0000     0.0000     0.0000     0.0000 </r>
        <r>   -48.5943     0.0000     0.0000     0.0000     0.0000     0.0000     0.0000     0.0000     0.0000     0.0000 </r>
        <r>   -48.3112     0.0000     0.0000     0.0000     0.0000     0.0000     0.0000     0.0000     0.0000     0.0000 </r>
        <r>   -48.0280     0.0000     0.0000     0.0000     0.0000     0.0000     0.0000     0.0000     0.0000     0.0000 </r>
        <r>   -47.7449     0.0000     0.0000     0.0000     0.0000     0.0000     0.0000     0.0000     0.0000     0.0000 </r>
        <r>   -47.4618     0.0000     0.0000     0.0000     0.0000     0.0000     0.0000     0.0000     0.0000     0.0000 </r>
        <r>   -47.1786     0.0000     0.0000     0.0000     0.0000     0.0000     0.0000     0.0000     0.0000     0.0000 </r>
        <r>   -46.8955     0.0000     0.0000     0.0000     0.0000     0.0000     0.0000     0.0000     0.0000     0.0000 </r>
        <r>   -46.6124     0.0000     0.0000     0.0000     0.0000     0.0000     0.0000     0.0000     0.0000     0.0000 </r>
        <r>   -46.3292     0.0000     0.0000     0.0000     0.0000     0.0000     0.0000     0.0000     0.0000     0.0000 </r>
        <r>   -46.0461     0.0000     0.0000     0.0000     0.0000     0.0000     0.0000     0.0000     0.0000     0.0000 </r>
        <r>   -45.7630     0.0000     0.0000     0.0000     0.0000     0.0000     0.0000     0.0000     0.0000     0.0000 </r>
        <r>   -45.4799     0.0000     0.0000     0.0000     0.0000     0.0000     0.0000     0.0000     0.0000     0.0000 </r>
        <r>   -45.1967     0.0000     0.0000     0.0000     0.0000     0.0000     0.0000     0.0000     0.0000     0.0000 </r>
        <r>   -44.9136     0.0000     0.0000     0.0000     0.0000     0.0000     0.0000     0.0000     0.0000     0.0000 </r>
        <r>   -44.6305     0.0000     0.0000     0.0000     0.0000     0.0000     0.0000     0.0000     0.0000     0.0000 </r>
        <r>   -44.3473     0.0000     0.0000     0.0000     0.0000     0.0000     0.0000     0.0000     0.0000     0.0000 </r>
        <r>   -44.0642     0.0000     0.0000     0.0000     0.0000     0.0000     0.0000     0.0000     0.0000     0.0000 </r>
        <r>   -43.7811     0.0000     0.0000     0.0000     0.0000     0.0000     0.0000     0.0000     0.0000     0.0000 </r>
        <r>   -43.4979     0.0000     0.0000     0.0000     0.0000     0.0000     0.0000     0.0000     0.0000     0.0000 </r>
        <r>   -43.2148     0.0000     0.0000     0.0000     0.0000     0.0000     0.0000     0.0000     0.0000     0.0000 </r>
        <r>   -42.9317     0.0000     0.0000     0.0000     0.0000     0.0000     0.0000     0.0000     0.0000     0.0000 </r>
        <r>   -42.6485     0.0000     0.0000     0.0000     0.0000     0.0000     0.0000     0.0000     0.0000     0.0000 </r>
        <r>   -42.3654     0.0000     0.0000     0.0000     0.0000     0.0000     0.0000     0.0000     0.0000     0.0000 </r>
        <r>   -42.0823     0.0000     0.0000     0.0000     0.0000     0.0000     0.0000     0.0000     0.0000     0.0000 </r>
        <r>   -41.7991     0.0000     0.0000     0.0000     0.0000     0.0000     0.0000     0.0000     0.0000     0.0000 </r>
        <r>   -41.5160     0.0000     0.0000     0.0000     0.0000     0.0000     0.0000     0.0000     0.0000     0.0000 </r>
        <r>   -41.2329     0.0000     0.0000     0.0000     0.0000     0.0000     0.0000     0.0000     0.0000     0.0000 </r>
        <r>   -40.9498     0.0000     0.0000     0.0000     0.0000     0.0000     0.0000     0.0000     0.0000     0.0000 </r>
        <r>   -40.6666     0.0000     0.0000     0.0000     0.0000     0.0000     0.0000     0.0000     0.0000     0.0000 </r>
        <r>   -40.3835     0.0000     0.0000     0.0000     0.0000     0.0000     0.0000     0.0000     0.0000     0.0000 </r>
        <r>   -40.1004     0.0000     0.0000     0.0000     0.0000     0.0000     0.0000     0.0000     0.0000     0.0000 </r>
        <r>   -39.8172     0.0000     0.0000     0.0000     0.0000     0.0000     0.0000     0.0000     0.0000     0.0000 </r>
        <r>   -39.5341     0.0000     0.0000     0.0000     0.0000     0.0000     0.0000     0.0000     0.0000     0.0000 </r>
        <r>   -39.2510     0.0000     0.0000     0.0000     0.0000     0.0000     0.0000     0.0000     0.0000     0.0000 </r>
        <r>   -38.9678     0.0000     0.0000     0.0000     0.0000     0.0000     0.0000     0.0000     0.0000     0.0000 </r>
        <r>   -38.6847     0.0000     0.0000     0.0000     0.0000     0.0000     0.0000     0.0000     0.0000     0.0000 </r>
        <r>   -38.4016     0.0000     0.0000     0.0000     0.0000     0.0000     0.0000     0.0000     0.0000     0.0000 </r>
        <r>   -38.1184     0.0000     0.0000     0.0000     0.0000     0.0000     0.0000     0.0000     0.0000     0.0000 </r>
        <r>   -37.8353     0.0000     0.0000     0.0000     0.0000     0.0000     0.0000     0.0000     0.0000     0.0000 </r>
        <r>   -37.5522     0.0000     0.0000     0.0000     0.0000     0.0000     0.0000     0.0000     0.0000     0.0000 </r>
        <r>   -37.2690     0.0000     0.0000     0.0000     0.0000     0.0000     0.0000     0.0000     0.0000     0.0000 </r>
        <r>   -36.9859     0.0000     0.0000     0.0000     0.0000     0.0000     0.0000     0.0000     0.0000     0.0000 </r>
        <r>   -36.7028     0.0000     0.0000     0.0000     0.0000     0.0000     0.0000     0.0000     0.0000     0.0000 </r>
        <r>   -36.4197     0.0000     0.0000     0.0000     0.0000     0.0000     0.0000     0.0000     0.0000     0.0000 </r>
        <r>   -36.1365     0.0000     0.0000     0.0000     0.0000     0.0000     0.0000     0.0000     0.0000     0.0000 </r>
        <r>   -35.8534     0.0000     0.0000     0.0000     0.0000     0.0000     0.0000     0.0000     0.0000     0.0000 </r>
        <r>   -35.5703     0.0000     0.0000     0.0000     0.0000     0.0000     0.0000     0.0000     0.0000     0.0000 </r>
        <r>   -35.2871     0.0000     0.0000     0.0000     0.0000     0.0000     0.0000     0.0000     0.0000     0.0000 </r>
        <r>   -35.0040     0.0000     0.0000     0.0000     0.0000     0.0000     0.0000     0.0000     0.0000     0.0000 </r>
        <r>   -34.7209     0.0000     0.0000     0.0000     0.0000     0.0000     0.0000     0.0000     0.0000     0.0000 </r>
        <r>   -34.4377     0.0000     0.0000     0.0000     0.0000     0.0000     0.0000     0.0000     0.0000     0.0000 </r>
        <r>   -34.1546     0.0000     0.0000     0.0000     0.0000     0.0000     0.0000     0.0000     0.0000     0.0000 </r>
        <r>   -33.8715     0.0000     0.0000     0.0000     0.0000     0.0000     0.0000     0.0000     0.0000     0.0000 </r>
        <r>   -33.5883     0.0000     0.0000     0.0000     0.0000     0.0000     0.0000     0.0000     0.0000     0.0000 </r>
        <r>   -33.3052     0.0000     0.0000     0.0000     0.0000     0.0000     0.0000     0.0000     0.0000     0.0000 </r>
        <r>   -33.0221     0.0000     0.0000     0.0000     0.0000     0.0000     0.0000     0.0000     0.0000     0.0000 </r>
        <r>   -32.7389     0.0000     0.0000     0.0000     0.0000     0.0000     0.0000     0.0000     0.0000     0.0000 </r>
        <r>   -32.4558     0.0000     0.0000     0.0000     0.0000     0.0000     0.0000     0.0000     0.0000     0.0000 </r>
        <r>   -32.1727     0.0000     0.0000     0.0000     0.0000     0.0000     0.0000     0.0000     0.0000     0.0000 </r>
        <r>   -31.8896     0.0000     0.0000     0.0000     0.0000     0.0000     0.0000     0.0000     0.0000     0.0000 </r>
        <r>   -31.6064     0.0000     0.0000     0.0000     0.0000     0.0000     0.0000     0.0000     0.0000     0.0000 </r>
        <r>   -31.3233     0.0000     0.0000     0.0000     0.0000     0.0000     0.0000     0.0000     0.0000     0.0000 </r>
        <r>   -31.0402     0.0000     0.0000     0.0000     0.0000     0.0000     0.0000     0.0000     0.0000     0.0000 </r>
        <r>   -30.7570     0.0000     0.0000     0.0000     0.0000     0.0000     0.0000     0.0000     0.0000     0.0000 </r>
        <r>   -30.4739     0.0000     0.0000     0.0000     0.0000     0.0000     0.0000     0.0000     0.0000     0.0000 </r>
        <r>   -30.1908     0.0000     0.0000     0.0000     0.0000     0.0000     0.0000     0.0000     0.0000     0.0000 </r>
        <r>   -29.9076     0.0000     0.0000     0.0000     0.0000     0.0000     0.0000     0.0000     0.0000     0.0000 </r>
        <r>   -29.6245     0.0000     0.0000     0.0000     0.0000     0.0000     0.0000     0.0000     0.0000     0.0000 </r>
        <r>   -29.3414     0.0000     0.0000     0.0000     0.0000     0.0000     0.0000     0.0000     0.0000     0.0000 </r>
        <r>   -29.0582     0.0000     0.0000     0.0000     0.0000     0.0000     0.0000     0.0000     0.0000     0.0000 </r>
        <r>   -28.7751     0.0000     0.0000     0.0000     0.0000     0.0000     0.0000     0.0000     0.0000     0.0000 </r>
        <r>   -28.4920     0.0000     0.0000     0.0000     0.0000     0.0000     0.0000     0.0000     0.0000     0.0000 </r>
        <r>   -28.2089     0.0000     0.0000     0.0000     0.0000     0.0000     0.0000     0.0000     0.0000     0.0000 </r>
[...]
        <r>    -3.5764     0.0325     0.0000     0.0000     0.0000     0.0000     0.0000     0.0000     0.0000     0.0000 </r>
        <r>    -3.2933     0.0000     0.0000     0.0000     0.0000     0.0000     0.0000     0.0000     0.0000     0.0000 </r>
        <r>    -3.0102     0.0000     0.0000     0.0000     0.0000     0.0000     0.0000     0.0000     0.0000     0.0000 </r>
        <r>    -2.7270     0.0000     0.0000     0.0000     0.0000     0.0000     0.0000     0.0000     0.0000     0.0000 </r>
        <r>    -2.4439     0.0000     0.0000     0.0000     0.0000     0.0000     0.0000     0.0000     0.0000     0.0000 </r>
        <r>    -2.1608     0.0000     0.0000     0.0000     0.0000     0.0000     0.0000     0.0000     0.0000     0.0000 </r>
        <r>    -1.8777     0.0000     0.0000     0.0000     0.0000     0.0000     0.0000     0.0000     0.0000     0.0000 </r>
        <r>    -1.5945     0.0000     0.0000     0.0000     0.0000     0.0000     0.0000     0.0000     0.0000     0.0000 </r>
        <r>    -1.3114     0.0000     0.0000     0.0000     0.0000     0.0000     0.0000     0.0000     0.0000     0.0000 </r>
        <r>    -1.0283     0.0000     0.0000     0.0000     0.0000     0.0000     0.0000     0.0000     0.0000     0.0000 </r>
        <r>    -0.7451     0.0000     0.0000     0.0000     0.0000     0.0000     0.0000     0.0000     0.0000     0.0000 </r>
        <r>    -0.4620     0.0000     0.0000     0.0000     0.0000     0.0000     0.0000     0.0000     0.0000     0.0000 </r>
        <r>    -0.1789     0.0000     0.0000     0.0000     0.0000     0.0000     0.0000     0.0000     0.0000     0.0000 </r>
        <r>     0.1043     0.0175     0.1621     0.1631     0.1629     0.0000     0.0000     0.0000     0.0000     0.0000 </r>
        <r>     0.3874     0.0411     0.0321     0.0332     0.0324     0.0000     0.0000     0.0000     0.0000     0.0000 </r>
        <r>     0.6705     0.0000     0.0000     0.0000     0.0000     0.0000     0.0000     0.0000     0.0000     0.0000 </r>
        <r>     0.9537     0.0000     0.0000     0.0000     0.0000     0.0000     0.0000     0.0000     0.0000     0.0000 </r>
        <r>     1.2368     0.0000     0.0000     0.0000     0.0000     0.0000     0.0000     0.0000     0.0000     0.0000 </r>
        <r>     1.5199     0.0000     0.0000     0.0000     0.0000     0.0000     0.0000     0.0085     0.0000     0.0083 </r>
        <r>     1.8031     0.0000     0.0000     0.0000     0.0000     0.0000     0.0000     0.0000     0.0000     0.0000 </r>
        <r>     2.0862     0.0819     0.0712     0.0692     0.0700     0.0000     0.0000     0.0000     0.0000     0.0000 </r>
        <r>     2.3693     0.0000     0.0000     0.0000     0.0000     0.0000     0.0000     0.0000     0.0000     0.0000 </r>
        <r>     2.6524     0.0000     0.0000     0.0000     0.0000     0.0223     0.0223     0.0000     0.0223     0.0000 </r>
        <r>     2.9356     0.0000     0.0002     0.0001     0.0000     0.0011     0.0010     0.0083     0.0010     0.0081 </r>
        <r>     3.2187     0.0000     0.0000     0.0000     0.0000     0.0000     0.0000     0.0001     0.0000     0.0001 </r>
        <r>     3.5018     0.0000     0.0000     0.0000     0.0000     0.0000     0.0000     0.0000     0.0000     0.0000 </r>
        <r>     3.7850     0.0000     0.0002     0.0006     0.0051     0.0000     0.0000     0.0000     0.0000     0.0000 </r>
        <r>     4.0681     0.0900     0.0703     0.0807     0.0828     0.0035     0.0030     0.0000     0.0009     0.0000 </r>
        <r>     4.3512     0.0010     0.0191     0.0076     0.0007     0.0133     0.0138     0.0000     0.0159     0.0001 </r>
        <r>     4.6344     0.0000     0.0000     0.0000     0.0000     0.0000     0.0000     0.0000     0.0000     0.0000 </r>
        <r>     4.9175     0.0000     0.0000     0.0000     0.0000     0.0000     0.0000     0.0000     0.0000     0.0000 </r>
        <r>     5.2006     0.0000     0.0000     0.0000     0.0000     0.0000     0.0000     0.0000     0.0000     0.0001 </r>
        <r>     5.4838     0.0159     0.0008     0.0001     0.0027     0.0000     0.0000     0.0002     0.0000     0.0455 </r>
        <r>     5.7669     0.0000     0.0000     0.0000     0.0000     0.0000     0.0000     0.0000     0.0000     0.0000 </r>
        <r>     6.0500     0.0000     0.0000     0.0000     0.0000     0.0000     0.0000     0.0000     0.0000     0.0000 </r>
        <r>     6.3332     0.0000     0.0000     0.0000     0.0000     0.0000     0.0000     0.0000     0.0000     0.0000 </r>
        <r>     6.6163     0.0000     0.0000     0.0000     0.0000     0.0000     0.0000     0.0000     0.0000     0.0000 </r>
        <r>     6.8994     0.0000     0.0000     0.0000     0.0000     0.0000     0.0000     0.0000     0.0000     0.0000 </r>
        <r>     7.1825     0.0000     0.0000     0.0000     0.0000     0.0000     0.0000     0.0000     0.0000     0.0000 </r>
        <r>     7.4657     0.0000     0.0000     0.0000     0.0000     0.0000     0.0000     0.0000     0.0000     0.0000 </r>
        <r>     7.7488     0.0000     0.0000     0.0000     0.0000     0.0000     0.0000     0.0000     0.0000     0.0000 </r>
        <r>     8.0319     0.0000     0.0000     0.0000     0.0000     0.0000     0.0000     0.0000     0.0000     0.0000 </r>
        <r>     8.3151     0.0000     0.0000     0.0000     0.0000     0.0000     0.0000     0.0000     0.0000     0.0000 </r>
        <r>     8.5982     0.0000     0.0000     0.0000     0.0000     0.0000     0.0000     0.0000     0.0000     0.0000 </r>
        <r>     8.8813     0.0000     0.0000     0.0000     0.0000     0.0000     0.0000     0.0000     0.0000     0.0000 </r>
        <r>     9.1645     0.0000     0.0000     0.0000     0.0000     0.0000     0.0000     0.0000     0.0000     0.0000 </r>
       </set>
      </set>
     </set>
    </array>
   </partial>
  </dos>
  <projected>
   <eigenvalues>
    <array>
     <dimension dim="1">band</dimension>
     <dimension dim="2">kpoint</dimension>
     <dimension dim="3">spin</dimension>
     <field>eigene</field>
     <field>occ</field>
     <set>
      <set comment="spin 1">
       <set comment="kpoint 1">
        <r>  -71.8881    1.0000 </r>
        <r>  -71.8881    1.0000 </r>
        <r>  -71.8881    1.0000 </r>
        <r>   -4.9002    1.0000 </r>
        <r>   -4.9002    1.0000 </r>
        <r>   -4.9001    1.0000 </r>
        <r>   -4.9001    1.0000 </r>
        <r>   -4.9001    1.0000 </r>
        <r>   -4.8647    1.0000 </r>
        <r>   -0.7537    0.0000 </r>
        <r>   -0.7536    0.0000 </r>
        <r>   -0.7533    0.0000 </r>
        <r>   -0.2988    0.0000 </r>
        <r>    0.8514    0.0000 </r>
        <r>    0.8514    0.0000 </r>
        <r>    1.5567    0.0000 </r>
        <r>    1.5586    0.0000 </r>
        <r>    1.5605    0.0000 </r>
        <r>    1.6161    0.0000 </r>
        <r>    2.0067    0.0000 </r>
        <r>    2.0068    0.0000 </r>
        <r>    2.0069    0.0000 </r>
        <r>    2.4504    0.0000 </r>
        <r>    2.4511    0.0000 </r>
        <r>    2.4520    0.0000 </r>
        <r>    2.4776    0.0000 </r>
        <r>    2.4793    0.0000 </r>
        <r>    3.4381    0.0000 </r>
        <r>    3.4922    0.0000 </r>
        <r>    3.5015    0.0000 </r>
        <r>    3.5638    0.0000 </r>
        <r>    3.6931    0.0000 </r>
        <r>    3.7192    0.0000 </r>
        <r>    3.7758    0.0000 </r>
        <r>    3.7789    0.0000 </r>
        <r>    4.6881    0.0000 </r>
       </set>
      </set>
      <set comment="spin 2">
       <set comment="kpoint 1">
        <r>  -71.9140    1.0000 </r>
        <r>  -71.9140    1.0000 </r>
        <r>  -71.9140    1.0000 </r>
        <r>   -4.7348    1.0000 </r>
        <r>   -4.7348    1.0000 </r>
        <r>   -4.7345    1.0000 </r>
        <r>   -4.7345    1.0000 </r>
        <r>   -4.7345    1.0000 </r>
        <r>   -3.9225    0.0000 </r>
        <r>    0.0696    0.0000 </r>
        <r>    0.0699    0.0000 </r>
        <r>    0.0700    0.0000 </r>
        <r>    0.1234    0.0000 </r>
        <r>    1.3306    0.0000 </r>
        <r>    1.3306    0.0000 </r>
        <r>    1.9605    0.0000 </r>
        <r>    1.9607    0.0000 </r>
        <r>    1.9614    0.0000 </r>
        <r>    1.9614    0.0000 </r>
        <r>    2.5920    0.0000 </r>
        <r>    2.5920    0.0000 </r>
        <r>    2.5924    0.0000 </r>
        <r>    2.8474    0.0000 </r>
        <r>    2.8475    0.0000 </r>
        <r>    2.8890    0.0000 </r>
        <r>    2.8895    0.0000 </r>
        <r>    2.8907    0.0000 </r>
        <r>    3.8391    0.0000 </r>
        <r>    3.8761    0.0000 </r>
        <r>    3.9201    0.0000 </r>
        <r>    3.9268    0.0000 </r>
        <r>    4.1050    0.0000 </r>
        <r>    4.1481    0.0000 </r>
        <r>    4.1773    0.0000 </r>
        <r>    4.2093    0.0000 </r>
        <r>    5.3036    0.0000 </r>
       </set>
      </set>
     </set>
    </array>
   </eigenvalues>
   <array>
    <dimension dim="1">ion</dimension>
    <dimension dim="2">band</dimension>
    <dimension dim="3">kpoint</dimension>
    <dimension dim="4">spin</dimension>
    <field>    s</field>
    <field>   py</field>
    <field>   pz</field>
    <field>   px</field>
    <field>  dxy</field>
    <field>  dyz</field>
    <field>  dz2</field>
    <field>  dxz</field>
    <field>x2-y2</field>
    <set>
     <set comment="spin1">
      <set comment="kpoint 1">
       <set comment="band 1">
        <r>  0.0000  0.6792  0.2613  0.0569  0.0000  0.0000  0.0000  0.0000  0.0000 </r>
       </set>
       <set comment="band 2">
        <r>  0.0000  0.1166  0.6214  0.2594  0.0000  0.0000  0.0000  0.0000  0.0000 </r>
       </set>
       <set comment="band 3">
        <r>  0.0000  0.2016  0.1147  0.6810  0.0000  0.0000  0.0000  0.0000  0.0000 </r>
       </set>
       <set comment="band 4">
        <r>  0.0000  0.0000  0.0000  0.0000  0.0000  0.0000  0.0020  0.0000  0.9077 </r>
       </set>
       <set comment="band 5">
        <r>  0.0000  0.0000  0.0000  0.0000  0.0000  0.0000  0.9077  0.0000  0.0020 </r>
       </set>
       <set comment="band 6">
        <r>  0.0000  0.0000  0.0000  0.0000  0.0794  0.0162  0.0000  0.8141  0.0000 </r>
       </set>
       <set comment="band 7">
        <r>  0.0000  0.0000  0.0000  0.0000  0.0444  0.8611  0.0000  0.0042  0.0000 </r>
       </set>
       <set comment="band 8">
        <r>  0.0000  0.0000  0.0000  0.0000  0.7859  0.0324  0.0000  0.0914  0.0000 </r>
       </set>
       <set comment="band 9">
        <r>  0.2373  0.0000  0.0000  0.0000  0.0000  0.0000  0.0000  0.0000  0.0000 </r>
       </set>
       <set comment="band 10">
        <r>  0.0000  0.0473  0.0118  0.0036  0.0000  0.0000  0.0000  0.0000  0.0000 </r>
       </set>
       <set comment="band 11">
        <r>  0.0000  0.0025  0.0352  0.0247  0.0000  0.0000  0.0000  0.0000  0.0000 </r>
       </set>
       <set comment="band 12">
        <r>  0.0000  0.0126  0.0154  0.0338  0.0000  0.0000  0.0000  0.0000  0.0000 </r>
       </set>
       <set comment="band 13">
        <r>  0.0197  0.0000  0.0000  0.0000  0.0000  0.0000  0.0000  0.0000  0.0000 </r>
       </set>
       <set comment="band 14">
        <r>  0.0000  0.0000  0.0000  0.0000  0.0000  0.0000  0.0004  0.0000  0.0035 </r>
       </set>
       <set comment="band 15">
        <r>  0.0000  0.0000  0.0000  0.0000  0.0000  0.0000  0.0035  0.0000  0.0004 </r>
       </set>
       <set comment="band 16">
        <r>  0.0000  0.0078  0.0044  0.0085  0.0000  0.0000  0.0000  0.0000  0.0000 </r>
       </set>
       <set comment="band 17">
        <r>  0.0009  0.0086  0.0113  0.0003  0.0000  0.0000  0.0000  0.0000  0.0000 </r>
       </set>
       <set comment="band 18">
        <r>  0.0001  0.0037  0.0053  0.0122  0.0000  0.0000  0.0000  0.0000  0.0000 </r>
       </set>
       <set comment="band 19">
        <r>  0.0214  0.0006  0.0002  0.0000  0.0000  0.0000  0.0000  0.0000  0.0000 </r>
       </set>
       <set comment="band 20">
        <r>  0.0000  0.0000  0.0000  0.0000  0.0061  0.0030  0.0000  0.0006  0.0000 </r>
       </set>
       <set comment="band 21">
        <r>  0.0000  0.0000  0.0000  0.0000  0.0003  0.0003  0.0000  0.0091  0.0000 </r>
       </set>
       <set comment="band 22">
        <r>  0.0000  0.0000  0.0000  0.0000  0.0033  0.0064  0.0000  0.0000  0.0000 </r>
       </set>
       <set comment="band 23">
        <r>  0.0000  0.0000  0.0001  0.0000  0.0000  0.0000  0.0001  0.0000  0.0000 </r>
       </set>
       <set comment="band 24">
        <r>  0.0000  0.0000  0.0000  0.0001  0.0000  0.0000  0.0001  0.0000  0.0000 </r>
       </set>
       <set comment="band 25">
        <r>  0.0000  0.0000  0.0000  0.0000  0.0000  0.0000  0.0000  0.0000  0.0000 </r>
       </set>
       <set comment="band 26">
        <r>  0.0000  0.0000  0.0000  0.0000  0.0000  0.0000  0.0026  0.0000  0.0000 </r>
       </set>
       <set comment="band 27">
        <r>  0.0000  0.0000  0.0000  0.0000  0.0000  0.0000  0.0000  0.0000  0.0028 </r>
       </set>
       <set comment="band 28">
        <r>  0.0002  0.0007  0.0122  0.0168  0.0000  0.0000  0.0000  0.0000  0.0000 </r>
       </set>
       <set comment="band 29">
        <r>  0.0072  0.0017  0.0093  0.0102  0.0000  0.0000  0.0000  0.0000  0.0000 </r>
       </set>
       <set comment="band 30">
        <r>  0.0009  0.0230  0.0011  0.0000  0.0001  0.0007  0.0000  0.0001  0.0000 </r>
       </set>
       <set comment="band 31">
        <r>  0.0177  0.0000  0.0066  0.0031  0.0000  0.0000  0.0000  0.0000  0.0000 </r>
       </set>
       <set comment="band 32">
        <r>  0.0000  0.0000  0.0004  0.0000  0.0000  0.0000  0.0000  0.0001  0.0000 </r>
       </set>
       <set comment="band 33">
        <r>  0.0002  0.0045  0.0005  0.0000  0.0005  0.0027  0.0000  0.0009  0.0000 </r>
       </set>
       <set comment="band 34">
        <r>  0.0000  0.0002  0.0000  0.0000  0.0000  0.0012  0.0000  0.0037  0.0000 </r>
       </set>
       <set comment="band 35">
        <r>  0.0000  0.0000  0.0000  0.0000  0.0043  0.0004  0.0000  0.0002  0.0000 </r>
       </set>
       <set comment="band 36">
        <r>  0.0147  0.0001  0.0000  0.0001  0.0000  0.0000  0.0000  0.0000  0.0080 </r>
       </set>
      </set>
     </set>
     <set comment="spin2">
      <set comment="kpoint 1">
       <set comment="band 1">
        <r>  0.0000  0.4000  0.0494  0.5480  0.0000  0.0000  0.0000  0.0000  0.0000 </r>
       </set>
       <set comment="band 2">
        <r>  0.0000  0.1158  0.8815  0.0001  0.0000  0.0000  0.0000  0.0000  0.0000 </r>
       </set>
       <set comment="band 3">
        <r>  0.0000  0.4816  0.0664  0.4494  0.0000  0.0000  0.0000  0.0000  0.0000 </r>
       </set>
       <set comment="band 4">
        <r>  0.0000  0.0000  0.0000  0.0000  0.0000  0.0000  0.0205  0.0000  0.8991 </r>
       </set>
       <set comment="band 5">
        <r>  0.0000  0.0000  0.0000  0.0000  0.0000  0.0000  0.8991  0.0000  0.0205 </r>
       </set>
       <set comment="band 6">
        <r>  0.0000  0.0000  0.0000  0.0000  0.2414  0.0079  0.0000  0.6702  0.0000 </r>
       </set>
       <set comment="band 7">
        <r>  0.0000  0.0000  0.0000  0.0000  0.2086  0.6769  0.0000  0.0341  0.0000 </r>
       </set>
       <set comment="band 8">
        <r>  0.0000  0.0000  0.0000  0.0000  0.4695  0.2347  0.0000  0.2153  0.0000 </r>
       </set>
       <set comment="band 9">
        <r>  0.2456  0.0000  0.0000  0.0000  0.0000  0.0000  0.0000  0.0000  0.0000 </r>
       </set>
       <set comment="band 10">
        <r>  0.0000  0.0179  0.0036  0.0339  0.0000  0.0000  0.0000  0.0000  0.0000 </r>
       </set>
       <set comment="band 11">
        <r>  0.0001  0.0008  0.0463  0.0080  0.0000  0.0000  0.0000  0.0000  0.0000 </r>
       </set>
       <set comment="band 12">
        <r>  0.0000  0.0362  0.0054  0.0133  0.0000  0.0000  0.0000  0.0000  0.0000 </r>
       </set>
       <set comment="band 13">
        <r>  0.0164  0.0000  0.0004  0.0001  0.0000  0.0000  0.0000  0.0000  0.0000 </r>
       </set>
       <set comment="band 14">
        <r>  0.0000  0.0000  0.0000  0.0000  0.0000  0.0000  0.0010  0.0000  0.0014 </r>
       </set>
       <set comment="band 15">
        <r>  0.0000  0.0000  0.0000  0.0000  0.0000  0.0000  0.0014  0.0000  0.0009 </r>
       </set>
       <set comment="band 16">
        <r>  0.0000  0.0005  0.0167  0.0025  0.0000  0.0000  0.0000  0.0000  0.0000 </r>
       </set>
       <set comment="band 17">
        <r>  0.0001  0.0032  0.0029  0.0136  0.0000  0.0000  0.0000  0.0000  0.0000 </r>
       </set>
       <set comment="band 18">
        <r>  0.0231  0.0000  0.0000  0.0001  0.0000  0.0000  0.0000  0.0000  0.0000 </r>
       </set>
       <set comment="band 19">
        <r>  0.0000  0.0165  0.0000  0.0036  0.0000  0.0000  0.0000  0.0000  0.0000 </r>
       </set>
       <set comment="band 20">
        <r>  0.0000  0.0000  0.0000  0.0000  0.0016  0.0002  0.0000  0.0048  0.0000 </r>
       </set>
       <set comment="band 21">
        <r>  0.0000  0.0000  0.0000  0.0000  0.0000  0.0063  0.0000  0.0002  0.0000 </r>
       </set>
       <set comment="band 22">
        <r>  0.0000  0.0000  0.0000  0.0000  0.0050  0.0001  0.0000  0.0016  0.0000 </r>
       </set>
       <set comment="band 23">
        <r>  0.0000  0.0000  0.0000  0.0000  0.0000  0.0000  0.0023  0.0000  0.0000 </r>
       </set>
       <set comment="band 24">
        <r>  0.0000  0.0000  0.0000  0.0000  0.0000  0.0000  0.0000  0.0000  0.0023 </r>
       </set>
       <set comment="band 25">
        <r>  0.0000  0.0000  0.0000  0.0000  0.0000  0.0000  0.0000  0.0000  0.0000 </r>
       </set>
       <set comment="band 26">
        <r>  0.0000  0.0000  0.0000  0.0000  0.0000  0.0000  0.0000  0.0000  0.0000 </r>
       </set>
       <set comment="band 27">
        <r>  0.0000  0.0000  0.0000  0.0000  0.0000  0.0000  0.0000  0.0000  0.0000 </r>
       </set>
       <set comment="band 28">
        <r>  0.0000  0.0005  0.0014  0.0229  0.0000  0.0000  0.0000  0.0000  0.0000 </r>
       </set>
       <set comment="band 29">
        <r>  0.0016  0.0040  0.0151  0.0019  0.0003  0.0000  0.0000  0.0001  0.0000 </r>
       </set>
       <set comment="band 30">
        <r>  0.0002  0.0135  0.0058  0.0000  0.0003  0.0007  0.0000  0.0000  0.0000 </r>
       </set>
       <set comment="band 31">
        <r>  0.0236  0.0012  0.0006  0.0001  0.0000  0.0000  0.0000  0.0000  0.0000 </r>
       </set>
       <set comment="band 32">
        <r>  0.0003  0.0049  0.0002  0.0000  0.0025  0.0007  0.0000  0.0006  0.0000 </r>
       </set>
       <set comment="band 33">
        <r>  0.0000  0.0009  0.0016  0.0000  0.0002  0.0027  0.0000  0.0014  0.0000 </r>
       </set>
       <set comment="band 34">
        <r>  0.0000  0.0000  0.0000  0.0001  0.0014  0.0007  0.0000  0.0026  0.0000 </r>
       </set>
       <set comment="band 35">
        <r>  0.0000  0.0004  0.0005  0.0001  0.0000  0.0000  0.0000  0.0000  0.0000 </r>
       </set>
       <set comment="band 36">
        <r>  0.0045  0.0002  0.0000  0.0008  0.0000  0.0000  0.0001  0.0000  0.0129 </r>
       </set>
      </set>
     </set>
    </set>
   </array>
  </projected>
 </calculation>
 <structure name="finalpos" >
  <crystal>
   <varray name="basis" >
    <v>      10.00000000       0.00000000       0.00000000 </v>
    <v>       0.00000000      10.00000000       0.00000000 </v>
    <v>       0.00000000       0.00000000      10.00000000 </v>
   </varray>
   <i name="volume">   1000.00000000 </i>
   <varray name="rec_basis" >
    <v>       0.10000000       0.00000000       0.00000000 </v>
    <v>       0.00000000       0.10000000       0.00000000 </v>
    <v>       0.00000000       0.00000000       0.10000000 </v>
   </varray>
  </crystal>
  <varray name="positions" >
   <v>       0.50000000       0.50000000       0.50000000 </v>
  </varray>
 </structure>
</modeling>
