       N       E                     dE             d eps       ncg     rms          ort
DAV:   1     0.851546523389E+02    0.85155E+02   -0.34114E+03    36   0.237E+02
DAV:   2     0.222024714747E+02   -0.62952E+02   -0.62951E+02    36   0.241E+01
DAV:   3     0.298329580438E+01   -0.19219E+02   -0.19219E+02    36   0.319E+01
DAV:   4     0.529389862564E+00   -0.24539E+01   -0.24539E+01    36   0.126E+01
DAV:   5     0.726712609297E-01   -0.45672E+00   -0.45672E+00    36   0.556E+00
SDA:   6    -0.334231127022E-01   -0.10609E+00   -0.21422E+00    36   0.536E+00 0.000E+00
DMP:   7    -0.160976474664E+00   -0.12755E+00   -0.34135E-01    36   0.494E-01 0.941E-01
DMP:   8    -0.171445456911E+00   -0.10469E-01   -0.15345E-01    36   0.545E-01-0.421E-01
DMP:   9    -0.180853934087E+00   -0.94085E-02   -0.75055E-02    36   0.164E-01 0.630E-02
DMP:  10    -0.184211569260E+00   -0.33576E-02   -0.15950E-02    36   0.481E-02-0.214E-02
DMP:  11    -0.184941234684E+00   -0.72967E-03   -0.12269E-02    36   0.324E-02-0.448E-03
DMP:  12    -0.185761449134E+00   -0.82021E-03   -0.59734E-03    36   0.111E-02 0.100E-02
DMP:  13    -0.186104111550E+00   -0.34266E-03   -0.11998E-03    36   0.217E-03 0.217E-03
DMP:  14    -0.186155473567E+00   -0.51362E-04   -0.48787E-04    36   0.140E-03-0.475E-04
DMP:  15    -0.186188455001E+00   -0.32981E-04   -0.32928E-04    36   0.663E-04 0.421E-04
   1 F= -.18618846E+00 E0= -.18618846E+00  d E =-.186188E+00  mag=     1.0000
