<?xml version="1.0" encoding="ISO-8859-1"?>
<modeling>
 <generator>
  <i name="program" type="string">vasp </i>
  <i name="version" type="string">5.4.4.18Apr17-6-g9f103f2a35  </i>
  <i name="subversion" type="string">(build Nov 08 2019 15:19:53) gamma-only         parallel </i>
  <i name="platform" type="string">LinuxIFC </i>
  <i name="date" type="string">2020 11 30 </i>
  <i name="time" type="string">09:31:39 </i>
 </generator>
 <incar>
  <i type="string" name="PREC">accurate</i>
  <i type="string" name="ALGO"> D</i>
  <i type="int" name="ISPIN">     2</i>
  <i type="int" name="NELM">   300</i>
  <i type="int" name="IBRION">     2</i>
  <i name="EDIFF">      0.00005000</i>
  <i type="int" name="NSW">    99</i>
  <i type="int" name="ISIF">     2</i>
  <i name="ENCUT">    520.00000000</i>
  <v name="MAGMOM">      0.60000000</v>
  <i type="string" name="LREAL"> Auto</i>
  <i type="int" name="ISMEAR">     0</i>
  <i name="SIGMA">      0.05000000</i>
  <i type="logical" name="LWAVE"> F  </i>
  <i type="int" name="LORBIT">    11</i>
  <i type="logical" name="LASPH"> T  </i>
  <v type="int" name="KPOINT_BSE">    -1     0     0     0</v>
  <i type="int" name="NELM">   300</i>
  <i type="logical" name="LASPH"> T  </i>
 </incar>
 <structure name="primitive_cell" >
  <crystal>
   <varray name="basis" >
    <v>      10.00000000       0.00000000       0.00000000 </v>
    <v>       0.00000000      10.00000000       0.00000000 </v>
    <v>       0.00000000       0.00000000      10.00000000 </v>
   </varray>
   <i name="volume">   1000.00000000 </i>
   <varray name="rec_basis" >
    <v>       0.10000000       0.00000000       0.00000000 </v>
    <v>       0.00000000       0.10000000       0.00000000 </v>
    <v>       0.00000000       0.00000000       0.10000000 </v>
   </varray>
  </crystal>
  <varray name="positions" >
   <v>      -0.50000000      -0.50000000      -0.50000000 </v>
  </varray>
 </structure>
 <varray name="primitive_index" >
  <v type="int" >        1 </v>
 </varray>
 <kpoints>
  <generation param="Gamma">
   <v type="int" name="divisions">       1        1        1 </v>
   <v name="usershift">      0.00000000       0.00000000       0.00000000 </v>
   <v name="genvec1">      1.00000000       0.00000000       0.00000000 </v>
   <v name="genvec2">      0.00000000       1.00000000       0.00000000 </v>
   <v name="genvec3">      0.00000000       0.00000000       1.00000000 </v>
   <v name="shift">      0.00000000       0.00000000       0.00000000 </v>
  </generation>
  <varray name="kpointlist" >
   <v>       0.00000000       0.00000000       0.00000000 </v>
  </varray>
  <varray name="weights" >
   <v>       1.00000000 </v>
  </varray>
 </kpoints>
 <parameters>
  <separator name="general" >
   <i type="string" name="SYSTEM">unknown system</i>
   <i type="logical" name="LCOMPAT"> F  </i>
  </separator>
  <separator name="electronic" >
   <i type="string" name="PREC">accura</i>
   <i name="ENMAX">    520.00000000</i>
   <i name="ENAUG">    356.67000000</i>
   <i name="EDIFF">      0.00005000</i>
   <i type="int" name="IALGO">    53</i>
   <i type="int" name="IWAVPR">    11</i>
   <i type="int" name="NBANDS">    36</i>
   <i name="NELECT">     11.00000000</i>
   <i type="int" name="TURBO">     0</i>
   <i type="int" name="IRESTART">     0</i>
   <i type="int" name="NREBOOT">     0</i>
   <i type="int" name="NMIN">     0</i>
   <i name="EREF">      0.00000000</i>
   <separator name="electronic smearing" >
    <i type="int" name="ISMEAR">     0</i>
    <i name="SIGMA">      0.05000000</i>
    <i name="KSPACING">      0.50000000</i>
    <i type="logical" name="KGAMMA"> T  </i>
   </separator>
   <separator name="electronic projectors" >
    <i type="logical" name="LREAL"> T  </i>
    <v name="ROPT">     -0.00025000</v>
    <i type="int" name="LMAXPAW">  -100</i>
    <i type="int" name="LMAXMIX">     2</i>
    <i type="logical" name="NLSPLINE"> F  </i>
   </separator>
   <separator name="electronic startup" >
    <i type="int" name="ISTART">     0</i>
    <i type="int" name="ICHARG">     2</i>
    <i type="int" name="INIWAV">     1</i>
   </separator>
   <separator name="electronic spin" >
    <i type="int" name="ISPIN">     2</i>
    <i type="logical" name="LNONCOLLINEAR"> F  </i>
    <v name="MAGMOM">      0.60000000</v>
    <i name="NUPDOWN">     -1.00000000</i>
    <i type="logical" name="LSORBIT"> F  </i>
    <v name="SAXIS">      0.00000000      0.00000000      1.00000000</v>
    <i type="logical" name="LSPIRAL"> F  </i>
    <v name="QSPIRAL">      0.00000000      0.00000000      0.00000000</v>
    <i type="logical" name="LZEROZ"> F  </i>
   </separator>
   <separator name="electronic exchange-correlation" >
    <i type="logical" name="LASPH"> T  </i>
    <i type="logical" name="LMETAGGA"> F  </i>
   </separator>
   <separator name="electronic convergence" >
    <i type="int" name="NELM">   300</i>
    <i type="int" name="NELMDL">    -5</i>
    <i type="int" name="NELMIN">     2</i>
    <i name="ENINI">    520.00000000</i>
    <separator name="electronic convergence detail" >
     <i type="logical" name="LDIAG"> T  </i>
     <i type="logical" name="LSUBROT"> F  </i>
     <i name="WEIMIN">      0.00100000</i>
     <i name="EBREAK">      0.00000035</i>
     <i name="DEPER">      0.30000000</i>
     <i type="int" name="NRMM">     4</i>
     <i name="TIME">      0.40000000</i>
    </separator>
   </separator>
   <separator name="electronic mixer" >
    <i name="AMIX">      0.40000000</i>
    <i name="BMIX">      1.00000000</i>
    <i name="AMIN">      0.10000000</i>
    <i name="AMIX_MAG">      1.60000000</i>
    <i name="BMIX_MAG">      1.00000000</i>
    <separator name="electronic mixer details" >
     <i type="int" name="IMIX">     4</i>
     <i type="logical" name="MIXFIRST"> F  </i>
     <i type="int" name="MAXMIX">   -45</i>
     <i name="WC">    100.00000000</i>
     <i type="int" name="INIMIX">     1</i>
     <i type="int" name="MIXPRE">     1</i>
     <i type="int" name="MREMOVE">     5</i>
    </separator>
   </separator>
   <separator name="electronic dipolcorrection" >
    <i type="logical" name="LDIPOL"> F  </i>
    <i type="logical" name="LMONO"> F  </i>
    <i type="int" name="IDIPOL">     0</i>
    <i name="EPSILON">      1.00000000</i>
    <v name="DIPOL">   -100.00000000   -100.00000000   -100.00000000</v>
    <i name="EFIELD">      0.00000000</i>
   </separator>
  </separator>
  <separator name="grids" >
   <i type="int" name="NGX">    80</i>
   <i type="int" name="NGY">    80</i>
   <i type="int" name="NGZ">    80</i>
   <i type="int" name="NGXF">   160</i>
   <i type="int" name="NGYF">   160</i>
   <i type="int" name="NGZF">   160</i>
   <i type="logical" name="ADDGRID"> F  </i>
  </separator>
  <separator name="ionic" >
   <i type="int" name="NSW">    99</i>
   <i type="int" name="IBRION">     2</i>
   <i type="int" name="MDALGO">     0</i>
   <i type="int" name="ISIF">     2</i>
   <i name="PSTRESS">      0.00000000</i>
   <i name="EDIFFG">      0.00050000</i>
   <i type="int" name="NFREE">     1</i>
   <i name="POTIM">      0.50000000</i>
   <i name="SMASS">     -3.00000000</i>
   <i name="SCALEE">      1.00000000</i>
  </separator>
  <separator name="ionic md" >
   <i name="TEBEG">      0.00010000</i>
   <i name="TEEND">      0.00010000</i>
   <i type="int" name="NBLOCK">     1</i>
   <i type="int" name="KBLOCK">    99</i>
   <i type="int" name="NPACO">   256</i>
   <i name="APACO">     16.00000000</i>
  </separator>
  <separator name="symmetry" >
   <i type="int" name="ISYM">     2</i>
   <i name="SYMPREC">      0.00001000</i>
  </separator>
  <separator name="dos" >
   <i type="int" name="LORBIT">    11</i>
   <v name="RWIGS">     -1.00000000</v>
   <i type="int" name="NEDOS">   301</i>
   <i name="EMIN">     10.00000000</i>
   <i name="EMAX">    -10.00000000</i>
   <i name="EFERMI">      0.00000000</i>
  </separator>
  <separator name="writing" >
   <i type="int" name="NWRITE">     2</i>
   <i type="logical" name="LWAVE"> F  </i>
   <i type="logical" name="LDOWNSAMPLE"> F  </i>
   <i type="logical" name="LCHARG"> T  </i>
   <i type="logical" name="LPARD"> F  </i>
   <i type="logical" name="LVTOT"> F  </i>
   <i type="logical" name="LVHAR"> F  </i>
   <i type="logical" name="LELF"> F  </i>
   <i type="logical" name="LOPTICS"> F  </i>
   <v name="STM">      0.00000000      0.00000000      0.00000000      0.00000000      0.00000000      0.00000000      0.00000000</v>
  </separator>
  <separator name="performance" >
   <i type="int" name="NPAR">    36</i>
   <i type="int" name="NSIM">     4</i>
   <i type="int" name="NBLK">    -1</i>
   <i type="logical" name="LPLANE"> T  </i>
   <i type="logical" name="LSCALAPACK"> T  </i>
   <i type="logical" name="LSCAAWARE"> F  </i>
   <i type="logical" name="LSCALU"> F  </i>
   <i type="logical" name="LASYNC"> F  </i>
   <i type="logical" name="LORBITALREAL"> F  </i>
  </separator>
  <separator name="miscellaneous" >
   <i type="int" name="IDIOT">     3</i>
   <i type="int" name="ISPECIAL">     0</i>
   <i type="logical" name="LMUSIC"> F  </i>
   <v name="POMASS">    196.96600000</v>
   <v name="DARWINR">      0.00000000</v>
   <v name="DARWINV">      1.00000000</v>
   <i type="logical" name="LCORR"> T  </i>
  </separator>
  <i type="logical" name="GGA_COMPAT"> T  </i>
  <i type="logical" name="LBERRY"> F  </i>
  <i type="int" name="ICORELEVEL">     0</i>
  <i type="logical" name="LDAU"> F  </i>
  <i type="int" name="I_CONSTRAINED_M">     0</i>
  <separator name="electronic exchange-correlation" >
   <i type="string" name="GGA">--</i>
   <i type="int" name="VOSKOWN">     0</i>
   <i type="logical" name="LHFCALC"> F  </i>
   <i type="string" name="PRECFOCK"></i>
   <i type="logical" name="LSYMGRAD"> F  </i>
   <i type="logical" name="LHFONE"> F  </i>
   <i type="logical" name="LRHFCALC"> F  </i>
   <i type="logical" name="LTHOMAS"> F  </i>
   <i type="logical" name="LMODELHF"> F  </i>
   <i name="ENCUT4O">     -1.00000000</i>
   <i type="int" name="EXXOEP">     0</i>
   <i type="int" name="FOURORBIT">     0</i>
   <i name="AEXX">      0.00000000</i>
   <i name="HFALPHA">      0.00000000</i>
   <i name="MCALPHA">      0.00000000</i>
   <i name="ALDAX">      1.00000000</i>
   <i name="AGGAX">      1.00000000</i>
   <i name="ALDAC">      1.00000000</i>
   <i name="AGGAC">      1.00000000</i>
   <i type="int" name="NKREDX">     1</i>
   <i type="int" name="NKREDY">     1</i>
   <i type="int" name="NKREDZ">     1</i>
   <i type="logical" name="SHIFTRED"> F  </i>
   <i type="logical" name="ODDONLY"> F  </i>
   <i type="logical" name="EVENONLY"> F  </i>
   <i type="int" name="LMAXFOCK">     0</i>
   <i type="int" name="NMAXFOCKAE">     0</i>
   <i type="logical" name="LFOCKAEDFT"> F  </i>
   <i name="HFSCREEN">      0.00000000</i>
   <i name="HFSCREENC">      0.00000000</i>
   <i type="int" name="NBANDSGWLOW">     0</i>
  </separator>
  <separator name="vdW DFT" >
   <i type="logical" name="LUSE_VDW"> F  </i>
   <i name="Zab_VDW">     -0.84910000</i>
   <i name="PARAM1">      0.12340000</i>
   <i name="PARAM2">      1.00000000</i>
   <i name="PARAM3">      0.00000000</i>
  </separator>
  <separator name="model GW" >
   <i type="int" name="MODEL_GW">     0</i>
   <i name="MODEL_EPS0">    600.00000000</i>
   <i name="MODEL_ALPHA">      1.00000000</i>
  </separator>
  <separator name="linear response parameters" >
   <i type="logical" name="LEPSILON"> F  </i>
   <i type="logical" name="LRPA"> F  </i>
   <i type="logical" name="LNABLA"> F  </i>
   <i type="logical" name="LVEL"> F  </i>
   <i type="int" name="KINTER">     0</i>
   <i name="CSHIFT">      0.10000000</i>
   <i name="OMEGAMAX">     -1.00000000</i>
   <i name="DEG_THRESHOLD">      0.00200000</i>
   <i name="RTIME">     -0.10000000</i>
   <i name="WPLASMAI">      0.00000000</i>
   <v name="DFIELD">      0.00000000      0.00000000      0.00000000</v>
   <v name="WPLASMA">      0.00000000      0.00000000      0.00000000      0.00000000      0.00000000      0.00000000      0.00000000      0.00000000      0.00000000</v>
  </separator>
  <separator name="orbital magnetization" >
   <i type="logical" name="NUCIND"> F  </i>
   <v name="MAGPOS">      0.00000000      0.00000000      0.00000000</v>
   <i type="logical" name="LNICSALL"> T  </i>
   <i type="logical" name="ORBITALMAG"> F  </i>
   <i type="logical" name="LMAGBLOCH"> F  </i>
   <i type="logical" name="LCHIMAG"> F  </i>
   <i type="logical" name="LGAUGE"> T  </i>
   <i type="int" name="MAGATOM">     0</i>
   <v name="MAGDIPOL">      0.00000000      0.00000000      0.00000000</v>
   <v name="AVECCONST">      0.00000000      0.00000000      0.00000000</v>
  </separator>
  <separator name="response functions" >
   <i type="logical" name="LADDER"> F  </i>
   <i type="logical" name="LRPAFORCE"> F  </i>
   <i type="logical" name="LFXC"> F  </i>
   <i type="logical" name="LHARTREE"> T  </i>
   <i type="int" name="IBSE">     0</i>
   <v type="int" name="KPOINT">    -1     0     0     0</v>
   <i type="logical" name="LTCTE"> F  </i>
   <i type="logical" name="LTETE"> F  </i>
   <i type="logical" name="LTRIPLET"> F  </i>
   <i type="logical" name="LFXCEPS"> F  </i>
   <i type="logical" name="LFXHEG"> F  </i>
   <i type="int" name="NATURALO">     2</i>
   <i type="logical" name="L2ORDER"> F  </i>
   <i type="logical" name="LMP2LT"> F  </i>
   <i type="logical" name="LUSEW"> F  </i>
   <i name="ENCUTGW">     -2.00000000</i>
   <i name="ENCUTGWSOFT">     -2.00000000</i>
   <i name="ENCUTLF">     -1.00000000</i>
   <i type="int" name="LMAXMP2">    -1</i>
   <i name="SCISSOR">      0.00000000</i>
   <i type="int" name="NOMEGA">     0</i>
   <i type="int" name="NOMEGAR">     0</i>
   <i type="int" name="NBANDSGW">    -1</i>
   <i type="int" name="NBANDSO">    -1</i>
   <i type="int" name="NBANDSV">    -1</i>
   <i type="int" name="NELM">   300</i>
   <i type="int" name="NELMHF">     1</i>
   <i type="int" name="DIM">     3</i>
   <i type="int" name="ANTIRES">     0</i>
   <i name="OMEGAMAX">    -30.00000000</i>
   <i name="OMEGAMIN">    -30.00000000</i>
   <i name="OMEGATL">   -200.00000000</i>
   <i type="int" name="OMEGAGRID">   140</i>
   <i name="CSHIFT">     -0.10000000</i>
   <i type="logical" name="SELFENERGY"> F  </i>
   <i type="logical" name="LSPECTRAL"> F  </i>
   <i type="logical" name="LSPECTRALGW"> F  </i>
   <i type="logical" name="LSINGLES"> F  </i>
   <i type="logical" name="LFERMIGW"> F  </i>
   <i type="logical" name="ODDONLYGW"> F  </i>
   <i type="logical" name="EVENONLYGW"> F  </i>
   <i type="int" name="NKREDLFX">     1</i>
   <i type="int" name="NKREDLFY">     1</i>
   <i type="int" name="NKREDLFZ">     1</i>
   <i type="int" name="MAXMEM">  2800</i>
   <i type="int" name="TELESCOPE">     0</i>
   <i type="int" name="TAUPAR">     1</i>
   <i type="int" name="OMEGAPAR">    -1</i>
   <i name="LAMBDA">      1.00000000</i>
  </separator>
  <separator name="External order field" >
   <i name="OFIELD_KAPPA">      0.00000000</i>
   <v name="OFIELD_K">      0.00000000      0.00000000      0.00000000</v>
   <i name="OFIELD_Q6_NEAR">      0.00000000</i>
   <i name="OFIELD_Q6_FAR">      0.00000000</i>
   <i name="OFIELD_A">      0.00000000</i>
  </separator>
 </parameters>
 <atominfo>
  <atoms>       1 </atoms>
  <types>       1 </types>
  <array name="atoms" >
   <dimension dim="1">ion</dimension>
   <field type="string">element</field>
   <field type="int">atomtype</field>
   <set>
    <rc><c>Au</c><c>   1</c></rc>
   </set>
  </array>
  <array name="atomtypes" >
   <dimension dim="1">type</dimension>
   <field type="int">atomspertype</field>
   <field type="string">element</field>
   <field>mass</field>
   <field>valence</field>
   <field type="string">pseudopotential</field>
   <set>
    <rc><c>   1</c><c>Au</c><c>    196.96600000</c><c>     11.00000000</c><c>  PAW_PBE Au 04Oct2007                  </c></rc>
   </set>
  </array>
 </atominfo>
 <structure name="initialpos" >
  <crystal>
   <varray name="basis" >
    <v>      10.00000000       0.00000000       0.00000000 </v>
    <v>       0.00000000      10.00000000       0.00000000 </v>
    <v>       0.00000000       0.00000000      10.00000000 </v>
   </varray>
   <i name="volume">   1000.00000000 </i>
   <varray name="rec_basis" >
    <v>       0.10000000       0.00000000       0.00000000 </v>
    <v>       0.00000000       0.10000000       0.00000000 </v>
    <v>       0.00000000       0.00000000       0.10000000 </v>
   </varray>
  </crystal>
  <varray name="positions" >
   <v>       0.50000000       0.50000000       0.50000000 </v>
  </varray>
 </structure>
 <calculation>
  <scstep>
   <time name="total">    0.88    0.89</time>
   <energy>
    <i name="alphaZ">      1.16479605 </i>
    <i name="ewald">   -247.18170407 </i>
    <i name="hartreedc">   -644.88310324 </i>
    <i name="XCdc">     13.65696889 </i>
    <i name="pawpsdc">    874.07014897 </i>
    <i name="pawaedc">   -850.98395614 </i>
    <i name="eentropy">     -0.00130284 </i>
    <i name="bandstr">     13.22948233 </i>
    <i name="atom">    926.08332239 </i>
    <i name="e_fr_energy">     85.15465234 </i>
    <i name="e_wo_entrp">     85.15595518 </i>
    <i name="e_0_energy">     85.15530376 </i>
   </energy>
  </scstep>
  <scstep>
   <time name="total">    0.39    0.39</time>
   <energy>
    <i name="e_fr_energy">     22.20247147 </i>
    <i name="e_wo_entrp">     22.20247344 </i>
    <i name="e_0_energy">     22.20247246 </i>
   </energy>
  </scstep>
  <scstep>
   <time name="total">    0.39    0.39</time>
   <energy>
    <i name="e_fr_energy">      2.98329580 </i>
    <i name="e_wo_entrp">      2.98376190 </i>
    <i name="e_0_energy">      2.98352885 </i>
   </energy>
  </scstep>
  <scstep>
   <time name="total">    0.40    0.40</time>
   <energy>
    <i name="e_fr_energy">      0.52938986 </i>
    <i name="e_wo_entrp">      0.52984786 </i>
    <i name="e_0_energy">      0.52961886 </i>
   </energy>
  </scstep>
  <scstep>
   <time name="total">    0.61    0.62</time>
   <energy>
    <i name="e_fr_energy">      0.07267126 </i>
    <i name="e_wo_entrp">      0.07313919 </i>
    <i name="e_0_energy">      0.07290523 </i>
   </energy>
  </scstep>
  <scstep>
   <time name="total">    0.91    0.91</time>
   <energy>
    <i name="e_fr_energy">     -0.03342311 </i>
    <i name="e_wo_entrp">     -0.03340867 </i>
    <i name="e_0_energy">     -0.03341589 </i>
   </energy>
  </scstep>
  <scstep>
   <time name="total">    0.88    0.88</time>
   <energy>
    <i name="e_fr_energy">     -0.16097647 </i>
    <i name="e_wo_entrp">     -0.16097644 </i>
    <i name="e_0_energy">     -0.16097646 </i>
   </energy>
  </scstep>
  <scstep>
   <time name="total">    0.88    0.88</time>
   <energy>
    <i name="e_fr_energy">     -0.17144546 </i>
    <i name="e_wo_entrp">     -0.17144546 </i>
    <i name="e_0_energy">     -0.17144546 </i>
   </energy>
  </scstep>
  <scstep>
   <time name="total">    0.89    0.89</time>
   <energy>
    <i name="e_fr_energy">     -0.18085393 </i>
    <i name="e_wo_entrp">     -0.18085393 </i>
    <i name="e_0_energy">     -0.18085393 </i>
   </energy>
  </scstep>
  <scstep>
   <time name="total">    0.89    0.89</time>
   <energy>
    <i name="e_fr_energy">     -0.18421157 </i>
    <i name="e_wo_entrp">     -0.18421157 </i>
    <i name="e_0_energy">     -0.18421157 </i>
   </energy>
  </scstep>
  <scstep>
   <time name="total">    0.88    0.88</time>
   <energy>
    <i name="e_fr_energy">     -0.18494123 </i>
    <i name="e_wo_entrp">     -0.18494123 </i>
    <i name="e_0_energy">     -0.18494123 </i>
   </energy>
  </scstep>
  <scstep>
   <time name="total">    0.89    0.89</time>
   <energy>
    <i name="e_fr_energy">     -0.18576145 </i>
    <i name="e_wo_entrp">     -0.18576145 </i>
    <i name="e_0_energy">     -0.18576145 </i>
   </energy>
  </scstep>
  <scstep>
   <time name="total">    0.89    0.89</time>
   <energy>
    <i name="e_fr_energy">     -0.18610411 </i>
    <i name="e_wo_entrp">     -0.18610411 </i>
    <i name="e_0_energy">     -0.18610411 </i>
   </energy>
  </scstep>
  <scstep>
   <time name="total">    0.89    0.89</time>
   <energy>
    <i name="e_fr_energy">     -0.18615547 </i>
    <i name="e_wo_entrp">     -0.18615547 </i>
    <i name="e_0_energy">     -0.18615547 </i>
   </energy>
  </scstep>
  <scstep>
   <time name="total">    0.94    0.94</time>
   <energy>
    <i name="alphaZ">      1.16479605 </i>
    <i name="ewald">   -247.18170407 </i>
    <i name="hartreedc">   -645.17809150 </i>
    <i name="XCdc">     13.73912131 </i>
    <i name="pawpsdc">    879.94076234 </i>
    <i name="pawaedc">   -856.85861787 </i>
    <i name="eentropy">     -0.00000000 </i>
    <i name="bandstr">    -71.89577711 </i>
    <i name="atom">    926.08332239 </i>
    <i name="e_fr_energy">     -0.18618846 </i>
    <i name="e_wo_entrp">     -0.18618846 </i>
    <i name="e_0_energy">     -0.18618846 </i>
   </energy>
  </scstep>
  <structure>
   <crystal>
    <varray name="basis" >
     <v>      10.00000000       0.00000000       0.00000000 </v>
     <v>       0.00000000      10.00000000       0.00000000 </v>
     <v>       0.00000000       0.00000000      10.00000000 </v>
    </varray>
    <i name="volume">   1000.00000000 </i>
    <varray name="rec_basis" >
     <v>       0.10000000       0.00000000       0.00000000 </v>
     <v>       0.00000000       0.10000000       0.00000000 </v>
     <v>       0.00000000       0.00000000       0.10000000 </v>
    </varray>
   </crystal>
   <varray name="positions" >
    <v>       0.50000000       0.50000000       0.50000000 </v>
   </varray>
  </structure>
  <varray name="forces" >
   <v>       0.00000000       0.00000000       0.00000000 </v>
  </varray>
  <varray name="stress" >
   <v>      -0.00173685       0.00000000       0.00000000 </v>
   <v>      -0.00000000      -0.00173685       0.00000000 </v>
   <v>       0.00000000      -0.00000000      -0.00173685 </v>
  </varray>
  <energy>
   <i name="e_fr_energy">     -0.18618846 </i>
   <i name="e_wo_entrp">     -0.18618846 </i>
   <i name="e_0_energy">     -0.00000000 </i>
  </energy>
  <time name="totalsc">   18.28   18.42</time>
  <eigenvalues>
   <array>
    <dimension dim="1">band</dimension>
    <dimension dim="2">kpoint</dimension>
    <dimension dim="3">spin</dimension>
    <field>eigene</field>
    <field>occ</field>
    <set>
     <set comment="spin 1">
      <set comment="kpoint 1">
       <r>   -6.7490    1.0000 </r>
       <r>   -6.7490    1.0000 </r>
       <r>   -6.7489    1.0000 </r>
       <r>   -6.7489    1.0000 </r>
       <r>   -6.7489    1.0000 </r>
       <r>   -5.8416    1.0000 </r>
       <r>   -0.6891    0.0000 </r>
       <r>   -0.6843    0.0000 </r>
       <r>   -0.6684    0.0000 </r>
       <r>   -0.1427    0.0000 </r>
       <r>    1.0658    0.0000 </r>
       <r>    1.0661    0.0000 </r>
       <r>    1.7515    0.0000 </r>
       <r>    1.7922    0.0000 </r>
       <r>    1.8711    0.0000 </r>
       <r>    1.9653    0.0000 </r>
       <r>    2.0806    0.0000 </r>
       <r>    2.1478    0.0000 </r>
       <r>    2.2210    0.0000 </r>
       <r>    2.6204    0.0000 </r>
       <r>    2.6719    0.0000 </r>
       <r>    2.6779    0.0000 </r>
       <r>    2.6793    0.0000 </r>
       <r>    2.7281    0.0000 </r>
       <r>    3.7178    0.0000 </r>
       <r>    3.7258    0.0000 </r>
       <r>    3.7634    0.0000 </r>
       <r>    3.9615    0.0000 </r>
       <r>    3.9627    0.0000 </r>
       <r>    3.9783    0.0000 </r>
       <r>    4.4040    0.0000 </r>
       <r>    4.4977    0.0000 </r>
       <r>    4.8452    0.0000 </r>
       <r>    5.0237    0.0000 </r>
       <r>    5.7996    0.0000 </r>
       <r>    6.2036    0.0000 </r>
      </set>
     </set>
     <set comment="spin 2">
      <set comment="kpoint 1">
       <r>   -6.4619    1.0000 </r>
       <r>   -6.4619    1.0000 </r>
       <r>   -6.4619    1.0000 </r>
       <r>   -6.4619    1.0000 </r>
       <r>   -6.4619    1.0000 </r>
       <r>   -5.1319    0.0000 </r>
       <r>   -0.0979    0.0000 </r>
       <r>   -0.0935    0.0000 </r>
       <r>   -0.0877    0.0000 </r>
       <r>    0.1562    0.0000 </r>
       <r>    1.3968    0.0000 </r>
       <r>    1.3979    0.0000 </r>
       <r>    1.9887    0.0000 </r>
       <r>    2.0378    0.0000 </r>
       <r>    2.0394    0.0000 </r>
       <r>    2.0718    0.0000 </r>
       <r>    2.6250    0.0000 </r>
       <r>    2.6331    0.0000 </r>
       <r>    2.6426    0.0000 </r>
       <r>    2.9211    0.0000 </r>
       <r>    2.9237    0.0000 </r>
       <r>    2.9493    0.0000 </r>
       <r>    2.9583    0.0000 </r>
       <r>    3.0335    0.0000 </r>
       <r>    3.9651    0.0000 </r>
       <r>    4.2238    0.0000 </r>
       <r>    4.2315    0.0000 </r>
       <r>    4.2382    0.0000 </r>
       <r>    4.2483    0.0000 </r>
       <r>    4.2879    0.0000 </r>
       <r>    4.6216    0.0000 </r>
       <r>    4.7268    0.0000 </r>
       <r>    4.9977    0.0000 </r>
       <r>    5.0933    0.0000 </r>
       <r>    5.2548    0.0000 </r>
       <r>    6.2664    0.0000 </r>
      </set>
     </set>
    </set>
   </array>
  </eigenvalues>
  <separator name="orbital magnetization" >
   <v name="MAGDIPOLOUT">      0.00000000      0.00000000      0.00000000</v>
  </separator>
  <dos>
   <i name="efermi">     -5.58479712 </i>
   <total>
    <array>
     <dimension dim="1">gridpoints</dimension>
     <dimension dim="2">spin</dimension>
     <field>energy</field>
     <field>total</field>
     <field>integrated</field>
     <set>
      <set comment="spin 1">
       <r>    -7.3998     0.0000     0.0000 </r>
       <r>    -7.3520     0.0000     0.0000 </r>
       <r>    -7.3043     0.0000     0.0000 </r>
       <r>    -7.2566     0.0000     0.0000 </r>
       <r>    -7.2089     0.0000     0.0000 </r>
       <r>    -7.1612     0.0000     0.0000 </r>
       <r>    -7.1134     0.0000     0.0000 </r>
       <r>    -7.0657     0.0000     0.0000 </r>
       <r>    -7.0180     0.0000     0.0000 </r>
       <r>    -6.9703     0.0000     0.0000 </r>
       <r>    -6.9225     0.0000     0.0000 </r>
       <r>    -6.8748     0.0194     0.0009 </r>
       <r>    -6.8271     1.3995     0.0677 </r>
       <r>    -6.7794    18.9870     0.9738 </r>
       <r>    -6.7316    51.6454     3.4385 </r>
       <r>    -6.6839    29.2680     4.8353 </r>
       <r>    -6.6362     3.3770     4.9964 </r>
       <r>    -6.5885     0.0745     5.0000 </r>
       <r>    -6.5408     0.0003     5.0000 </r>
       <r>    -6.4930     0.0000     5.0000 </r>
       <r>    -6.4453     0.0000     5.0000 </r>
       <r>    -6.3976     0.0000     5.0000 </r>
       <r>    -6.3499     0.0000     5.0000 </r>
       <r>    -6.3021     0.0000     5.0000 </r>
       <r>    -6.2544     0.0000     5.0000 </r>
       <r>    -6.2067     0.0000     5.0000 </r>
       <r>    -6.1590     0.0000     5.0000 </r>
       <r>    -6.1112     0.0000     5.0000 </r>
       <r>    -6.0635     0.0000     5.0000 </r>
       <r>    -6.0158     0.0000     5.0000 </r>
       <r>    -5.9681     0.0036     5.0002 </r>
       <r>    -5.9204     0.2686     5.0130 </r>
       <r>    -5.8726     3.7162     5.1903 </r>
       <r>    -5.8249    10.3014     5.6820 </r>
       <r>    -5.7772     5.9487     5.9658 </r>
       <r>    -5.7295     0.6998     5.9992 </r>
       <r>    -5.6817     0.0158     6.0000 </r>
       <r>    -5.6340     0.0001     6.0000 </r>
       <r>    -5.5863     0.0000     6.0000 </r>
       <r>    -5.5386     0.0000     6.0000 </r>
       <r>    -5.4908     0.0000     6.0000 </r>
       <r>    -5.4431     0.0000     6.0000 </r>
       <r>    -5.3954     0.0000     6.0000 </r>
       <r>    -5.3477     0.0000     6.0000 </r>
       <r>    -5.2999     0.0000     6.0000 </r>
       <r>    -5.2522     0.0000     6.0000 </r>
       <r>    -5.2045     0.0000     6.0000 </r>
       <r>    -5.1568     0.0000     6.0000 </r>
       <r>    -5.1091     0.0000     6.0000 </r>
       <r>    -5.0613     0.0000     6.0000 </r>
       <r>    -5.0136     0.0000     6.0000 </r>
       <r>    -4.9659     0.0000     6.0000 </r>
       <r>    -4.9182     0.0000     6.0000 </r>
       <r>    -4.8704     0.0000     6.0000 </r>
       <r>    -4.8227     0.0000     6.0000 </r>
       <r>    -4.7750     0.0000     6.0000 </r>
       <r>    -4.7273     0.0000     6.0000 </r>
       <r>    -4.6795     0.0000     6.0000 </r>
       <r>    -4.6318     0.0000     6.0000 </r>
       <r>    -4.5841     0.0000     6.0000 </r>
       <r>    -4.5364     0.0000     6.0000 </r>
       <r>    -4.4887     0.0000     6.0000 </r>
       <r>    -4.4409     0.0000     6.0000 </r>
       <r>    -4.3932     0.0000     6.0000 </r>
       <r>    -4.3455     0.0000     6.0000 </r>
       <r>    -4.2978     0.0000     6.0000 </r>
       <r>    -4.2500     0.0000     6.0000 </r>
       <r>    -4.2023     0.0000     6.0000 </r>
       <r>    -4.1546     0.0000     6.0000 </r>
       <r>    -4.1069     0.0000     6.0000 </r>
       <r>    -4.0591     0.0000     6.0000 </r>
       <r>    -4.0114     0.0000     6.0000 </r>
       <r>    -3.9637     0.0000     6.0000 </r>
       <r>    -3.9160     0.0000     6.0000 </r>
       <r>    -3.8683     0.0000     6.0000 </r>
       <r>    -3.8205     0.0000     6.0000 </r>
       <r>    -3.7728     0.0000     6.0000 </r>
       <r>    -3.7251     0.0000     6.0000 </r>
       <r>    -3.6774     0.0000     6.0000 </r>
       <r>    -3.6296     0.0000     6.0000 </r>
       <r>    -3.5819     0.0000     6.0000 </r>
       <r>    -3.5342     0.0000     6.0000 </r>
       <r>    -3.4865     0.0000     6.0000 </r>
       <r>    -3.4387     0.0000     6.0000 </r>
       <r>    -3.3910     0.0000     6.0000 </r>
       <r>    -3.3433     0.0000     6.0000 </r>
       <r>    -3.2956     0.0000     6.0000 </r>
       <r>    -3.2479     0.0000     6.0000 </r>
       <r>    -3.2001     0.0000     6.0000 </r>
       <r>    -3.1524     0.0000     6.0000 </r>
       <r>    -3.1047     0.0000     6.0000 </r>
       <r>    -3.0570     0.0000     6.0000 </r>
       <r>    -3.0092     0.0000     6.0000 </r>
       <r>    -2.9615     0.0000     6.0000 </r>
       <r>    -2.9138     0.0000     6.0000 </r>
       <r>    -2.8661     0.0000     6.0000 </r>
       <r>    -2.8183     0.0000     6.0000 </r>
       <r>    -2.7706     0.0000     6.0000 </r>
       <r>    -2.7229     0.0000     6.0000 </r>
       <r>    -2.6752     0.0000     6.0000 </r>
       <r>    -2.6275     0.0000     6.0000 </r>
       <r>    -2.5797     0.0000     6.0000 </r>
       <r>    -2.5320     0.0000     6.0000 </r>
       <r>    -2.4843     0.0000     6.0000 </r>
       <r>    -2.4366     0.0000     6.0000 </r>
       <r>    -2.3888     0.0000     6.0000 </r>
       <r>    -2.3411     0.0000     6.0000 </r>
       <r>    -2.2934     0.0000     6.0000 </r>
       <r>    -2.2457     0.0000     6.0000 </r>
       <r>    -2.1979     0.0000     6.0000 </r>
       <r>    -2.1502     0.0000     6.0000 </r>
       <r>    -2.1025     0.0000     6.0000 </r>
       <r>    -2.0548     0.0000     6.0000 </r>
       <r>    -2.0071     0.0000     6.0000 </r>
       <r>    -1.9593     0.0000     6.0000 </r>
       <r>    -1.9116     0.0000     6.0000 </r>
       <r>    -1.8639     0.0000     6.0000 </r>
       <r>    -1.8162     0.0000     6.0000 </r>
       <r>    -1.7684     0.0000     6.0000 </r>
       <r>    -1.7207     0.0000     6.0000 </r>
       <r>    -1.6730     0.0000     6.0000 </r>
       <r>    -1.6253     0.0000     6.0000 </r>
       <r>    -1.5775     0.0000     6.0000 </r>
       <r>    -1.5298     0.0000     6.0000 </r>
       <r>    -1.4821     0.0000     6.0000 </r>
       <r>    -1.4344     0.0000     6.0000 </r>
       <r>    -1.3867     0.0000     6.0000 </r>
       <r>    -1.3389     0.0000     6.0000 </r>
       <r>    -1.2912     0.0000     6.0000 </r>
       <r>    -1.2435     0.0000     6.0000 </r>
       <r>    -1.1958     0.0000     6.0000 </r>
       <r>    -1.1480     0.0000     6.0000 </r>
       <r>    -1.1003     0.0000     6.0000 </r>
       <r>    -1.0526     0.0000     6.0000 </r>
       <r>    -1.0049     0.0000     6.0000 </r>
       <r>    -0.9571     0.0000     6.0000 </r>
       <r>    -0.9094     0.0000     6.0000 </r>
       <r>    -0.8617     0.0000     6.0000 </r>
       <r>    -0.8140     0.0072     6.0003 </r>
       <r>    -0.7663     0.5697     6.0275 </r>
       <r>    -0.7185     8.7819     6.4466 </r>
       <r>    -0.6708    28.7390     7.8182 </r>
       <r>    -0.6231    21.1424     8.8271 </r>
       <r>    -0.5754     3.4978     8.9941 </r>
       <r>    -0.5276     0.1237     9.0000 </r>
       <r>    -0.4799     0.0009     9.0000 </r>
       <r>    -0.4322     0.0000     9.0000 </r>
       <r>    -0.3845     0.0000     9.0000 </r>
       <r>    -0.3367     0.0000     9.0000 </r>
       <r>    -0.2890     0.0004     9.0000 </r>
       <r>    -0.2413     0.0551     9.0026 </r>
       <r>    -0.1936     1.5176     9.0751 </r>
       <r>    -0.1458     8.1591     9.4644 </r>
       <r>    -0.0981     9.0485     9.8963 </r>
       <r>    -0.0504     2.0788     9.9955 </r>
       <r>    -0.0027     0.0940    10.0000 </r>
       <r>     0.0450     0.0008    10.0000 </r>
       <r>     0.0928     0.0000    10.0000 </r>
       <r>     0.1405     0.0000    10.0000 </r>
       <r>     0.1882     0.0000    10.0000 </r>
       <r>     0.2359     0.0000    10.0000 </r>
       <r>     0.2837     0.0000    10.0000 </r>
       <r>     0.3314     0.0000    10.0000 </r>
       <r>     0.3791     0.0000    10.0000 </r>
       <r>     0.4268     0.0000    10.0000 </r>
       <r>     0.4746     0.0000    10.0000 </r>
       <r>     0.5223     0.0000    10.0000 </r>
       <r>     0.5700     0.0000    10.0000 </r>
       <r>     0.6177     0.0000    10.0000 </r>
       <r>     0.6654     0.0000    10.0000 </r>
       <r>     0.7132     0.0000    10.0000 </r>
       <r>     0.7609     0.0000    10.0000 </r>
       <r>     0.8086     0.0000    10.0000 </r>
       <r>     0.8563     0.0000    10.0000 </r>
       <r>     0.9041     0.0001    10.0000 </r>
       <r>     0.9518     0.0259    10.0012 </r>
       <r>     0.9995     1.2350    10.0602 </r>
       <r>     1.0472    11.2346    10.5963 </r>
       <r>     1.0950    20.7766    11.5879 </r>
       <r>     1.1427     8.0074    11.9700 </r>
       <r>     1.1904     0.6198    11.9996 </r>
       <r>     1.2381     0.0090    12.0000 </r>
       <r>     1.2858     0.0000    12.0000 </r>
       <r>     1.3336     0.0000    12.0000 </r>
       <r>     1.3813     0.0000    12.0000 </r>
       <r>     1.4290     0.0000    12.0000 </r>
       <r>     1.4767     0.0000    12.0000 </r>
       <r>     1.5245     0.0000    12.0000 </r>
       <r>     1.5722     0.0000    12.0000 </r>
       <r>     1.6199     0.0021    12.0001 </r>
       <r>     1.6676     0.1883    12.0091 </r>
       <r>     1.7154     3.3405    12.1685 </r>
       <r>     1.7631    13.9723    12.8353 </r>
       <r>     1.8108    18.0852    13.6984 </r>
       <r>     1.8585    13.2474    14.3306 </r>
       <r>     1.9062    11.6512    14.8866 </r>
       <r>     1.9540    10.0268    15.3651 </r>
       <r>     2.0017    10.3950    15.8612 </r>
       <r>     2.0494     6.7448    16.1831 </r>
       <r>     2.0971    12.0106    16.7563 </r>
       <r>     2.1449    14.4895    17.4478 </r>
       <r>     2.1926    13.8141    18.1070 </r>
       <r>     2.2403    12.4826    18.7027 </r>
       <r>     2.2880     5.6196    18.9709 </r>
       <r>     2.3358     0.5971    18.9994 </r>
       <r>     2.3835     0.0123    19.0000 </r>
       <r>     2.4312     0.0000    19.0000 </r>
       <r>     2.4789     0.0007    19.0000 </r>
       <r>     2.5266     0.0839    19.0040 </r>
       <r>     2.5744     2.0632    19.1025 </r>
       <r>     2.6221    12.7289    19.7100 </r>
       <r>     2.6698    32.2618    21.2496 </r>
       <r>     2.7175    36.9079    23.0110 </r>
       <r>     2.7653    17.2692    23.8351 </r>
       <r>     2.8130     3.2804    23.9917 </r>
       <r>     2.8607     0.1730    23.9999 </r>
       <r>     2.9084     0.0018    24.0000 </r>
       <r>     2.9562     0.0000    24.0000 </r>
       <r>     3.0039     0.0000    24.0000 </r>
       <r>     3.0516     0.0000    24.0000 </r>
       <r>     3.0993     0.0000    24.0000 </r>
       <r>     3.1470     0.0000    24.0000 </r>
       <r>     3.1948     0.0000    24.0000 </r>
       <r>     3.2425     0.0000    24.0000 </r>
       <r>     3.2902     0.0000    24.0000 </r>
       <r>     3.3379     0.0000    24.0000 </r>
       <r>     3.3857     0.0000    24.0000 </r>
       <r>     3.4334     0.0000    24.0000 </r>
       <r>     3.4811     0.0000    24.0000 </r>
       <r>     3.5288     0.0000    24.0000 </r>
       <r>     3.5766     0.0009    24.0000 </r>
       <r>     3.6243     0.1281    24.0062 </r>
       <r>     3.6720     3.3585    24.1664 </r>
       <r>     3.7197    18.7606    25.0618 </r>
       <r>     3.7674    26.9101    26.3460 </r>
       <r>     3.8152    12.0230    26.9198 </r>
       <r>     3.8629     1.7450    27.0030 </r>
       <r>     3.9106     3.5637    27.1731 </r>
       <r>     3.9583    21.5467    28.2014 </r>
       <r>     4.0061    28.6797    29.5701 </r>
       <r>     4.0538     8.4662    29.9741 </r>
       <r>     4.1015     0.5356    29.9997 </r>
       <r>     4.1492     0.0068    30.0000 </r>
       <r>     4.1970     0.0000    30.0000 </r>
       <r>     4.2447     0.0001    30.0000 </r>
       <r>     4.2924     0.0167    30.0008 </r>
       <r>     4.3401     0.7273    30.0355 </r>
       <r>     4.3879     6.0721    30.3253 </r>
       <r>     4.4356    11.0778    30.8540 </r>
       <r>     4.4833     9.9741    31.3299 </r>
       <r>     4.5310    10.4195    31.8272 </r>
       <r>     4.5787     3.3924    31.9891 </r>
       <r>     4.6265     0.2257    31.9999 </r>
       <r>     4.6742     0.0028    32.0000 </r>
       <r>     4.7219     0.0051    32.0002 </r>
       <r>     4.7696     0.3353    32.0162 </r>
       <r>     4.8174     4.1689    32.2152 </r>
       <r>     4.8651    10.4249    32.7127 </r>
       <r>     4.9128     5.4513    32.9729 </r>
       <r>     4.9605     1.3326    33.0365 </r>
       <r>     5.0083     6.1756    33.3312 </r>
       <r>     5.0560    10.2307    33.8194 </r>
       <r>     5.1037     3.5363    33.9882 </r>
       <r>     5.1514     0.2445    33.9998 </r>
       <r>     5.1991     0.0032    34.0000 </r>
       <r>     5.2469     0.0000    34.0000 </r>
       <r>     5.2946     0.0000    34.0000 </r>
       <r>     5.3423     0.0000    34.0000 </r>
       <r>     5.3900     0.0000    34.0000 </r>
       <r>     5.4378     0.0000    34.0000 </r>
       <r>     5.4855     0.0000    34.0000 </r>
       <r>     5.5332     0.0000    34.0000 </r>
       <r>     5.5809     0.0000    34.0000 </r>
       <r>     5.6287     0.0000    34.0000 </r>
       <r>     5.6764     0.0051    34.0002 </r>
       <r>     5.7241     0.3368    34.0163 </r>
       <r>     5.7718     4.1783    34.2157 </r>
       <r>     5.8195    10.4266    34.7133 </r>
       <r>     5.8673     5.4231    34.9721 </r>
       <r>     5.9150     0.5727    34.9994 </r>
       <r>     5.9627     0.0115    35.0000 </r>
       <r>     6.0104     0.0000    35.0000 </r>
       <r>     6.0582     0.0004    35.0000 </r>
       <r>     6.1059     0.0593    35.0029 </r>
       <r>     6.1536     1.5871    35.0786 </r>
       <r>     6.2013     8.2890    35.4742 </r>
       <r>     6.2491     8.9357    35.9006 </r>
       <r>     6.2968     1.9945    35.9958 </r>
       <r>     6.3445     0.0875    36.0000 </r>
       <r>     6.3922     0.0007    36.0000 </r>
       <r>     6.4399     0.0000    36.0000 </r>
       <r>     6.4877     0.0000    36.0000 </r>
       <r>     6.5354     0.0000    36.0000 </r>
       <r>     6.5831     0.0000    36.0000 </r>
       <r>     6.6308     0.0000    36.0000 </r>
       <r>     6.6786     0.0000    36.0000 </r>
       <r>     6.7263     0.0000    36.0000 </r>
       <r>     6.7740     0.0000    36.0000 </r>
       <r>     6.8217     0.0000    36.0000 </r>
       <r>     6.8695     0.0000    36.0000 </r>
       <r>     6.9172     0.0000    36.0000 </r>
      </set>
      <set comment="spin 2">
       <r>    -7.3998     0.0000     0.0000 </r>
       <r>    -7.3520     0.0000     0.0000 </r>
       <r>    -7.3043     0.0000     0.0000 </r>
       <r>    -7.2566     0.0000     0.0000 </r>
       <r>    -7.2089     0.0000     0.0000 </r>
       <r>    -7.1612     0.0000     0.0000 </r>
       <r>    -7.1134     0.0000     0.0000 </r>
       <r>    -7.0657     0.0000     0.0000 </r>
       <r>    -7.0180     0.0000     0.0000 </r>
       <r>    -6.9703     0.0000     0.0000 </r>
       <r>    -6.9225     0.0000     0.0000 </r>
       <r>    -6.8748     0.0000     0.0000 </r>
       <r>    -6.8271     0.0000     0.0000 </r>
       <r>    -6.7794     0.0000     0.0000 </r>
       <r>    -6.7316     0.0000     0.0000 </r>
       <r>    -6.6839     0.0000     0.0000 </r>
       <r>    -6.6362     0.0000     0.0000 </r>
       <r>    -6.5885     0.0179     0.0009 </r>
       <r>    -6.5408     1.3287     0.0643 </r>
       <r>    -6.4930    18.4776     0.9461 </r>
       <r>    -6.4453    51.4696     3.4024 </r>
       <r>    -6.3976    29.8658     4.8277 </r>
       <r>    -6.3499     3.5310     4.9962 </r>
       <r>    -6.3021     0.0799     5.0000 </r>
       <r>    -6.2544     0.0003     5.0000 </r>
       <r>    -6.2067     0.0000     5.0000 </r>
       <r>    -6.1590     0.0000     5.0000 </r>
       <r>    -6.1112     0.0000     5.0000 </r>
       <r>    -6.0635     0.0000     5.0000 </r>
       <r>    -6.0158     0.0000     5.0000 </r>
       <r>    -5.9681     0.0000     5.0000 </r>
       <r>    -5.9204     0.0000     5.0000 </r>
       <r>    -5.8726     0.0000     5.0000 </r>
       <r>    -5.8249     0.0000     5.0000 </r>
       <r>    -5.7772     0.0000     5.0000 </r>
       <r>    -5.7295     0.0000     5.0000 </r>
       <r>    -5.6817     0.0000     5.0000 </r>
       <r>    -5.6340     0.0000     5.0000 </r>
       <r>    -5.5863     0.0000     5.0000 </r>
       <r>    -5.5386     0.0000     5.0000 </r>
       <r>    -5.4908     0.0000     5.0000 </r>
       <r>    -5.4431     0.0000     5.0000 </r>
       <r>    -5.3954     0.0000     5.0000 </r>
       <r>    -5.3477     0.0000     5.0000 </r>
       <r>    -5.2999     0.0000     5.0000 </r>
       <r>    -5.2522     0.0069     5.0003 </r>
       <r>    -5.2045     0.4110     5.0199 </r>
       <r>    -5.1568     4.6194     5.2404 </r>
       <r>    -5.1091    10.4786     5.7405 </r>
       <r>    -5.0613     4.9554     5.9770 </r>
       <r>    -5.0136     0.4742     5.9996 </r>
       <r>    -4.9659     0.0086     6.0000 </r>
       <r>    -4.9182     0.0000     6.0000 </r>
       <r>    -4.8704     0.0000     6.0000 </r>
       <r>    -4.8227     0.0000     6.0000 </r>
       <r>    -4.7750     0.0000     6.0000 </r>
       <r>    -4.7273     0.0000     6.0000 </r>
       <r>    -4.6795     0.0000     6.0000 </r>
       <r>    -4.6318     0.0000     6.0000 </r>
       <r>    -4.5841     0.0000     6.0000 </r>
       <r>    -4.5364     0.0000     6.0000 </r>
       <r>    -4.4887     0.0000     6.0000 </r>
       <r>    -4.4409     0.0000     6.0000 </r>
       <r>    -4.3932     0.0000     6.0000 </r>
       <r>    -4.3455     0.0000     6.0000 </r>
       <r>    -4.2978     0.0000     6.0000 </r>
       <r>    -4.2500     0.0000     6.0000 </r>
       <r>    -4.2023     0.0000     6.0000 </r>
       <r>    -4.1546     0.0000     6.0000 </r>
       <r>    -4.1069     0.0000     6.0000 </r>
       <r>    -4.0591     0.0000     6.0000 </r>
       <r>    -4.0114     0.0000     6.0000 </r>
       <r>    -3.9637     0.0000     6.0000 </r>
       <r>    -3.9160     0.0000     6.0000 </r>
       <r>    -3.8683     0.0000     6.0000 </r>
       <r>    -3.8205     0.0000     6.0000 </r>
       <r>    -3.7728     0.0000     6.0000 </r>
       <r>    -3.7251     0.0000     6.0000 </r>
       <r>    -3.6774     0.0000     6.0000 </r>
       <r>    -3.6296     0.0000     6.0000 </r>
       <r>    -3.5819     0.0000     6.0000 </r>
       <r>    -3.5342     0.0000     6.0000 </r>
       <r>    -3.4865     0.0000     6.0000 </r>
       <r>    -3.4387     0.0000     6.0000 </r>
       <r>    -3.3910     0.0000     6.0000 </r>
       <r>    -3.3433     0.0000     6.0000 </r>
       <r>    -3.2956     0.0000     6.0000 </r>
       <r>    -3.2479     0.0000     6.0000 </r>
       <r>    -3.2001     0.0000     6.0000 </r>
       <r>    -3.1524     0.0000     6.0000 </r>
       <r>    -3.1047     0.0000     6.0000 </r>
       <r>    -3.0570     0.0000     6.0000 </r>
       <r>    -3.0092     0.0000     6.0000 </r>
       <r>    -2.9615     0.0000     6.0000 </r>
       <r>    -2.9138     0.0000     6.0000 </r>
       <r>    -2.8661     0.0000     6.0000 </r>
       <r>    -2.8183     0.0000     6.0000 </r>
       <r>    -2.7706     0.0000     6.0000 </r>
       <r>    -2.7229     0.0000     6.0000 </r>
       <r>    -2.6752     0.0000     6.0000 </r>
       <r>    -2.6275     0.0000     6.0000 </r>
       <r>    -2.5797     0.0000     6.0000 </r>
       <r>    -2.5320     0.0000     6.0000 </r>
       <r>    -2.4843     0.0000     6.0000 </r>
       <r>    -2.4366     0.0000     6.0000 </r>
       <r>    -2.3888     0.0000     6.0000 </r>
       <r>    -2.3411     0.0000     6.0000 </r>
       <r>    -2.2934     0.0000     6.0000 </r>
       <r>    -2.2457     0.0000     6.0000 </r>
       <r>    -2.1979     0.0000     6.0000 </r>
       <r>    -2.1502     0.0000     6.0000 </r>
       <r>    -2.1025     0.0000     6.0000 </r>
       <r>    -2.0548     0.0000     6.0000 </r>
       <r>    -2.0071     0.0000     6.0000 </r>
       <r>    -1.9593     0.0000     6.0000 </r>
       <r>    -1.9116     0.0000     6.0000 </r>
       <r>    -1.8639     0.0000     6.0000 </r>
       <r>    -1.8162     0.0000     6.0000 </r>
       <r>    -1.7684     0.0000     6.0000 </r>
       <r>    -1.7207     0.0000     6.0000 </r>
       <r>    -1.6730     0.0000     6.0000 </r>
       <r>    -1.6253     0.0000     6.0000 </r>
       <r>    -1.5775     0.0000     6.0000 </r>
       <r>    -1.5298     0.0000     6.0000 </r>
       <r>    -1.4821     0.0000     6.0000 </r>
       <r>    -1.4344     0.0000     6.0000 </r>
       <r>    -1.3867     0.0000     6.0000 </r>
       <r>    -1.3389     0.0000     6.0000 </r>
       <r>    -1.2912     0.0000     6.0000 </r>
       <r>    -1.2435     0.0000     6.0000 </r>
       <r>    -1.1958     0.0000     6.0000 </r>
       <r>    -1.1480     0.0000     6.0000 </r>
       <r>    -1.1003     0.0000     6.0000 </r>
       <r>    -1.0526     0.0000     6.0000 </r>
       <r>    -1.0049     0.0000     6.0000 </r>
       <r>    -0.9571     0.0000     6.0000 </r>
       <r>    -0.9094     0.0000     6.0000 </r>
       <r>    -0.8617     0.0000     6.0000 </r>
       <r>    -0.8140     0.0000     6.0000 </r>
       <r>    -0.7663     0.0000     6.0000 </r>
       <r>    -0.7185     0.0000     6.0000 </r>
       <r>    -0.6708     0.0000     6.0000 </r>
       <r>    -0.6231     0.0000     6.0000 </r>
       <r>    -0.5754     0.0000     6.0000 </r>
       <r>    -0.5276     0.0000     6.0000 </r>
       <r>    -0.4799     0.0000     6.0000 </r>
       <r>    -0.4322     0.0000     6.0000 </r>
       <r>    -0.3845     0.0000     6.0000 </r>
       <r>    -0.3367     0.0000     6.0000 </r>
       <r>    -0.2890     0.0000     6.0000 </r>
       <r>    -0.2413     0.0010     6.0000 </r>
       <r>    -0.1936     0.1478     6.0071 </r>
       <r>    -0.1458     4.1856     6.2069 </r>
       <r>    -0.0981    23.5216     7.3294 </r>
       <r>    -0.0504    27.7410     8.6533 </r>
       <r>    -0.0027     6.9151     8.9833 </r>
       <r>     0.0450     0.3646     9.0007 </r>
       <r>     0.0928     0.7464     9.0363 </r>
       <r>     0.1405     6.1112     9.3279 </r>
       <r>     0.1882    10.2491     9.8171 </r>
       <r>     0.2359     3.5800     9.9879 </r>
       <r>     0.2837     0.2502     9.9998 </r>
       <r>     0.3314     0.0033    10.0000 </r>
       <r>     0.3791     0.0000    10.0000 </r>
       <r>     0.4268     0.0000    10.0000 </r>
       <r>     0.4746     0.0000    10.0000 </r>
       <r>     0.5223     0.0000    10.0000 </r>
       <r>     0.5700     0.0000    10.0000 </r>
       <r>     0.6177     0.0000    10.0000 </r>
       <r>     0.6654     0.0000    10.0000 </r>
       <r>     0.7132     0.0000    10.0000 </r>
       <r>     0.7609     0.0000    10.0000 </r>
       <r>     0.8086     0.0000    10.0000 </r>
       <r>     0.8563     0.0000    10.0000 </r>
       <r>     0.9041     0.0000    10.0000 </r>
       <r>     0.9518     0.0000    10.0000 </r>
       <r>     0.9995     0.0000    10.0000 </r>
       <r>     1.0472     0.0000    10.0000 </r>
       <r>     1.0950     0.0000    10.0000 </r>
       <r>     1.1427     0.0000    10.0000 </r>
       <r>     1.1904     0.0000    10.0000 </r>
       <r>     1.2381     0.0001    10.0000 </r>
       <r>     1.2858     0.0336    10.0016 </r>
       <r>     1.3336     1.4577    10.0712 </r>
       <r>     1.3813    12.1143    10.6493 </r>
       <r>     1.4290    20.5321    11.6292 </r>
       <r>     1.4767     7.2509    11.9752 </r>
       <r>     1.5245     0.5128    11.9997 </r>
       <r>     1.5722     0.0068    12.0000 </r>
       <r>     1.6199     0.0000    12.0000 </r>
       <r>     1.6676     0.0000    12.0000 </r>
       <r>     1.7154     0.0000    12.0000 </r>
       <r>     1.7631     0.0000    12.0000 </r>
       <r>     1.8108     0.0000    12.0000 </r>
       <r>     1.8585     0.0024    12.0001 </r>
       <r>     1.9062     0.2084    12.0101 </r>
       <r>     1.9540     3.5693    12.1804 </r>
       <r>     2.0017    16.4195    12.9640 </r>
       <r>     2.0494    31.3543    14.4603 </r>
       <r>     2.0971    25.2237    15.6641 </r>
       <r>     2.1449     6.5765    15.9779 </r>
       <r>     2.1926     0.4556    15.9997 </r>
       <r>     2.2403     0.0069    16.0000 </r>
       <r>     2.2880     0.0000    16.0000 </r>
       <r>     2.3358     0.0000    16.0000 </r>
       <r>     2.3835     0.0000    16.0000 </r>
       <r>     2.4312     0.0000    16.0000 </r>
       <r>     2.4789     0.0006    16.0000 </r>
       <r>     2.5266     0.0943    16.0045 </r>
       <r>     2.5744     3.0752    16.1513 </r>
       <r>     2.6221    20.4293    17.1262 </r>
       <r>     2.6698    29.3623    18.5275 </r>
       <r>     2.7175     9.2746    18.9701 </r>
       <r>     2.7653     0.6183    18.9996 </r>
       <r>     2.8130     0.0512    19.0021 </r>
       <r>     2.8607     1.8482    19.0903 </r>
       <r>     2.9084    16.8967    19.8966 </r>
       <r>     2.9562    38.3687    21.7277 </r>
       <r>     3.0039    27.0853    23.0203 </r>
       <r>     3.0516    14.0266    23.6897 </r>
       <r>     3.0993     5.8465    23.9687 </r>
       <r>     3.1470     0.6420    23.9993 </r>
       <r>     3.1948     0.0137    24.0000 </r>
       <r>     3.2425     0.0001    24.0000 </r>
       <r>     3.2902     0.0000    24.0000 </r>
       <r>     3.3379     0.0000    24.0000 </r>
       <r>     3.3857     0.0000    24.0000 </r>
       <r>     3.4334     0.0000    24.0000 </r>
       <r>     3.4811     0.0000    24.0000 </r>
       <r>     3.5288     0.0000    24.0000 </r>
       <r>     3.5766     0.0000    24.0000 </r>
       <r>     3.6243     0.0000    24.0000 </r>
       <r>     3.6720     0.0000    24.0000 </r>
       <r>     3.7197     0.0000    24.0000 </r>
       <r>     3.7674     0.0000    24.0000 </r>
       <r>     3.8152     0.0002    24.0000 </r>
       <r>     3.8629     0.0400    24.0019 </r>
       <r>     3.9106     1.2508    24.0616 </r>
       <r>     3.9583     7.5944    24.4240 </r>
       <r>     4.0061     9.4834    24.8766 </r>
       <r>     4.0538     2.4582    24.9939 </r>
       <r>     4.1015     0.1357    25.0004 </r>
       <r>     4.1492     0.7466    25.0360 </r>
       <r>     4.1970    11.5791    25.5886 </r>
       <r>     4.2447    40.2888    27.5113 </r>
       <r>     4.2924    37.7634    29.3135 </r>
       <r>     4.3401    12.7503    29.9220 </r>
       <r>     4.3879     1.5840    29.9976 </r>
       <r>     4.4356     0.0501    30.0000 </r>
       <r>     4.4833     0.0013    30.0000 </r>
       <r>     4.5310     0.1080    30.0052 </r>
       <r>     4.5787     2.2519    30.1127 </r>
       <r>     4.6265     9.3077    30.5569 </r>
       <r>     4.6742     9.2810    30.9998 </r>
       <r>     4.7219     9.2761    31.4425 </r>
       <r>     4.7696     9.3151    31.8870 </r>
       <r>     4.8174     2.2581    31.9948 </r>
       <r>     4.8651     0.1103    32.0000 </r>
       <r>     4.9128     0.1705    32.0082 </r>
       <r>     4.9605     2.9027    32.1467 </r>
       <r>     5.0083    10.0331    32.6255 </r>
       <r>     5.0560     9.8575    33.0959 </r>
       <r>     5.1037    10.8625    33.6143 </r>
       <r>     5.1514     7.0677    33.9516 </r>
       <r>     5.1991     2.1946    34.0564 </r>
       <r>     5.2469     7.4372    34.4113 </r>
       <r>     5.2946     9.6084    34.8698 </r>
       <r>     5.3423     2.5881    34.9933 </r>
       <r>     5.3900     0.1381    34.9999 </r>
       <r>     5.4378     0.0014    35.0000 </r>
       <r>     5.4855     0.0000    35.0000 </r>
       <r>     5.5332     0.0000    35.0000 </r>
       <r>     5.5809     0.0000    35.0000 </r>
       <r>     5.6287     0.0000    35.0000 </r>
       <r>     5.6764     0.0000    35.0000 </r>
       <r>     5.7241     0.0000    35.0000 </r>
       <r>     5.7718     0.0000    35.0000 </r>
       <r>     5.8195     0.0000    35.0000 </r>
       <r>     5.8673     0.0000    35.0000 </r>
       <r>     5.9150     0.0000    35.0000 </r>
       <r>     5.9627     0.0000    35.0000 </r>
       <r>     6.0104     0.0000    35.0000 </r>
       <r>     6.0582     0.0000    35.0000 </r>
       <r>     6.1059     0.0001    35.0000 </r>
       <r>     6.1536     0.0148    35.0007 </r>
       <r>     6.2013     0.6732    35.0328 </r>
       <r>     6.2491     5.8448    35.3118 </r>
       <r>     6.2968    10.3315    35.8048 </r>
       <r>     6.3445     3.8049    35.9864 </r>
       <r>     6.3922     0.2810    35.9998 </r>
       <r>     6.4399     0.0039    36.0000 </r>
       <r>     6.4877     0.0000    36.0000 </r>
       <r>     6.5354     0.0000    36.0000 </r>
       <r>     6.5831     0.0000    36.0000 </r>
       <r>     6.6308     0.0000    36.0000 </r>
       <r>     6.6786     0.0000    36.0000 </r>
       <r>     6.7263     0.0000    36.0000 </r>
       <r>     6.7740     0.0000    36.0000 </r>
       <r>     6.8217     0.0000    36.0000 </r>
       <r>     6.8695     0.0000    36.0000 </r>
       <r>     6.9172     0.0000    36.0000 </r>
      </set>
     </set>
    </array>
   </total>
   <partial>
    <array>
     <dimension dim="1">gridpoints</dimension>
     <dimension dim="2">spin</dimension>
     <dimension dim="3">ion</dimension>
     <field>energy</field>
     <field>    s</field>
     <field>   py</field>
     <field>   pz</field>
     <field>   px</field>
     <field>  dxy</field>
     <field>  dyz</field>
     <field>  dz2</field>
     <field>  dxz</field>
     <field>x2-y2</field>
     <set>
      <set comment="ion 1">
       <set comment="spin 1">
        <r>    -7.3998     0.0000     0.0000     0.0000     0.0000     0.0000     0.0000     0.0000     0.0000     0.0000 </r>
        <r>    -7.3520     0.0000     0.0000     0.0000     0.0000     0.0000     0.0000     0.0000     0.0000     0.0000 </r>
        <r>    -7.3043     0.0000     0.0000     0.0000     0.0000     0.0000     0.0000     0.0000     0.0000     0.0000 </r>
        <r>    -7.2566     0.0000     0.0000     0.0000     0.0000     0.0000     0.0000     0.0000     0.0000     0.0000 </r>
        <r>    -7.2089     0.0000     0.0000     0.0000     0.0000     0.0000     0.0000     0.0000     0.0000     0.0000 </r>
        <r>    -7.1612     0.0000     0.0000     0.0000     0.0000     0.0000     0.0000     0.0000     0.0000     0.0000 </r>
        <r>    -7.1134     0.0000     0.0000     0.0000     0.0000     0.0000     0.0000     0.0000     0.0000     0.0000 </r>
        <r>    -7.0657     0.0000     0.0000     0.0000     0.0000     0.0000     0.0000     0.0000     0.0000     0.0000 </r>
        <r>    -7.0180     0.0000     0.0000     0.0000     0.0000     0.0000     0.0000     0.0000     0.0000     0.0000 </r>
        <r>    -6.9703     0.0000     0.0000     0.0000     0.0000     0.0000     0.0000     0.0000     0.0000     0.0000 </r>
        <r>    -6.9225     0.0000     0.0000     0.0000     0.0000     0.0000     0.0000     0.0000     0.0000     0.0000 </r>
        <r>    -6.8748     0.0000     0.0000     0.0000     0.0000     0.0035     0.0035     0.0035     0.0035     0.0035 </r>
        <r>    -6.8271     0.0000     0.0000     0.0000     0.0000     0.2515     0.2515     0.2531     0.2515     0.2531 </r>
        <r>    -6.7794     0.0000     0.0000     0.0000     0.0000     3.4167     3.4167     3.4278     3.4168     3.4279 </r>
        <r>    -6.7316     0.0000     0.0000     0.0000     0.0000     9.3044     9.3046     9.3077     9.3045     9.3078 </r>
        <r>    -6.6839     0.0000     0.0000     0.0000     0.0000     5.2790     5.2791     5.2656     5.2790     5.2657 </r>
        <r>    -6.6362     0.0000     0.0000     0.0000     0.0000     0.6098     0.6098     0.6065     0.6098     0.6065 </r>
        <r>    -6.5885     0.0000     0.0000     0.0000     0.0000     0.0135     0.0135     0.0134     0.0135     0.0134 </r>
        <r>    -6.5408     0.0000     0.0000     0.0000     0.0000     0.0001     0.0001     0.0001     0.0001     0.0001 </r>
        <r>    -6.4930     0.0000     0.0000     0.0000     0.0000     0.0000     0.0000     0.0000     0.0000     0.0000 </r>
        <r>    -6.4453     0.0000     0.0000     0.0000     0.0000     0.0000     0.0000     0.0000     0.0000     0.0000 </r>
        <r>    -6.3976     0.0000     0.0000     0.0000     0.0000     0.0000     0.0000     0.0000     0.0000     0.0000 </r>
        <r>    -6.3499     0.0000     0.0000     0.0000     0.0000     0.0000     0.0000     0.0000     0.0000     0.0000 </r>
        <r>    -6.3021     0.0000     0.0000     0.0000     0.0000     0.0000     0.0000     0.0000     0.0000     0.0000 </r>
        <r>    -6.2544     0.0000     0.0000     0.0000     0.0000     0.0000     0.0000     0.0000     0.0000     0.0000 </r>
        <r>    -6.2067     0.0000     0.0000     0.0000     0.0000     0.0000     0.0000     0.0000     0.0000     0.0000 </r>
        <r>    -6.1590     0.0000     0.0000     0.0000     0.0000     0.0000     0.0000     0.0000     0.0000     0.0000 </r>
        <r>    -6.1112     0.0000     0.0000     0.0000     0.0000     0.0000     0.0000     0.0000     0.0000     0.0000 </r>
        <r>    -6.0635     0.0000     0.0000     0.0000     0.0000     0.0000     0.0000     0.0000     0.0000     0.0000 </r>
        <r>    -6.0158     0.0000     0.0000     0.0000     0.0000     0.0000     0.0000     0.0000     0.0000     0.0000 </r>
        <r>    -5.9681     0.0017     0.0000     0.0000     0.0000     0.0000     0.0000     0.0000     0.0000     0.0000 </r>
        <r>    -5.9204     0.1250     0.0000     0.0000     0.0000     0.0000     0.0000     0.0000     0.0000     0.0000 </r>
        <r>    -5.8726     1.7295     0.0000     0.0000     0.0000     0.0000     0.0000     0.0000     0.0000     0.0000 </r>
        <r>    -5.8249     4.7943     0.0000     0.0000     0.0000     0.0000     0.0000     0.0000     0.0000     0.0000 </r>
        <r>    -5.7772     2.7686     0.0000     0.0000     0.0000     0.0000     0.0000     0.0000     0.0000     0.0000 </r>
        <r>    -5.7295     0.3257     0.0000     0.0000     0.0000     0.0000     0.0000     0.0000     0.0000     0.0000 </r>
        <r>    -5.6817     0.0073     0.0000     0.0000     0.0000     0.0000     0.0000     0.0000     0.0000     0.0000 </r>
        <r>    -5.6340     0.0000     0.0000     0.0000     0.0000     0.0000     0.0000     0.0000     0.0000     0.0000 </r>
        <r>    -5.5863     0.0000     0.0000     0.0000     0.0000     0.0000     0.0000     0.0000     0.0000     0.0000 </r>
        <r>    -5.5386     0.0000     0.0000     0.0000     0.0000     0.0000     0.0000     0.0000     0.0000     0.0000 </r>
        <r>    -5.4908     0.0000     0.0000     0.0000     0.0000     0.0000     0.0000     0.0000     0.0000     0.0000 </r>
        <r>    -5.4431     0.0000     0.0000     0.0000     0.0000     0.0000     0.0000     0.0000     0.0000     0.0000 </r>
        <r>    -5.3954     0.0000     0.0000     0.0000     0.0000     0.0000     0.0000     0.0000     0.0000     0.0000 </r>
        <r>    -5.3477     0.0000     0.0000     0.0000     0.0000     0.0000     0.0000     0.0000     0.0000     0.0000 </r>
        <r>    -5.2999     0.0000     0.0000     0.0000     0.0000     0.0000     0.0000     0.0000     0.0000     0.0000 </r>
        <r>    -5.2522     0.0000     0.0000     0.0000     0.0000     0.0000     0.0000     0.0000     0.0000     0.0000 </r>
        <r>    -5.2045     0.0000     0.0000     0.0000     0.0000     0.0000     0.0000     0.0000     0.0000     0.0000 </r>
        <r>    -5.1568     0.0000     0.0000     0.0000     0.0000     0.0000     0.0000     0.0000     0.0000     0.0000 </r>
        <r>    -5.1091     0.0000     0.0000     0.0000     0.0000     0.0000     0.0000     0.0000     0.0000     0.0000 </r>
        <r>    -5.0613     0.0000     0.0000     0.0000     0.0000     0.0000     0.0000     0.0000     0.0000     0.0000 </r>
        <r>    -5.0136     0.0000     0.0000     0.0000     0.0000     0.0000     0.0000     0.0000     0.0000     0.0000 </r>
        <r>    -4.9659     0.0000     0.0000     0.0000     0.0000     0.0000     0.0000     0.0000     0.0000     0.0000 </r>
        <r>    -4.9182     0.0000     0.0000     0.0000     0.0000     0.0000     0.0000     0.0000     0.0000     0.0000 </r>
        <r>    -4.8704     0.0000     0.0000     0.0000     0.0000     0.0000     0.0000     0.0000     0.0000     0.0000 </r>
        <r>    -4.8227     0.0000     0.0000     0.0000     0.0000     0.0000     0.0000     0.0000     0.0000     0.0000 </r>
        <r>    -4.7750     0.0000     0.0000     0.0000     0.0000     0.0000     0.0000     0.0000     0.0000     0.0000 </r>
        <r>    -4.7273     0.0000     0.0000     0.0000     0.0000     0.0000     0.0000     0.0000     0.0000     0.0000 </r>
        <r>    -4.6795     0.0000     0.0000     0.0000     0.0000     0.0000     0.0000     0.0000     0.0000     0.0000 </r>
        <r>    -4.6318     0.0000     0.0000     0.0000     0.0000     0.0000     0.0000     0.0000     0.0000     0.0000 </r>
        <r>    -4.5841     0.0000     0.0000     0.0000     0.0000     0.0000     0.0000     0.0000     0.0000     0.0000 </r>
        <r>    -4.5364     0.0000     0.0000     0.0000     0.0000     0.0000     0.0000     0.0000     0.0000     0.0000 </r>
        <r>    -4.4887     0.0000     0.0000     0.0000     0.0000     0.0000     0.0000     0.0000     0.0000     0.0000 </r>
        <r>    -4.4409     0.0000     0.0000     0.0000     0.0000     0.0000     0.0000     0.0000     0.0000     0.0000 </r>
        <r>    -4.3932     0.0000     0.0000     0.0000     0.0000     0.0000     0.0000     0.0000     0.0000     0.0000 </r>
        <r>    -4.3455     0.0000     0.0000     0.0000     0.0000     0.0000     0.0000     0.0000     0.0000     0.0000 </r>
        <r>    -4.2978     0.0000     0.0000     0.0000     0.0000     0.0000     0.0000     0.0000     0.0000     0.0000 </r>
        <r>    -4.2500     0.0000     0.0000     0.0000     0.0000     0.0000     0.0000     0.0000     0.0000     0.0000 </r>
        <r>    -4.2023     0.0000     0.0000     0.0000     0.0000     0.0000     0.0000     0.0000     0.0000     0.0000 </r>
        <r>    -4.1546     0.0000     0.0000     0.0000     0.0000     0.0000     0.0000     0.0000     0.0000     0.0000 </r>
        <r>    -4.1069     0.0000     0.0000     0.0000     0.0000     0.0000     0.0000     0.0000     0.0000     0.0000 </r>
        <r>    -4.0591     0.0000     0.0000     0.0000     0.0000     0.0000     0.0000     0.0000     0.0000     0.0000 </r>
        <r>    -4.0114     0.0000     0.0000     0.0000     0.0000     0.0000     0.0000     0.0000     0.0000     0.0000 </r>
        <r>    -3.9637     0.0000     0.0000     0.0000     0.0000     0.0000     0.0000     0.0000     0.0000     0.0000 </r>
        <r>    -3.9160     0.0000     0.0000     0.0000     0.0000     0.0000     0.0000     0.0000     0.0000     0.0000 </r>
        <r>    -3.8683     0.0000     0.0000     0.0000     0.0000     0.0000     0.0000     0.0000     0.0000     0.0000 </r>
        <r>    -3.8205     0.0000     0.0000     0.0000     0.0000     0.0000     0.0000     0.0000     0.0000     0.0000 </r>
        <r>    -3.7728     0.0000     0.0000     0.0000     0.0000     0.0000     0.0000     0.0000     0.0000     0.0000 </r>
        <r>    -3.7251     0.0000     0.0000     0.0000     0.0000     0.0000     0.0000     0.0000     0.0000     0.0000 </r>
        <r>    -3.6774     0.0000     0.0000     0.0000     0.0000     0.0000     0.0000     0.0000     0.0000     0.0000 </r>
        <r>    -3.6296     0.0000     0.0000     0.0000     0.0000     0.0000     0.0000     0.0000     0.0000     0.0000 </r>
        <r>    -3.5819     0.0000     0.0000     0.0000     0.0000     0.0000     0.0000     0.0000     0.0000     0.0000 </r>
        <r>    -3.5342     0.0000     0.0000     0.0000     0.0000     0.0000     0.0000     0.0000     0.0000     0.0000 </r>
        <r>    -3.4865     0.0000     0.0000     0.0000     0.0000     0.0000     0.0000     0.0000     0.0000     0.0000 </r>
        <r>    -3.4387     0.0000     0.0000     0.0000     0.0000     0.0000     0.0000     0.0000     0.0000     0.0000 </r>
        <r>    -3.3910     0.0000     0.0000     0.0000     0.0000     0.0000     0.0000     0.0000     0.0000     0.0000 </r>
        <r>    -3.3433     0.0000     0.0000     0.0000     0.0000     0.0000     0.0000     0.0000     0.0000     0.0000 </r>
        <r>    -3.2956     0.0000     0.0000     0.0000     0.0000     0.0000     0.0000     0.0000     0.0000     0.0000 </r>
        <r>    -3.2479     0.0000     0.0000     0.0000     0.0000     0.0000     0.0000     0.0000     0.0000     0.0000 </r>
        <r>    -3.2001     0.0000     0.0000     0.0000     0.0000     0.0000     0.0000     0.0000     0.0000     0.0000 </r>
        <r>    -3.1524     0.0000     0.0000     0.0000     0.0000     0.0000     0.0000     0.0000     0.0000     0.0000 </r>
        <r>    -3.1047     0.0000     0.0000     0.0000     0.0000     0.0000     0.0000     0.0000     0.0000     0.0000 </r>
        <r>    -3.0570     0.0000     0.0000     0.0000     0.0000     0.0000     0.0000     0.0000     0.0000     0.0000 </r>
        <r>    -3.0092     0.0000     0.0000     0.0000     0.0000     0.0000     0.0000     0.0000     0.0000     0.0000 </r>
        <r>    -2.9615     0.0000     0.0000     0.0000     0.0000     0.0000     0.0000     0.0000     0.0000     0.0000 </r>
        <r>    -2.9138     0.0000     0.0000     0.0000     0.0000     0.0000     0.0000     0.0000     0.0000     0.0000 </r>
        <r>    -2.8661     0.0000     0.0000     0.0000     0.0000     0.0000     0.0000     0.0000     0.0000     0.0000 </r>
        <r>    -2.8183     0.0000     0.0000     0.0000     0.0000     0.0000     0.0000     0.0000     0.0000     0.0000 </r>
        <r>    -2.7706     0.0000     0.0000     0.0000     0.0000     0.0000     0.0000     0.0000     0.0000     0.0000 </r>
        <r>    -2.7229     0.0000     0.0000     0.0000     0.0000     0.0000     0.0000     0.0000     0.0000     0.0000 </r>
        <r>    -2.6752     0.0000     0.0000     0.0000     0.0000     0.0000     0.0000     0.0000     0.0000     0.0000 </r>
        <r>    -2.6275     0.0000     0.0000     0.0000     0.0000     0.0000     0.0000     0.0000     0.0000     0.0000 </r>
        <r>    -2.5797     0.0000     0.0000     0.0000     0.0000     0.0000     0.0000     0.0000     0.0000     0.0000 </r>
        <r>    -2.5320     0.0000     0.0000     0.0000     0.0000     0.0000     0.0000     0.0000     0.0000     0.0000 </r>
        <r>    -2.4843     0.0000     0.0000     0.0000     0.0000     0.0000     0.0000     0.0000     0.0000     0.0000 </r>
        <r>    -2.4366     0.0000     0.0000     0.0000     0.0000     0.0000     0.0000     0.0000     0.0000     0.0000 </r>
        <r>    -2.3888     0.0000     0.0000     0.0000     0.0000     0.0000     0.0000     0.0000     0.0000     0.0000 </r>
        <r>    -2.3411     0.0000     0.0000     0.0000     0.0000     0.0000     0.0000     0.0000     0.0000     0.0000 </r>
        <r>    -2.2934     0.0000     0.0000     0.0000     0.0000     0.0000     0.0000     0.0000     0.0000     0.0000 </r>
        <r>    -2.2457     0.0000     0.0000     0.0000     0.0000     0.0000     0.0000     0.0000     0.0000     0.0000 </r>
        <r>    -2.1979     0.0000     0.0000     0.0000     0.0000     0.0000     0.0000     0.0000     0.0000     0.0000 </r>
        <r>    -2.1502     0.0000     0.0000     0.0000     0.0000     0.0000     0.0000     0.0000     0.0000     0.0000 </r>
        <r>    -2.1025     0.0000     0.0000     0.0000     0.0000     0.0000     0.0000     0.0000     0.0000     0.0000 </r>
        <r>    -2.0548     0.0000     0.0000     0.0000     0.0000     0.0000     0.0000     0.0000     0.0000     0.0000 </r>
        <r>    -2.0071     0.0000     0.0000     0.0000     0.0000     0.0000     0.0000     0.0000     0.0000     0.0000 </r>
        <r>    -1.9593     0.0000     0.0000     0.0000     0.0000     0.0000     0.0000     0.0000     0.0000     0.0000 </r>
        <r>    -1.9116     0.0000     0.0000     0.0000     0.0000     0.0000     0.0000     0.0000     0.0000     0.0000 </r>
        <r>    -1.8639     0.0000     0.0000     0.0000     0.0000     0.0000     0.0000     0.0000     0.0000     0.0000 </r>
        <r>    -1.8162     0.0000     0.0000     0.0000     0.0000     0.0000     0.0000     0.0000     0.0000     0.0000 </r>
        <r>    -1.7684     0.0000     0.0000     0.0000     0.0000     0.0000     0.0000     0.0000     0.0000     0.0000 </r>
        <r>    -1.7207     0.0000     0.0000     0.0000     0.0000     0.0000     0.0000     0.0000     0.0000     0.0000 </r>
        <r>    -1.6730     0.0000     0.0000     0.0000     0.0000     0.0000     0.0000     0.0000     0.0000     0.0000 </r>
        <r>    -1.6253     0.0000     0.0000     0.0000     0.0000     0.0000     0.0000     0.0000     0.0000     0.0000 </r>
        <r>    -1.5775     0.0000     0.0000     0.0000     0.0000     0.0000     0.0000     0.0000     0.0000     0.0000 </r>
        <r>    -1.5298     0.0000     0.0000     0.0000     0.0000     0.0000     0.0000     0.0000     0.0000     0.0000 </r>
        <r>    -1.4821     0.0000     0.0000     0.0000     0.0000     0.0000     0.0000     0.0000     0.0000     0.0000 </r>
        <r>    -1.4344     0.0000     0.0000     0.0000     0.0000     0.0000     0.0000     0.0000     0.0000     0.0000 </r>
        <r>    -1.3867     0.0000     0.0000     0.0000     0.0000     0.0000     0.0000     0.0000     0.0000     0.0000 </r>
        <r>    -1.3389     0.0000     0.0000     0.0000     0.0000     0.0000     0.0000     0.0000     0.0000     0.0000 </r>
        <r>    -1.2912     0.0000     0.0000     0.0000     0.0000     0.0000     0.0000     0.0000     0.0000     0.0000 </r>
        <r>    -1.2435     0.0000     0.0000     0.0000     0.0000     0.0000     0.0000     0.0000     0.0000     0.0000 </r>
        <r>    -1.1958     0.0000     0.0000     0.0000     0.0000     0.0000     0.0000     0.0000     0.0000     0.0000 </r>
        <r>    -1.1480     0.0000     0.0000     0.0000     0.0000     0.0000     0.0000     0.0000     0.0000     0.0000 </r>
        <r>    -1.1003     0.0000     0.0000     0.0000     0.0000     0.0000     0.0000     0.0000     0.0000     0.0000 </r>
        <r>    -1.0526     0.0000     0.0000     0.0000     0.0000     0.0000     0.0000     0.0000     0.0000     0.0000 </r>
        <r>    -1.0049     0.0000     0.0000     0.0000     0.0000     0.0000     0.0000     0.0000     0.0000     0.0000 </r>
        <r>    -0.9571     0.0000     0.0000     0.0000     0.0000     0.0000     0.0000     0.0000     0.0000     0.0000 </r>
        <r>    -0.9094     0.0000     0.0000     0.0000     0.0000     0.0000     0.0000     0.0000     0.0000     0.0000 </r>
        <r>    -0.8617     0.0000     0.0000     0.0000     0.0000     0.0000     0.0000     0.0000     0.0000     0.0000 </r>
        <r>    -0.8140     0.0000     0.0004     0.0003     0.0002     0.0000     0.0000     0.0000     0.0000     0.0000 </r>
        <r>    -0.7663     0.0000     0.0269     0.0208     0.0179     0.0000     0.0000     0.0000     0.0000     0.0000 </r>
        <r>    -0.7185     0.0000     0.3782     0.3277     0.3005     0.0000     0.0000     0.0000     0.0000     0.0000 </r>
        <r>    -0.6708     0.0001     1.1228     1.0868     1.0592     0.0000     0.0000     0.0000     0.0000     0.0000 </r>
        <r>    -0.6231     0.0001     0.7501     0.8037     0.8288     0.0000     0.0000     0.0000     0.0000     0.0000 </r>
        <r>    -0.5754     0.0000     0.1140     0.1326     0.1436     0.0000     0.0000     0.0000     0.0000     0.0000 </r>
        <r>    -0.5276     0.0000     0.0038     0.0046     0.0052     0.0000     0.0000     0.0000     0.0000     0.0000 </r>
        <r>    -0.4799     0.0000     0.0000     0.0000     0.0000     0.0000     0.0000     0.0000     0.0000     0.0000 </r>
        <r>    -0.4322     0.0000     0.0000     0.0000     0.0000     0.0000     0.0000     0.0000     0.0000     0.0000 </r>
        <r>    -0.3845     0.0000     0.0000     0.0000     0.0000     0.0000     0.0000     0.0000     0.0000     0.0000 </r>
        <r>    -0.3367     0.0000     0.0000     0.0000     0.0000     0.0000     0.0000     0.0000     0.0000     0.0000 </r>
        <r>    -0.2890     0.0000     0.0000     0.0000     0.0000     0.0000     0.0000     0.0000     0.0000     0.0000 </r>
        <r>    -0.2413     0.0014     0.0000     0.0000     0.0000     0.0000     0.0000     0.0000     0.0000     0.0000 </r>
        <r>    -0.1936     0.0387     0.0000     0.0000     0.0000     0.0000     0.0000     0.0000     0.0000     0.0000 </r>
        <r>    -0.1458     0.2080     0.0000     0.0000     0.0000     0.0000     0.0000     0.0000     0.0000     0.0000 </r>
        <r>    -0.0981     0.2307     0.0000     0.0000     0.0001     0.0000     0.0000     0.0000     0.0000     0.0000 </r>
        <r>    -0.0504     0.0530     0.0000     0.0000     0.0000     0.0000     0.0000     0.0000     0.0000     0.0000 </r>
        <r>    -0.0027     0.0024     0.0000     0.0000     0.0000     0.0000     0.0000     0.0000     0.0000     0.0000 </r>
        <r>     0.0450     0.0000     0.0000     0.0000     0.0000     0.0000     0.0000     0.0000     0.0000     0.0000 </r>
        <r>     0.0928     0.0000     0.0000     0.0000     0.0000     0.0000     0.0000     0.0000     0.0000     0.0000 </r>
        <r>     0.1405     0.0000     0.0000     0.0000     0.0000     0.0000     0.0000     0.0000     0.0000     0.0000 </r>
        <r>     0.1882     0.0000     0.0000     0.0000     0.0000     0.0000     0.0000     0.0000     0.0000     0.0000 </r>
        <r>     0.2359     0.0000     0.0000     0.0000     0.0000     0.0000     0.0000     0.0000     0.0000     0.0000 </r>
        <r>     0.2837     0.0000     0.0000     0.0000     0.0000     0.0000     0.0000     0.0000     0.0000     0.0000 </r>
        <r>     0.3314     0.0000     0.0000     0.0000     0.0000     0.0000     0.0000     0.0000     0.0000     0.0000 </r>
        <r>     0.3791     0.0000     0.0000     0.0000     0.0000     0.0000     0.0000     0.0000     0.0000     0.0000 </r>
        <r>     0.4268     0.0000     0.0000     0.0000     0.0000     0.0000     0.0000     0.0000     0.0000     0.0000 </r>
        <r>     0.4746     0.0000     0.0000     0.0000     0.0000     0.0000     0.0000     0.0000     0.0000     0.0000 </r>
        <r>     0.5223     0.0000     0.0000     0.0000     0.0000     0.0000     0.0000     0.0000     0.0000     0.0000 </r>
        <r>     0.5700     0.0000     0.0000     0.0000     0.0000     0.0000     0.0000     0.0000     0.0000     0.0000 </r>
        <r>     0.6177     0.0000     0.0000     0.0000     0.0000     0.0000     0.0000     0.0000     0.0000     0.0000 </r>
        <r>     0.6654     0.0000     0.0000     0.0000     0.0000     0.0000     0.0000     0.0000     0.0000     0.0000 </r>
        <r>     0.7132     0.0000     0.0000     0.0000     0.0000     0.0000     0.0000     0.0000     0.0000     0.0000 </r>
        <r>     0.7609     0.0000     0.0000     0.0000     0.0000     0.0000     0.0000     0.0000     0.0000     0.0000 </r>
        <r>     0.8086     0.0000     0.0000     0.0000     0.0000     0.0000     0.0000     0.0000     0.0000     0.0000 </r>
        <r>     0.8563     0.0000     0.0000     0.0000     0.0000     0.0000     0.0000     0.0000     0.0000     0.0000 </r>
        <r>     0.9041     0.0000     0.0000     0.0000     0.0000     0.0000     0.0000     0.0000     0.0000     0.0000 </r>
        <r>     0.9518     0.0000     0.0000     0.0000     0.0000     0.0000     0.0000     0.0001     0.0000     0.0001 </r>
        <r>     0.9995     0.0000     0.0000     0.0000     0.0000     0.0000     0.0000     0.0033     0.0000     0.0032 </r>
        <r>     1.0472     0.0000     0.0000     0.0000     0.0000     0.0000     0.0000     0.0300     0.0000     0.0297 </r>
        <r>     1.0950     0.0000     0.0000     0.0000     0.0001     0.0000     0.0000     0.0553     0.0000     0.0551 </r>
        <r>     1.1427     0.0000     0.0000     0.0000     0.0000     0.0000     0.0000     0.0212     0.0000     0.0213 </r>
        <r>     1.1904     0.0000     0.0000     0.0000     0.0000     0.0000     0.0000     0.0016     0.0000     0.0017 </r>
        <r>     1.2381     0.0000     0.0000     0.0000     0.0000     0.0000     0.0000     0.0000     0.0000     0.0000 </r>
        <r>     1.2858     0.0000     0.0000     0.0000     0.0000     0.0000     0.0000     0.0000     0.0000     0.0000 </r>
        <r>     1.3336     0.0000     0.0000     0.0000     0.0000     0.0000     0.0000     0.0000     0.0000     0.0000 </r>
        <r>     1.3813     0.0000     0.0000     0.0000     0.0000     0.0000     0.0000     0.0000     0.0000     0.0000 </r>
        <r>     1.4290     0.0000     0.0000     0.0000     0.0000     0.0000     0.0000     0.0000     0.0000     0.0000 </r>
        <r>     1.4767     0.0000     0.0000     0.0000     0.0000     0.0000     0.0000     0.0000     0.0000     0.0000 </r>
        <r>     1.5245     0.0000     0.0000     0.0000     0.0000     0.0000     0.0000     0.0000     0.0000     0.0000 </r>
        <r>     1.5722     0.0000     0.0000     0.0000     0.0000     0.0000     0.0000     0.0000     0.0000     0.0000 </r>
        <r>     1.6199     0.0001     0.0000     0.0000     0.0000     0.0000     0.0000     0.0000     0.0000     0.0000 </r>
        <r>     1.6676     0.0054     0.0000     0.0001     0.0001     0.0000     0.0000     0.0000     0.0000     0.0000 </r>
[...]
        <r>     4.7696     0.0980     0.0152     0.0001     0.0977     0.0003     0.0001     0.0289     0.0001     0.0212 </r>
        <r>     4.8174     0.0238     0.0037     0.0000     0.0238     0.0001     0.0000     0.0070     0.0000     0.0051 </r>
        <r>     4.8651     0.0012     0.0002     0.0000     0.0011     0.0000     0.0000     0.0004     0.0000     0.0002 </r>
        <r>     4.9128     0.0005     0.0000     0.0000     0.0003     0.0000     0.0000     0.0020     0.0000     0.0000 </r>
        <r>     4.9605     0.0084     0.0000     0.0005     0.0043     0.0000     0.0002     0.0335     0.0002     0.0001 </r>
        <r>     5.0083     0.0285     0.0002     0.0017     0.0164     0.0000     0.0007     0.1138     0.0006     0.0026 </r>
        <r>     5.0560     0.0211     0.0006     0.0016     0.0425     0.0000     0.0006     0.0805     0.0006     0.0426 </r>
        <r>     5.1037     0.0064     0.0016     0.0016     0.1118     0.0001     0.0006     0.0118     0.0009     0.1455 </r>
        <r>     5.1514     0.0027     0.0012     0.0012     0.0785     0.0000     0.0004     0.0006     0.0006     0.1034 </r>
        <r>     5.1991     0.0035     0.0012     0.0078     0.0114     0.0000     0.0005     0.0044     0.0002     0.0152 </r>
        <r>     5.2469     0.0196     0.0067     0.0480     0.0003     0.0001     0.0025     0.0276     0.0005     0.0014 </r>
        <r>     5.2946     0.0254     0.0087     0.0623     0.0000     0.0002     0.0033     0.0357     0.0007     0.0012 </r>
        <r>     5.3423     0.0068     0.0024     0.0168     0.0000     0.0000     0.0009     0.0096     0.0002     0.0003 </r>
        <r>     5.3900     0.0004     0.0001     0.0009     0.0000     0.0000     0.0000     0.0005     0.0000     0.0000 </r>
        <r>     5.4378     0.0000     0.0000     0.0000     0.0000     0.0000     0.0000     0.0000     0.0000     0.0000 </r>
        <r>     5.4855     0.0000     0.0000     0.0000     0.0000     0.0000     0.0000     0.0000     0.0000     0.0000 </r>
        <r>     5.5332     0.0000     0.0000     0.0000     0.0000     0.0000     0.0000     0.0000     0.0000     0.0000 </r>
        <r>     5.5809     0.0000     0.0000     0.0000     0.0000     0.0000     0.0000     0.0000     0.0000     0.0000 </r>
        <r>     5.6287     0.0000     0.0000     0.0000     0.0000     0.0000     0.0000     0.0000     0.0000     0.0000 </r>
        <r>     5.6764     0.0000     0.0000     0.0000     0.0000     0.0000     0.0000     0.0000     0.0000     0.0000 </r>
        <r>     5.7241     0.0000     0.0000     0.0000     0.0000     0.0000     0.0000     0.0000     0.0000     0.0000 </r>
        <r>     5.7718     0.0000     0.0000     0.0000     0.0000     0.0000     0.0000     0.0000     0.0000     0.0000 </r>
        <r>     5.8195     0.0000     0.0000     0.0000     0.0000     0.0000     0.0000     0.0000     0.0000     0.0000 </r>
        <r>     5.8673     0.0000     0.0000     0.0000     0.0000     0.0000     0.0000     0.0000     0.0000     0.0000 </r>
        <r>     5.9150     0.0000     0.0000     0.0000     0.0000     0.0000     0.0000     0.0000     0.0000     0.0000 </r>
        <r>     5.9627     0.0000     0.0000     0.0000     0.0000     0.0000     0.0000     0.0000     0.0000     0.0000 </r>
        <r>     6.0104     0.0000     0.0000     0.0000     0.0000     0.0000     0.0000     0.0000     0.0000     0.0000 </r>
        <r>     6.0582     0.0000     0.0000     0.0000     0.0000     0.0000     0.0000     0.0000     0.0000     0.0000 </r>
        <r>     6.1059     0.0000     0.0000     0.0000     0.0000     0.0000     0.0000     0.0000     0.0000     0.0000 </r>
        <r>     6.1536     0.0000     0.0002     0.0001     0.0001     0.0000     0.0000     0.0000     0.0000     0.0000 </r>
        <r>     6.2013     0.0001     0.0076     0.0032     0.0036     0.0002     0.0003     0.0001     0.0002     0.0011 </r>
        <r>     6.2491     0.0013     0.0657     0.0274     0.0312     0.0014     0.0029     0.0011     0.0017     0.0094 </r>
        <r>     6.2968     0.0023     0.1161     0.0485     0.0551     0.0025     0.0052     0.0020     0.0030     0.0167 </r>
        <r>     6.3445     0.0008     0.0428     0.0178     0.0203     0.0009     0.0019     0.0007     0.0011     0.0062 </r>
        <r>     6.3922     0.0001     0.0032     0.0013     0.0015     0.0001     0.0001     0.0001     0.0001     0.0005 </r>
        <r>     6.4399     0.0000     0.0000     0.0000     0.0000     0.0000     0.0000     0.0000     0.0000     0.0000 </r>
        <r>     6.4877     0.0000     0.0000     0.0000     0.0000     0.0000     0.0000     0.0000     0.0000     0.0000 </r>
        <r>     6.5354     0.0000     0.0000     0.0000     0.0000     0.0000     0.0000     0.0000     0.0000     0.0000 </r>
        <r>     6.5831     0.0000     0.0000     0.0000     0.0000     0.0000     0.0000     0.0000     0.0000     0.0000 </r>
        <r>     6.6308     0.0000     0.0000     0.0000     0.0000     0.0000     0.0000     0.0000     0.0000     0.0000 </r>
        <r>     6.6786     0.0000     0.0000     0.0000     0.0000     0.0000     0.0000     0.0000     0.0000     0.0000 </r>
        <r>     6.7263     0.0000     0.0000     0.0000     0.0000     0.0000     0.0000     0.0000     0.0000     0.0000 </r>
        <r>     6.7740     0.0000     0.0000     0.0000     0.0000     0.0000     0.0000     0.0000     0.0000     0.0000 </r>
        <r>     6.8217     0.0000     0.0000     0.0000     0.0000     0.0000     0.0000     0.0000     0.0000     0.0000 </r>
        <r>     6.8695     0.0000     0.0000     0.0000     0.0000     0.0000     0.0000     0.0000     0.0000     0.0000 </r>
        <r>     6.9172     0.0000     0.0000     0.0000     0.0000     0.0000     0.0000     0.0000     0.0000     0.0000 </r>
       </set>
      </set>
     </set>
    </array>
   </partial>
  </dos>
  <projected>
   <eigenvalues>
    <array>
     <dimension dim="1">band</dimension>
     <dimension dim="2">kpoint</dimension>
     <dimension dim="3">spin</dimension>
     <field>eigene</field>
     <field>occ</field>
     <set>
      <set comment="spin 1">
       <set comment="kpoint 1">
        <r>   -6.7490    1.0000 </r>
        <r>   -6.7490    1.0000 </r>
        <r>   -6.7489    1.0000 </r>
        <r>   -6.7489    1.0000 </r>
        <r>   -6.7489    1.0000 </r>
        <r>   -5.8416    1.0000 </r>
        <r>   -0.6891    0.0000 </r>
        <r>   -0.6843    0.0000 </r>
        <r>   -0.6684    0.0000 </r>
        <r>   -0.1427    0.0000 </r>
        <r>    1.0658    0.0000 </r>
        <r>    1.0661    0.0000 </r>
        <r>    1.7515    0.0000 </r>
        <r>    1.7922    0.0000 </r>
        <r>    1.8711    0.0000 </r>
        <r>    1.9653    0.0000 </r>
        <r>    2.0806    0.0000 </r>
        <r>    2.1478    0.0000 </r>
        <r>    2.2210    0.0000 </r>
        <r>    2.6204    0.0000 </r>
        <r>    2.6719    0.0000 </r>
        <r>    2.6779    0.0000 </r>
        <r>    2.6793    0.0000 </r>
        <r>    2.7281    0.0000 </r>
        <r>    3.7178    0.0000 </r>
        <r>    3.7258    0.0000 </r>
        <r>    3.7634    0.0000 </r>
        <r>    3.9615    0.0000 </r>
        <r>    3.9627    0.0000 </r>
        <r>    3.9783    0.0000 </r>
        <r>    4.4040    0.0000 </r>
        <r>    4.4977    0.0000 </r>
        <r>    4.8452    0.0000 </r>
        <r>    5.0237    0.0000 </r>
        <r>    5.7996    0.0000 </r>
        <r>    6.2036    0.0000 </r>
       </set>
      </set>
      <set comment="spin 2">
       <set comment="kpoint 1">
        <r>   -6.4619    1.0000 </r>
        <r>   -6.4619    1.0000 </r>
        <r>   -6.4619    1.0000 </r>
        <r>   -6.4619    1.0000 </r>
        <r>   -6.4619    1.0000 </r>
        <r>   -5.1319    0.0000 </r>
        <r>   -0.0979    0.0000 </r>
        <r>   -0.0935    0.0000 </r>
        <r>   -0.0877    0.0000 </r>
        <r>    0.1562    0.0000 </r>
        <r>    1.3968    0.0000 </r>
        <r>    1.3979    0.0000 </r>
        <r>    1.9887    0.0000 </r>
        <r>    2.0378    0.0000 </r>
        <r>    2.0394    0.0000 </r>
        <r>    2.0718    0.0000 </r>
        <r>    2.6250    0.0000 </r>
        <r>    2.6331    0.0000 </r>
        <r>    2.6426    0.0000 </r>
        <r>    2.9211    0.0000 </r>
        <r>    2.9237    0.0000 </r>
        <r>    2.9493    0.0000 </r>
        <r>    2.9583    0.0000 </r>
        <r>    3.0335    0.0000 </r>
        <r>    3.9651    0.0000 </r>
        <r>    4.2238    0.0000 </r>
        <r>    4.2315    0.0000 </r>
        <r>    4.2382    0.0000 </r>
        <r>    4.2483    0.0000 </r>
        <r>    4.2879    0.0000 </r>
        <r>    4.6216    0.0000 </r>
        <r>    4.7268    0.0000 </r>
        <r>    4.9977    0.0000 </r>
        <r>    5.0933    0.0000 </r>
        <r>    5.2548    0.0000 </r>
        <r>    6.2664    0.0000 </r>
       </set>
      </set>
     </set>
    </array>
   </eigenvalues>
   <array>
    <dimension dim="1">ion</dimension>
    <dimension dim="2">band</dimension>
    <dimension dim="3">kpoint</dimension>
    <dimension dim="4">spin</dimension>
    <field>    s</field>
    <field>   py</field>
    <field>   pz</field>
    <field>   px</field>
    <field>  dxy</field>
    <field>  dyz</field>
    <field>  dz2</field>
    <field>  dxz</field>
    <field>x2-y2</field>
    <set>
     <set comment="spin1">
      <set comment="kpoint 1">
       <set comment="band 1">
        <r>  0.0000  0.0000  0.0000  0.0000  0.0000  0.0000  0.3136  0.0000  0.5873 </r>
       </set>
       <set comment="band 2">
        <r>  0.0000  0.0000  0.0000  0.0000  0.0000  0.0000  0.5873  0.0000  0.3136 </r>
       </set>
       <set comment="band 3">
        <r>  0.0000  0.0000  0.0000  0.0000  0.2228  0.0019  0.0000  0.6762  0.0000 </r>
       </set>
       <set comment="band 4">
        <r>  0.0000  0.0000  0.0000  0.0000  0.6479  0.0502  0.0000  0.2028  0.0000 </r>
       </set>
       <set comment="band 5">
        <r>  0.0000  0.0000  0.0000  0.0000  0.0302  0.8488  0.0000  0.0220  0.0000 </r>
       </set>
       <set comment="band 6">
        <r>  0.4654  0.0000  0.0000  0.0000  0.0000  0.0000  0.0000  0.0000  0.0000 </r>
       </set>
       <set comment="band 7">
        <r>  0.0000  0.0819  0.0267  0.0080  0.0000  0.0000  0.0000  0.0000  0.0000 </r>
       </set>
       <set comment="band 8">
        <r>  0.0000  0.0028  0.0507  0.0616  0.0000  0.0000  0.0000  0.0000  0.0000 </r>
       </set>
       <set comment="band 9">
        <r>  0.0000  0.0297  0.0360  0.0428  0.0000  0.0000  0.0000  0.0000  0.0000 </r>
       </set>
       <set comment="band 10">
        <r>  0.0255  0.0000  0.0000  0.0000  0.0000  0.0000  0.0000  0.0000  0.0000 </r>
       </set>
       <set comment="band 11">
        <r>  0.0000  0.0000  0.0000  0.0000  0.0000  0.0000  0.0053  0.0000  0.0000 </r>
       </set>
       <set comment="band 12">
        <r>  0.0000  0.0000  0.0000  0.0000  0.0000  0.0000  0.0000  0.0000  0.0053 </r>
       </set>
       <set comment="band 13">
        <r>  0.0291  0.0000  0.0000  0.0001  0.0000  0.0000  0.0000  0.0000  0.0000 </r>
       </set>
       <set comment="band 14">
        <r>  0.0000  0.0066  0.0174  0.0104  0.0004  0.0002  0.0000  0.0001  0.0000 </r>
       </set>
       <set comment="band 15">
        <r>  0.0000  0.0222  0.0000  0.0086  0.0023  0.0000  0.0000  0.0009  0.0000 </r>
       </set>
       <set comment="band 16">
        <r>  0.0001  0.0023  0.0176  0.0038  0.0009  0.0044  0.0000  0.0005  0.0000 </r>
       </set>
       <set comment="band 17">
        <r>  0.0001  0.0020  0.0072  0.0079  0.0009  0.0051  0.0000  0.0002  0.0000 </r>
       </set>
       <set comment="band 18">
        <r>  0.0000  0.0052  0.0003  0.0025  0.0075  0.0013  0.0000  0.0014  0.0000 </r>
       </set>
       <set comment="band 19">
        <r>  0.0000  0.0008  0.0000  0.0000  0.0011  0.0017  0.0000  0.0104  0.0000 </r>
       </set>
       <set comment="band 20">
        <r>  0.0000  0.0001  0.0002  0.0010  0.0001  0.0001  0.0000  0.0000  0.0000 </r>
       </set>
       <set comment="band 21">
        <r>  0.0000  0.0000  0.0002  0.0001  0.0000  0.0000  0.0038  0.0000  0.0000 </r>
       </set>
       <set comment="band 22">
        <r>  0.0000  0.0001  0.0000  0.0000  0.0000  0.0000  0.0000  0.0000  0.0038 </r>
       </set>
       <set comment="band 23">
        <r>  0.0002  0.0002  0.0002  0.0001  0.0000  0.0001  0.0001  0.0000  0.0000 </r>
       </set>
       <set comment="band 24">
        <r>  0.0023  0.0006  0.0010  0.0076  0.0000  0.0001  0.0000  0.0000  0.0000 </r>
       </set>
       <set comment="band 25">
        <r>  0.0020  0.0027  0.0041  0.0321  0.0001  0.0000  0.0001  0.0000  0.0004 </r>
       </set>
       <set comment="band 26">
        <r>  0.0278  0.0008  0.0000  0.0022  0.0002  0.0001  0.0000  0.0000  0.0000 </r>
       </set>
       <set comment="band 27">
        <r>  0.0013  0.0008  0.0328  0.0029  0.0001  0.0001  0.0003  0.0000  0.0000 </r>
       </set>
       <set comment="band 28">
        <r>  0.0005  0.0000  0.0000  0.0015  0.0059  0.0000  0.0000  0.0010  0.0000 </r>
       </set>
       <set comment="band 29">
        <r>  0.0005  0.0007  0.0002  0.0006  0.0008  0.0018  0.0000  0.0041  0.0000 </r>
       </set>
       <set comment="band 30">
        <r>  0.0005  0.0006  0.0003  0.0005  0.0002  0.0053  0.0000  0.0017  0.0001 </r>
       </set>
       <set comment="band 31">
        <r>  0.0020  0.0138  0.0000  0.0001  0.0001  0.0001  0.0088  0.0009  0.0017 </r>
       </set>
       <set comment="band 32">
        <r>  0.0150  0.0000  0.0033  0.0003  0.0000  0.0000  0.0032  0.0000  0.0010 </r>
       </set>
       <set comment="band 33">
        <r>  0.0000  0.0007  0.0006  0.0011  0.0002  0.0002  0.0001  0.0000  0.0173 </r>
       </set>
       <set comment="band 34">
        <r>  0.0006  0.0187  0.0000  0.0080  0.0007  0.0045  0.0012  0.0002  0.0008 </r>
       </set>
       <set comment="band 35">
        <r>  0.0084  0.0088  0.0023  0.0000  0.0035  0.0000  0.0001  0.0003  0.0001 </r>
       </set>
       <set comment="band 36">
        <r>  0.0004  0.0037  0.0052  0.0007  0.0002  0.0002  0.0006  0.0015  0.0015 </r>
       </set>
      </set>
     </set>
     <set comment="spin2">
      <set comment="kpoint 1">
       <set comment="band 1">
        <r>  0.0000  0.0000  0.0000  0.0000  0.0000  0.0000  0.0337  0.0000  0.8720 </r>
       </set>
       <set comment="band 2">
        <r>  0.0000  0.0000  0.0000  0.0000  0.0000  0.0000  0.8720  0.0000  0.0337 </r>
       </set>
       <set comment="band 3">
        <r>  0.0000  0.0000  0.0000  0.0000  0.1195  0.0034  0.0000  0.7829  0.0000 </r>
       </set>
       <set comment="band 4">
        <r>  0.0000  0.0000  0.0000  0.0000  0.5328  0.2708  0.0000  0.1022  0.0000 </r>
       </set>
       <set comment="band 5">
        <r>  0.0000  0.0000  0.0000  0.0000  0.2535  0.6315  0.0000  0.0208  0.0000 </r>
       </set>
       <set comment="band 6">
        <r>  0.4580  0.0000  0.0000  0.0000  0.0000  0.0000  0.0000  0.0000  0.0000 </r>
       </set>
       <set comment="band 7">
        <r>  0.0000  0.0037  0.1046  0.0010  0.0000  0.0000  0.0000  0.0000  0.0000 </r>
       </set>
       <set comment="band 8">
        <r>  0.0000  0.0040  0.0005  0.1026  0.0000  0.0000  0.0000  0.0000  0.0000 </r>
       </set>
       <set comment="band 9">
        <r>  0.0001  0.0965  0.0040  0.0035  0.0000  0.0000  0.0000  0.0000  0.0000 </r>
       </set>
       <set comment="band 10">
        <r>  0.0221  0.0001  0.0000  0.0000  0.0000  0.0000  0.0000  0.0000  0.0000 </r>
       </set>
       <set comment="band 11">
        <r>  0.0000  0.0000  0.0000  0.0000  0.0000  0.0000  0.0016  0.0000  0.0025 </r>
       </set>
       <set comment="band 12">
        <r>  0.0000  0.0000  0.0000  0.0000  0.0000  0.0000  0.0025  0.0000  0.0016 </r>
       </set>
       <set comment="band 13">
        <r>  0.0296  0.0000  0.0000  0.0001  0.0000  0.0000  0.0000  0.0000  0.0000 </r>
       </set>
       <set comment="band 14">
        <r>  0.0001  0.0005  0.0246  0.0081  0.0000  0.0000  0.0000  0.0000  0.0000 </r>
       </set>
       <set comment="band 15">
        <r>  0.0000  0.0316  0.0003  0.0051  0.0000  0.0001  0.0000  0.0000  0.0000 </r>
       </set>
       <set comment="band 16">
        <r>  0.0000  0.0061  0.0093  0.0183  0.0001  0.0000  0.0000  0.0002  0.0000 </r>
       </set>
       <set comment="band 17">
        <r>  0.0000  0.0000  0.0002  0.0006  0.0010  0.0053  0.0000  0.0046  0.0000 </r>
       </set>
       <set comment="band 18">
        <r>  0.0000  0.0003  0.0001  0.0000  0.0004  0.0056  0.0000  0.0050  0.0000 </r>
       </set>
       <set comment="band 19">
        <r>  0.0000  0.0000  0.0000  0.0001  0.0094  0.0001  0.0000  0.0014  0.0000 </r>
       </set>
       <set comment="band 20">
        <r>  0.0000  0.0000  0.0000  0.0002  0.0000  0.0000  0.0036  0.0000  0.0001 </r>
       </set>
       <set comment="band 21">
        <r>  0.0000  0.0002  0.0000  0.0000  0.0001  0.0000  0.0001  0.0000  0.0035 </r>
       </set>
       <set comment="band 22">
        <r>  0.0000  0.0000  0.0000  0.0000  0.0001  0.0000  0.0000  0.0001  0.0000 </r>
       </set>
       <set comment="band 23">
        <r>  0.0000  0.0000  0.0000  0.0002  0.0000  0.0000  0.0000  0.0000  0.0001 </r>
       </set>
       <set comment="band 24">
        <r>  0.0003  0.0001  0.0006  0.0000  0.0002  0.0001  0.0000  0.0000  0.0000 </r>
       </set>
       <set comment="band 25">
        <r>  0.0314  0.0002  0.0002  0.0001  0.0000  0.0000  0.0000  0.0000  0.0000 </r>
       </set>
       <set comment="band 26">
        <r>  0.0038  0.0015  0.0213  0.0036  0.0000  0.0001  0.0014  0.0000  0.0000 </r>
       </set>
       <set comment="band 27">
        <r>  0.0000  0.0014  0.0003  0.0001  0.0003  0.0065  0.0000  0.0000  0.0000 </r>
       </set>
       <set comment="band 28">
        <r>  0.0000  0.0012  0.0002  0.0002  0.0058  0.0003  0.0000  0.0005  0.0000 </r>
       </set>
       <set comment="band 29">
        <r>  0.0002  0.0002  0.0001  0.0000  0.0007  0.0000  0.0000  0.0063  0.0000 </r>
       </set>
       <set comment="band 30">
        <r>  0.0081  0.0093  0.0023  0.0106  0.0001  0.0001  0.0009  0.0001  0.0012 </r>
       </set>
       <set comment="band 31">
        <r>  0.0036  0.0018  0.0002  0.0003  0.0001  0.0000  0.0001  0.0000  0.0060 </r>
       </set>
       <set comment="band 32">
        <r>  0.0106  0.0016  0.0000  0.0105  0.0000  0.0000  0.0031  0.0000  0.0023 </r>
       </set>
       <set comment="band 33">
        <r>  0.0029  0.0000  0.0002  0.0015  0.0000  0.0001  0.0115  0.0001  0.0000 </r>
       </set>
       <set comment="band 34">
        <r>  0.0004  0.0002  0.0001  0.0112  0.0000  0.0001  0.0000  0.0001  0.0148 </r>
       </set>
       <set comment="band 35">
        <r>  0.0026  0.0009  0.0065  0.0000  0.0000  0.0003  0.0037  0.0001  0.0001 </r>
       </set>
       <set comment="band 36">
        <r>  0.0002  0.0112  0.0047  0.0053  0.0002  0.0005  0.0002  0.0003  0.0016 </r>
       </set>
      </set>
     </set>
    </set>
   </array>
  </projected>
 </calculation>
 <structure name="finalpos" >
  <crystal>
   <varray name="basis" >
    <v>      10.00000000       0.00000000       0.00000000 </v>
    <v>       0.00000000      10.00000000       0.00000000 </v>
    <v>       0.00000000       0.00000000      10.00000000 </v>
   </varray>
   <i name="volume">   1000.00000000 </i>
   <varray name="rec_basis" >
    <v>       0.10000000       0.00000000       0.00000000 </v>
    <v>       0.00000000       0.10000000       0.00000000 </v>
    <v>       0.00000000       0.00000000       0.10000000 </v>
   </varray>
  </crystal>
  <varray name="positions" >
   <v>       0.50000000       0.50000000       0.50000000 </v>
  </varray>
 </structure>
</modeling>
