       N       E                     dE             d eps       ncg     rms          rms(c)
DAV:   1     0.138724443307E+03    0.13872E+03   -0.28792E+03   144   0.166E+02
DAV:   2     0.103047368634E+01   -0.13769E+03   -0.13759E+03   288   0.325E+01
DAV:   3    -0.280434950450E+01   -0.38348E+01   -0.38294E+01   144   0.124E+01
DAV:   4    -0.284194239556E+01   -0.37593E-01   -0.37590E-01   216   0.213E+00
DAV:   5    -0.284206379612E+01   -0.12140E-03   -0.12140E-03   144   0.978E-02    0.182E+01
DAV:   6    -0.868882124170E+01   -0.58468E+01   -0.28451E+02   288   0.244E+01    0.138E+01
DAV:   7    -0.417583371850E+01    0.45130E+01   -0.48503E+00   288   0.352E+00    0.743E+00
DAV:   8    -0.270824904151E+01    0.14676E+01   -0.76631E-01   288   0.146E+00    0.603E+00
DAV:   9    -0.145529996239E+01    0.12529E+01   -0.10100E+00   216   0.173E+00    0.401E+00
DAV:  10    -0.552026227179E+00    0.90327E+00   -0.14023E+00   144   0.211E+00    0.185E+00
DAV:  11    -0.515168404141E+00    0.36858E-01   -0.87941E-01   180   0.983E-01    0.759E+00
DAV:  12    -0.551167159753E+00   -0.35999E-01   -0.17796E+00   144   0.128E+00    0.172E+00
DAV:  13    -0.563663380792E+00   -0.12496E-01   -0.11945E+00   144   0.100E+00    0.786E+00
DAV:  14    -0.868026579984E+00   -0.30436E+00   -0.87250E-02   144   0.107E+00    0.110E+01
DAV:  15    -0.783703254766E+00    0.84323E-01   -0.17937E-01   180   0.858E-01    0.854E+00
DAV:  16    -0.106163187570E+01   -0.27793E+00   -0.16198E+00   144   0.626E-01    0.175E+01
DAV:  17    -0.931557750688E+00    0.13007E+00   -0.41699E+00   144   0.154E+00    0.147E+01
DAV:  18    -0.847350615274E+00    0.84207E-01   -0.14388E+00   144   0.114E+00    0.973E+00
DAV:  19    -0.989258417858E+00   -0.14191E+00   -0.39625E+00   144   0.315E+00    0.135E+01
DAV:  20    -0.677867982002E+00    0.31139E+00   -0.22054E+00   144   0.344E+00    0.824E+00
DAV:  21    -0.545472632895E+00    0.13240E+00   -0.16622E+00   144   0.377E+00    0.700E+00
DAV:  22    -0.542583966424E+00    0.28887E-02   -0.22574E+00   144   0.354E+00    0.249E+00
DAV:  23    -0.566221480567E+00   -0.23638E-01   -0.10829E+00   144   0.128E+00    0.707E+00
DAV:  24    -0.502176334743E+00    0.64045E-01   -0.11320E-01   144   0.774E-01    0.441E+00
DAV:  25    -0.486217693929E+00    0.15959E-01   -0.66409E-02   144   0.766E-01    0.877E-01
DAV:  26    -0.528249642004E+00   -0.42032E-01   -0.38040E-01   144   0.414E-01    0.666E+00
DAV:  27    -0.522021585146E+00    0.62281E-02   -0.42678E-02   144   0.275E-01    0.663E+00
DAV:  28    -0.519239042198E+00    0.27825E-02   -0.79624E-03   144   0.782E-01    0.690E+00
DAV:  29    -0.538220139467E+00   -0.18981E-01   -0.36902E-03   144   0.602E-01    0.721E+00
DAV:  30    -0.521157749639E+00    0.17062E-01   -0.86956E-02   144   0.100E+00    0.692E+00
DAV:  31    -0.533263469209E+00   -0.12106E-01   -0.11547E-01   144   0.138E+00    0.726E+00
DAV:  32    -0.521860271283E+00    0.11403E-01   -0.37538E-01   144   0.189E+00    0.693E+00
DAV:  33    -0.545794835504E+00   -0.23935E-01   -0.31634E-01   144   0.222E+00    0.727E+00
DAV:  34    -0.539391221183E+00    0.64036E-02   -0.72184E-01   144   0.265E+00    0.695E+00
DAV:  35    -0.543452431234E+00   -0.40612E-02   -0.36600E-01   144   0.265E+00    0.709E+00
DAV:  36    -0.537588377705E+00    0.58641E-02   -0.78536E-01   144   0.274E+00    0.695E+00
DAV:  37    -0.535077565332E+00    0.25108E-02   -0.35442E-01   144   0.267E+00    0.675E+00
DAV:  38    -0.530878413501E+00    0.41992E-02   -0.75851E-01   144   0.266E+00    0.695E+00
DAV:  39    -0.528254754343E+00    0.26237E-02   -0.35811E-01   144   0.258E+00    0.643E+00
DAV:  40    -0.524914643081E+00    0.33401E-02   -0.73473E-01   144   0.256E+00    0.695E+00
DAV:  41    -0.523250560827E+00    0.16641E-02   -0.34174E-01   144   0.248E+00    0.620E+00
DAV:  42    -0.520793240696E+00    0.24573E-02   -0.69212E-01   144   0.245E+00    0.694E+00
DAV:  43    -0.520367362371E+00    0.42588E-03   -0.30524E-01   144   0.238E+00    0.613E+00
DAV:  44    -0.516112229375E+00    0.42551E-02   -0.63330E-01   144   0.234E+00    0.692E+00
DAV:  45    -0.517311941495E+00   -0.11997E-02   -0.27266E-01   144   0.228E+00    0.604E+00
DAV:  46    -0.512163414291E+00    0.51485E-02   -0.57341E-01   144   0.224E+00    0.690E+00
DAV:  47    -0.515395328179E+00   -0.32319E-02   -0.23149E-01   144   0.218E+00    0.605E+00
DAV:  48    -0.506328238378E+00    0.90671E-02   -0.50676E-01   144   0.213E+00    0.680E+00
DAV:  49    -0.511583459849E+00   -0.52552E-02   -0.20564E-01   144   0.207E+00    0.587E+00
DAV:  50    -0.501175298981E+00    0.10408E-01   -0.44140E-01   144   0.199E+00    0.660E+00
DAV:  51    -0.497065157531E+00    0.41101E-02   -0.81169E-01   144   0.197E+00    0.177E+00
DAV:  52    -0.491427216453E+00    0.56379E-02   -0.28900E-02   144   0.107E+00    0.447E-01
DAV:  53    -0.493678675294E+00   -0.22515E-02   -0.36943E-03   144   0.248E-01    0.142E+00
DAV:  54    -0.493596130092E+00    0.82545E-04   -0.12311E-03   144   0.160E-01    0.296E-01
DAV:  55    -0.494288703480E+00   -0.69257E-03   -0.59276E-04   144   0.102E-01    0.177E+00
DAV:  56    -0.493473541620E+00    0.81516E-03   -0.18191E-03   144   0.110E-01    0.616E-01
DAV:  57    -0.493558785569E+00   -0.85244E-04   -0.13540E-03   144   0.959E-02    0.320E-01
DAV:  58    -0.493428041875E+00    0.13074E-03   -0.13864E-04   144   0.399E-02    0.293E-01
DAV:  59    -0.493267206570E+00    0.16084E-03   -0.91755E-05   144   0.303E-02    0.586E-01
DAV:  60    -0.493098393580E+00    0.16881E-03   -0.15199E-04   144   0.389E-02    0.468E-01
DAV:  61    -0.564679451320E+00   -0.71581E-01   -0.62418E-01   144   0.448E-01    0.693E+00
DAV:  62    -0.554455686413E+00    0.10224E-01   -0.10559E-02   144   0.574E-01    0.690E+00
DAV:  63    -0.481783257786E+00    0.72672E-01   -0.15542E-01   144   0.380E-01    0.262E+00
DAV:  64    -0.484360197357E+00   -0.25769E-02   -0.37645E-03   144   0.301E-01    0.186E+00
DAV:  65    -0.495923864303E+00   -0.11564E-01   -0.84924E-03   144   0.336E-01    0.174E+00
DAV:  66    -0.493600823846E+00    0.23230E-02   -0.22184E-03   144   0.145E-01    0.288E-01
DAV:  67    -0.494260413851E+00   -0.65959E-03   -0.74356E-04   144   0.151E-01    0.118E+00
DAV:  68    -0.493198423562E+00    0.10620E-02   -0.59225E-04   144   0.881E-02    0.248E-01
DAV:  69    -0.493291953355E+00   -0.93530E-04   -0.19525E-04   144   0.890E-02    0.386E-01
DAV:  70    -0.493209398724E+00    0.82555E-04   -0.11080E-04   144   0.441E-02    0.266E-01
DAV:  71    -0.493231922769E+00   -0.22524E-04   -0.79634E-05   144   0.439E-02
   1 F= -.49323192E+00 E0= -.47011851E+00  d E =-.493232E+00  mag=     1.0000
