<?xml version="1.0" encoding="ISO-8859-1"?>
<modeling>
 <generator>
  <i name="program" type="string">vasp </i>
  <i name="version" type="string">5.4.4.18Apr17-6-g9f103f2a35  </i>
  <i name="subversion" type="string">(build Nov 08 2019 15:19:53) gamma-only         parallel </i>
  <i name="platform" type="string">LinuxIFC </i>
  <i name="date" type="string">2020 11 30 </i>
  <i name="time" type="string">10:02:39 </i>
 </generator>
 <incar>
  <i type="string" name="PREC">accurate</i>
  <i type="string" name="ALGO"> N</i>
  <i type="int" name="ISPIN">     2</i>
  <i type="int" name="NELM">   300</i>
  <i type="int" name="IBRION">     2</i>
  <i name="EDIFF">      0.00005000</i>
  <i type="int" name="NSW">    99</i>
  <i type="int" name="ISIF">     2</i>
  <i name="ENCUT">    520.00000000</i>
  <i name="NUPDOWN">      1.00000000</i>
  <v name="MAGMOM">      0.60000000</v>
  <i type="string" name="LREAL"> Auto</i>
  <i type="int" name="ISMEAR">     0</i>
  <i name="SIGMA">      0.05000000</i>
  <i type="logical" name="LWAVE"> F  </i>
  <i type="int" name="LORBIT">    11</i>
  <i type="logical" name="LASPH"> T  </i>
  <v type="int" name="KPOINT_BSE">    -1     0     0     0</v>
  <i type="int" name="NELM">   300</i>
  <i type="logical" name="LASPH"> T  </i>
 </incar>
 <structure name="primitive_cell" >
  <crystal>
   <varray name="basis" >
    <v>      10.00000000       0.00000000       0.00000000 </v>
    <v>       0.00000000      10.00000000       0.00000000 </v>
    <v>       0.00000000       0.00000000      10.00000000 </v>
   </varray>
   <i name="volume">   1000.00000000 </i>
   <varray name="rec_basis" >
    <v>       0.10000000       0.00000000       0.00000000 </v>
    <v>       0.00000000       0.10000000       0.00000000 </v>
    <v>       0.00000000       0.00000000       0.10000000 </v>
   </varray>
  </crystal>
  <varray name="positions" >
   <v>      -0.50000000      -0.50000000      -0.50000000 </v>
  </varray>
 </structure>
 <varray name="primitive_index" >
  <v type="int" >        1 </v>
 </varray>
 <kpoints>
  <generation param="Gamma">
   <v type="int" name="divisions">       1        1        1 </v>
   <v name="usershift">      0.00000000       0.00000000       0.00000000 </v>
   <v name="genvec1">      1.00000000       0.00000000       0.00000000 </v>
   <v name="genvec2">      0.00000000       1.00000000       0.00000000 </v>
   <v name="genvec3">      0.00000000       0.00000000       1.00000000 </v>
   <v name="shift">      0.00000000       0.00000000       0.00000000 </v>
  </generation>
  <varray name="kpointlist" >
   <v>       0.00000000       0.00000000       0.00000000 </v>
  </varray>
  <varray name="weights" >
   <v>       1.00000000 </v>
  </varray>
 </kpoints>
 <parameters>
  <separator name="general" >
   <i type="string" name="SYSTEM">unknown system</i>
   <i type="logical" name="LCOMPAT"> F  </i>
  </separator>
  <separator name="electronic" >
   <i type="string" name="PREC">accura</i>
   <i name="ENMAX">    520.00000000</i>
   <i name="ENAUG">    583.57500000</i>
   <i name="EDIFF">      0.00005000</i>
   <i type="int" name="IALGO">    38</i>
   <i type="int" name="IWAVPR">    11</i>
   <i type="int" name="NBANDS">    36</i>
   <i name="NELECT">     11.00000000</i>
   <i type="int" name="TURBO">     0</i>
   <i type="int" name="IRESTART">     0</i>
   <i type="int" name="NREBOOT">     0</i>
   <i type="int" name="NMIN">     0</i>
   <i name="EREF">      0.00000000</i>
   <separator name="electronic smearing" >
    <i type="int" name="ISMEAR">     0</i>
    <i name="SIGMA">      0.05000000</i>
    <i name="KSPACING">      0.50000000</i>
    <i type="logical" name="KGAMMA"> T  </i>
   </separator>
   <separator name="electronic projectors" >
    <i type="logical" name="LREAL"> T  </i>
    <v name="ROPT">     -0.00025000</v>
    <i type="int" name="LMAXPAW">  -100</i>
    <i type="int" name="LMAXMIX">     2</i>
    <i type="logical" name="NLSPLINE"> F  </i>
   </separator>
   <separator name="electronic startup" >
    <i type="int" name="ISTART">     0</i>
    <i type="int" name="ICHARG">     2</i>
    <i type="int" name="INIWAV">     1</i>
   </separator>
   <separator name="electronic spin" >
    <i type="int" name="ISPIN">     2</i>
    <i type="logical" name="LNONCOLLINEAR"> F  </i>
    <v name="MAGMOM">      0.60000000</v>
    <i name="NUPDOWN">      1.00000000</i>
    <i type="logical" name="LSORBIT"> F  </i>
    <v name="SAXIS">      0.00000000      0.00000000      1.00000000</v>
    <i type="logical" name="LSPIRAL"> F  </i>
    <v name="QSPIRAL">      0.00000000      0.00000000      0.00000000</v>
    <i type="logical" name="LZEROZ"> F  </i>
   </separator>
   <separator name="electronic exchange-correlation" >
    <i type="logical" name="LASPH"> T  </i>
    <i type="logical" name="LMETAGGA"> F  </i>
   </separator>
   <separator name="electronic convergence" >
    <i type="int" name="NELM">   300</i>
    <i type="int" name="NELMDL">     0</i>
    <i type="int" name="NELMIN">     2</i>
    <i name="ENINI">    520.00000000</i>
    <separator name="electronic convergence detail" >
     <i type="logical" name="LDIAG"> T  </i>
     <i type="logical" name="LSUBROT"> F  </i>
     <i name="WEIMIN">      0.00100000</i>
     <i name="EBREAK">      0.00000035</i>
     <i name="DEPER">      0.30000000</i>
     <i type="int" name="NRMM">     4</i>
     <i name="TIME">      0.40000000</i>
    </separator>
   </separator>
   <separator name="electronic mixer" >
    <i name="AMIX">      0.40000000</i>
    <i name="BMIX">      1.00000000</i>
    <i name="AMIN">      0.10000000</i>
    <i name="AMIX_MAG">      1.60000000</i>
    <i name="BMIX_MAG">      1.00000000</i>
    <separator name="electronic mixer details" >
     <i type="int" name="IMIX">     4</i>
     <i type="logical" name="MIXFIRST"> F  </i>
     <i type="int" name="MAXMIX">   -45</i>
     <i name="WC">    100.00000000</i>
     <i type="int" name="INIMIX">     1</i>
     <i type="int" name="MIXPRE">     1</i>
     <i type="int" name="MREMOVE">     5</i>
    </separator>
   </separator>
   <separator name="electronic dipolcorrection" >
    <i type="logical" name="LDIPOL"> F  </i>
    <i type="logical" name="LMONO"> F  </i>
    <i type="int" name="IDIPOL">     0</i>
    <i name="EPSILON">      1.00000000</i>
    <v name="DIPOL">   -100.00000000   -100.00000000   -100.00000000</v>
    <i name="EFIELD">      0.00000000</i>
   </separator>
  </separator>
  <separator name="grids" >
   <i type="int" name="NGX">    80</i>
   <i type="int" name="NGY">    80</i>
   <i type="int" name="NGZ">    80</i>
   <i type="int" name="NGXF">   160</i>
   <i type="int" name="NGYF">   160</i>
   <i type="int" name="NGZF">   160</i>
   <i type="logical" name="ADDGRID"> F  </i>
  </separator>
  <separator name="ionic" >
   <i type="int" name="NSW">    99</i>
   <i type="int" name="IBRION">     2</i>
   <i type="int" name="MDALGO">     0</i>
   <i type="int" name="ISIF">     2</i>
   <i name="PSTRESS">      0.00000000</i>
   <i name="EDIFFG">      0.00050000</i>
   <i type="int" name="NFREE">     1</i>
   <i name="POTIM">      0.50000000</i>
   <i name="SMASS">     -3.00000000</i>
   <i name="SCALEE">      1.00000000</i>
  </separator>
  <separator name="ionic md" >
   <i name="TEBEG">      0.00010000</i>
   <i name="TEEND">      0.00010000</i>
   <i type="int" name="NBLOCK">     1</i>
   <i type="int" name="KBLOCK">    99</i>
   <i type="int" name="NPACO">   256</i>
   <i name="APACO">     16.00000000</i>
  </separator>
  <separator name="symmetry" >
   <i type="int" name="ISYM">     2</i>
   <i name="SYMPREC">      0.00001000</i>
  </separator>
  <separator name="dos" >
   <i type="int" name="LORBIT">    11</i>
   <v name="RWIGS">     -1.00000000</v>
   <i type="int" name="NEDOS">   301</i>
   <i name="EMIN">     10.00000000</i>
   <i name="EMAX">    -10.00000000</i>
   <i name="EFERMI">      0.00000000</i>
  </separator>
  <separator name="writing" >
   <i type="int" name="NWRITE">     2</i>
   <i type="logical" name="LWAVE"> F  </i>
   <i type="logical" name="LDOWNSAMPLE"> F  </i>
   <i type="logical" name="LCHARG"> T  </i>
   <i type="logical" name="LPARD"> F  </i>
   <i type="logical" name="LVTOT"> F  </i>
   <i type="logical" name="LVHAR"> F  </i>
   <i type="logical" name="LELF"> F  </i>
   <i type="logical" name="LOPTICS"> F  </i>
   <v name="STM">      0.00000000      0.00000000      0.00000000      0.00000000      0.00000000      0.00000000      0.00000000</v>
  </separator>
  <separator name="performance" >
   <i type="int" name="NPAR">    36</i>
   <i type="int" name="NSIM">     4</i>
   <i type="int" name="NBLK">    -1</i>
   <i type="logical" name="LPLANE"> T  </i>
   <i type="logical" name="LSCALAPACK"> T  </i>
   <i type="logical" name="LSCAAWARE"> F  </i>
   <i type="logical" name="LSCALU"> F  </i>
   <i type="logical" name="LASYNC"> F  </i>
   <i type="logical" name="LORBITALREAL"> F  </i>
  </separator>
  <separator name="miscellaneous" >
   <i type="int" name="IDIOT">     3</i>
   <i type="int" name="ISPECIAL">     0</i>
   <i type="logical" name="LMUSIC"> F  </i>
   <v name="POMASS">    138.90000000</v>
   <v name="DARWINR">      0.00000000</v>
   <v name="DARWINV">      1.00000000</v>
   <i type="logical" name="LCORR"> T  </i>
  </separator>
  <i type="logical" name="GGA_COMPAT"> T  </i>
  <i type="logical" name="LBERRY"> F  </i>
  <i type="int" name="ICORELEVEL">     0</i>
  <i type="logical" name="LDAU"> F  </i>
  <i type="int" name="I_CONSTRAINED_M">     0</i>
  <separator name="electronic exchange-correlation" >
   <i type="string" name="GGA">--</i>
   <i type="int" name="VOSKOWN">     0</i>
   <i type="logical" name="LHFCALC"> F  </i>
   <i type="string" name="PRECFOCK"></i>
   <i type="logical" name="LSYMGRAD"> F  </i>
   <i type="logical" name="LHFONE"> F  </i>
   <i type="logical" name="LRHFCALC"> F  </i>
   <i type="logical" name="LTHOMAS"> F  </i>
   <i type="logical" name="LMODELHF"> F  </i>
   <i name="ENCUT4O">     -1.00000000</i>
   <i type="int" name="EXXOEP">     0</i>
   <i type="int" name="FOURORBIT">     0</i>
   <i name="AEXX">      0.00000000</i>
   <i name="HFALPHA">      0.00000000</i>
   <i name="MCALPHA">      0.00000000</i>
   <i name="ALDAX">      1.00000000</i>
   <i name="AGGAX">      1.00000000</i>
   <i name="ALDAC">      1.00000000</i>
   <i name="AGGAC">      1.00000000</i>
   <i type="int" name="NKREDX">     1</i>
   <i type="int" name="NKREDY">     1</i>
   <i type="int" name="NKREDZ">     1</i>
   <i type="logical" name="SHIFTRED"> F  </i>
   <i type="logical" name="ODDONLY"> F  </i>
   <i type="logical" name="EVENONLY"> F  </i>
   <i type="int" name="LMAXFOCK">     0</i>
   <i type="int" name="NMAXFOCKAE">     0</i>
   <i type="logical" name="LFOCKAEDFT"> F  </i>
   <i name="HFSCREEN">      0.00000000</i>
   <i name="HFSCREENC">      0.00000000</i>
   <i type="int" name="NBANDSGWLOW">     0</i>
  </separator>
  <separator name="vdW DFT" >
   <i type="logical" name="LUSE_VDW"> F  </i>
   <i name="Zab_VDW">     -0.84910000</i>
   <i name="PARAM1">      0.12340000</i>
   <i name="PARAM2">      1.00000000</i>
   <i name="PARAM3">      0.00000000</i>
  </separator>
  <separator name="model GW" >
   <i type="int" name="MODEL_GW">     0</i>
   <i name="MODEL_EPS0">    600.00000000</i>
   <i name="MODEL_ALPHA">      1.00000000</i>
  </separator>
  <separator name="linear response parameters" >
   <i type="logical" name="LEPSILON"> F  </i>
   <i type="logical" name="LRPA"> F  </i>
   <i type="logical" name="LNABLA"> F  </i>
   <i type="logical" name="LVEL"> F  </i>
   <i type="int" name="KINTER">     0</i>
   <i name="CSHIFT">      0.10000000</i>
   <i name="OMEGAMAX">     -1.00000000</i>
   <i name="DEG_THRESHOLD">      0.00200000</i>
   <i name="RTIME">     -0.10000000</i>
   <i name="WPLASMAI">      0.00000000</i>
   <v name="DFIELD">      0.00000000      0.00000000      0.00000000</v>
   <v name="WPLASMA">      0.00000000      0.00000000      0.00000000      0.00000000      0.00000000      0.00000000      0.00000000      0.00000000      0.00000000</v>
  </separator>
  <separator name="orbital magnetization" >
   <i type="logical" name="NUCIND"> F  </i>
   <v name="MAGPOS">      0.00000000      0.00000000      0.00000000</v>
   <i type="logical" name="LNICSALL"> T  </i>
   <i type="logical" name="ORBITALMAG"> F  </i>
   <i type="logical" name="LMAGBLOCH"> F  </i>
   <i type="logical" name="LCHIMAG"> F  </i>
   <i type="logical" name="LGAUGE"> T  </i>
   <i type="int" name="MAGATOM">     0</i>
   <v name="MAGDIPOL">      0.00000000      0.00000000      0.00000000</v>
   <v name="AVECCONST">      0.00000000      0.00000000      0.00000000</v>
  </separator>
  <separator name="response functions" >
   <i type="logical" name="LADDER"> F  </i>
   <i type="logical" name="LRPAFORCE"> F  </i>
   <i type="logical" name="LFXC"> F  </i>
   <i type="logical" name="LHARTREE"> T  </i>
   <i type="int" name="IBSE">     0</i>
   <v type="int" name="KPOINT">    -1     0     0     0</v>
   <i type="logical" name="LTCTE"> F  </i>
   <i type="logical" name="LTETE"> F  </i>
   <i type="logical" name="LTRIPLET"> F  </i>
   <i type="logical" name="LFXCEPS"> F  </i>
   <i type="logical" name="LFXHEG"> F  </i>
   <i type="int" name="NATURALO">     2</i>
   <i type="logical" name="L2ORDER"> F  </i>
   <i type="logical" name="LMP2LT"> F  </i>
   <i type="logical" name="LUSEW"> F  </i>
   <i name="ENCUTGW">     -2.00000000</i>
   <i name="ENCUTGWSOFT">     -2.00000000</i>
   <i name="ENCUTLF">     -1.00000000</i>
   <i type="int" name="LMAXMP2">    -1</i>
   <i name="SCISSOR">      0.00000000</i>
   <i type="int" name="NOMEGA">     0</i>
   <i type="int" name="NOMEGAR">     0</i>
   <i type="int" name="NBANDSGW">    -1</i>
   <i type="int" name="NBANDSO">    -1</i>
   <i type="int" name="NBANDSV">    -1</i>
   <i type="int" name="NELM">   300</i>
   <i type="int" name="NELMHF">     1</i>
   <i type="int" name="DIM">     3</i>
   <i type="int" name="ANTIRES">     0</i>
   <i name="OMEGAMAX">    -30.00000000</i>
   <i name="OMEGAMIN">    -30.00000000</i>
   <i name="OMEGATL">   -200.00000000</i>
   <i type="int" name="OMEGAGRID">   140</i>
   <i name="CSHIFT">     -0.10000000</i>
   <i type="logical" name="SELFENERGY"> F  </i>
   <i type="logical" name="LSPECTRAL"> F  </i>
   <i type="logical" name="LSPECTRALGW"> F  </i>
   <i type="logical" name="LSINGLES"> F  </i>
   <i type="logical" name="LFERMIGW"> F  </i>
   <i type="logical" name="ODDONLYGW"> F  </i>
   <i type="logical" name="EVENONLYGW"> F  </i>
   <i type="int" name="NKREDLFX">     1</i>
   <i type="int" name="NKREDLFY">     1</i>
   <i type="int" name="NKREDLFZ">     1</i>
   <i type="int" name="MAXMEM">  2800</i>
   <i type="int" name="TELESCOPE">     0</i>
   <i type="int" name="TAUPAR">     1</i>
   <i type="int" name="OMEGAPAR">    -1</i>
   <i name="LAMBDA">      1.00000000</i>
  </separator>
  <separator name="External order field" >
   <i name="OFIELD_KAPPA">      0.00000000</i>
   <v name="OFIELD_K">      0.00000000      0.00000000      0.00000000</v>
   <i name="OFIELD_Q6_NEAR">      0.00000000</i>
   <i name="OFIELD_Q6_FAR">      0.00000000</i>
   <i name="OFIELD_A">      0.00000000</i>
  </separator>
 </parameters>
 <atominfo>
  <atoms>       1 </atoms>
  <types>       1 </types>
  <array name="atoms" >
   <dimension dim="1">ion</dimension>
   <field type="string">element</field>
   <field type="int">atomtype</field>
   <set>
    <rc><c>La</c><c>   1</c></rc>
   </set>
  </array>
  <array name="atomtypes" >
   <dimension dim="1">type</dimension>
   <field type="int">atomspertype</field>
   <field type="string">element</field>
   <field>mass</field>
   <field>valence</field>
   <field type="string">pseudopotential</field>
   <set>
    <rc><c>   1</c><c>La</c><c>    138.90000000</c><c>     11.00000000</c><c>  PAW_PBE La 06Sep2000                  </c></rc>
   </set>
  </array>
 </atominfo>
 <structure name="initialpos" >
  <crystal>
   <varray name="basis" >
    <v>      10.00000000       0.00000000       0.00000000 </v>
    <v>       0.00000000      10.00000000       0.00000000 </v>
    <v>       0.00000000       0.00000000      10.00000000 </v>
   </varray>
   <i name="volume">   1000.00000000 </i>
   <varray name="rec_basis" >
    <v>       0.10000000       0.00000000       0.00000000 </v>
    <v>       0.00000000       0.10000000       0.00000000 </v>
    <v>       0.00000000       0.00000000       0.10000000 </v>
   </varray>
  </crystal>
  <varray name="positions" >
   <v>       0.50000000       0.50000000       0.50000000 </v>
  </varray>
 </structure>
 <calculation>
  <scstep>
   <time name="dav">    0.23    0.23</time>
   <time name="total">    1.26    1.27</time>
   <energy>
    <i name="alphaZ">      1.33529066 </i>
    <i name="ewald">   -247.18170407 </i>
    <i name="hartreedc">   -432.22558194 </i>
    <i name="XCdc">     27.74931211 </i>
    <i name="pawpsdc">    643.89481631 </i>
    <i name="pawaedc">   -643.22520187 </i>
    <i name="eentropy">     -0.01182128 </i>
    <i name="bandstr">    -77.58602327 </i>
    <i name="atom">    865.97535665 </i>
    <i name="e_fr_energy">    138.72444331 </i>
    <i name="e_wo_entrp">    138.73626458 </i>
    <i name="e_0_energy">    138.73035395 </i>
   </energy>
  </scstep>
  <scstep>
   <time name="dav">    0.41    0.41</time>
   <time name="total">    0.41    0.41</time>
   <energy>
    <i name="e_fr_energy">      1.03047369 </i>
    <i name="e_wo_entrp">      1.16481680 </i>
    <i name="e_0_energy">      1.09764524 </i>
   </energy>
  </scstep>
  <scstep>
   <time name="dav">    0.23    0.23</time>
   <time name="total">    0.23    0.23</time>
   <energy>
    <i name="e_fr_energy">     -2.80434950 </i>
    <i name="e_wo_entrp">     -2.66438589 </i>
    <i name="e_0_energy">     -2.73436770 </i>
   </energy>
  </scstep>
  <scstep>
   <time name="dav">    0.31    0.31</time>
   <time name="total">    0.31    0.31</time>
   <energy>
    <i name="e_fr_energy">     -2.84194240 </i>
    <i name="e_wo_entrp">     -2.70197578 </i>
    <i name="e_0_energy">     -2.77195909 </i>
   </energy>
  </scstep>
  <scstep>
   <time name="dav">    0.22    0.22</time>
   <time name="total">    0.46    0.46</time>
   <energy>
    <i name="e_fr_energy">     -2.84206380 </i>
    <i name="e_wo_entrp">     -2.70209718 </i>
    <i name="e_0_energy">     -2.77208049 </i>
   </energy>
  </scstep>
  <scstep>
   <time name="dav">    0.41    0.41</time>
   <time name="total">    1.66    1.66</time>
   <energy>
    <i name="e_fr_energy">     -8.68882124 </i>
    <i name="e_wo_entrp">     -8.66061053 </i>
    <i name="e_0_energy">     -8.67471589 </i>
   </energy>
  </scstep>
  <scstep>
   <time name="dav">    0.41    0.41</time>
   <time name="total">    1.65    1.65</time>
   <energy>
    <i name="e_fr_energy">     -4.17583372 </i>
    <i name="e_wo_entrp">     -4.14762424 </i>
    <i name="e_0_energy">     -4.16172898 </i>
   </energy>
  </scstep>
  <scstep>
   <time name="dav">    0.42    0.42</time>
   <time name="total">    1.66    1.66</time>
   <energy>
    <i name="e_fr_energy">     -2.70824904 </i>
    <i name="e_wo_entrp">     -2.68003956 </i>
    <i name="e_0_energy">     -2.69414430 </i>
   </energy>
  </scstep>
  <scstep>
   <time name="dav">    0.31    0.31</time>
   <time name="total">    1.56    1.56</time>
   <energy>
    <i name="e_fr_energy">     -1.45529996 </i>
    <i name="e_wo_entrp">     -1.42709048 </i>
    <i name="e_0_energy">     -1.44119522 </i>
   </energy>
  </scstep>
  <scstep>
   <time name="dav">    0.23    0.23</time>
   <time name="total">    1.47    1.47</time>
   <energy>
    <i name="e_fr_energy">     -0.55202623 </i>
    <i name="e_wo_entrp">     -0.52381675 </i>
    <i name="e_0_energy">     -0.53792149 </i>
   </energy>
  </scstep>
  <scstep>
   <time name="dav">    0.27    0.27</time>
   <time name="total">    1.51    1.51</time>
   <energy>
    <i name="e_fr_energy">     -0.51516840 </i>
    <i name="e_wo_entrp">     -0.46532078 </i>
    <i name="e_0_energy">     -0.49024459 </i>
   </energy>
  </scstep>
  <scstep>
   <time name="dav">    0.23    0.23</time>
   <time name="total">    1.47    1.47</time>
   <energy>
    <i name="e_fr_energy">     -0.55116716 </i>
    <i name="e_wo_entrp">     -0.52295768 </i>
    <i name="e_0_energy">     -0.53706242 </i>
   </energy>
  </scstep>
  <scstep>
   <time name="dav">    0.23    0.23</time>
   <time name="total">    1.47    1.47</time>
   <energy>
    <i name="e_fr_energy">     -0.56366338 </i>
    <i name="e_wo_entrp">     -0.51447836 </i>
    <i name="e_0_energy">     -0.53907087 </i>
   </energy>
  </scstep>
  <scstep>
   <time name="dav">    0.23    0.23</time>
   <time name="total">    1.47    1.47</time>
   <energy>
    <i name="e_fr_energy">     -0.86802658 </i>
    <i name="e_wo_entrp">     -0.76653818 </i>
    <i name="e_0_energy">     -0.81728238 </i>
   </energy>
  </scstep>
  <scstep>
   <time name="dav">    0.27    0.27</time>
   <time name="total">    1.50    1.50</time>
   <energy>
    <i name="e_fr_energy">     -0.78370325 </i>
    <i name="e_wo_entrp">     -0.73534863 </i>
    <i name="e_0_energy">     -0.75952594 </i>
   </energy>
  </scstep>
  <scstep>
   <time name="dav">    0.23    0.23</time>
   <time name="total">    1.48    1.48</time>
   <energy>
    <i name="e_fr_energy">     -1.06163188 </i>
    <i name="e_wo_entrp">     -0.98850854 </i>
    <i name="e_0_energy">     -1.02507021 </i>
   </energy>
  </scstep>
  <scstep>
   <time name="dav">    0.23    0.23</time>
   <time name="total">    1.50    1.50</time>
   <energy>
    <i name="e_fr_energy">     -0.93155775 </i>
    <i name="e_wo_entrp">     -0.88132164 </i>
    <i name="e_0_energy">     -0.90643970 </i>
   </energy>
  </scstep>
  <scstep>
   <time name="dav">    0.23    0.23</time>
   <time name="total">    1.47    1.47</time>
   <energy>
    <i name="e_fr_energy">     -0.84735062 </i>
    <i name="e_wo_entrp">     -0.80762902 </i>
    <i name="e_0_energy">     -0.82748982 </i>
   </energy>
  </scstep>
  <scstep>
   <time name="dav">    0.23    0.23</time>
   <time name="total">    1.49    1.49</time>
   <energy>
    <i name="e_fr_energy">     -0.98925842 </i>
    <i name="e_wo_entrp">     -0.93660367 </i>
    <i name="e_0_energy">     -0.96293105 </i>
   </energy>
  </scstep>
  <scstep>
   <time name="dav">    0.22    0.22</time>
   <time name="total">    1.46    1.46</time>
   <energy>
    <i name="e_fr_energy">     -0.67786798 </i>
    <i name="e_wo_entrp">     -0.67006989 </i>
    <i name="e_0_energy">     -0.67396894 </i>
   </energy>
  </scstep>
  <scstep>
   <time name="dav">    0.23    0.23</time>
   <time name="total">    1.46    1.46</time>
   <energy>
    <i name="e_fr_energy">     -0.54547263 </i>
    <i name="e_wo_entrp">     -0.50688669 </i>
    <i name="e_0_energy">     -0.52617966 </i>
   </energy>
  </scstep>
  <scstep>
   <time name="dav">    0.23    0.23</time>
   <time name="total">    1.46    1.46</time>
   <energy>
    <i name="e_fr_energy">     -0.54258397 </i>
    <i name="e_wo_entrp">     -0.51437449 </i>
    <i name="e_0_energy">     -0.52847923 </i>
   </energy>
  </scstep>
  <scstep>
   <time name="dav">    0.23    0.23</time>
   <time name="total">    1.47    1.47</time>
   <energy>
    <i name="e_fr_energy">     -0.56622148 </i>
    <i name="e_wo_entrp">     -0.51486502 </i>
    <i name="e_0_energy">     -0.54054325 </i>
   </energy>
  </scstep>
  <scstep>
   <time name="dav">    0.23    0.23</time>
   <time name="total">    1.48    1.48</time>
   <energy>
    <i name="e_fr_energy">     -0.50217633 </i>
    <i name="e_wo_entrp">     -0.44606867 </i>
    <i name="e_0_energy">     -0.47412250 </i>
   </energy>
  </scstep>
  <scstep>
   <time name="dav">    0.23    0.23</time>
   <time name="total">    1.46    1.46</time>
   <energy>
    <i name="e_fr_energy">     -0.48621769 </i>
    <i name="e_wo_entrp">     -0.44658894 </i>
    <i name="e_0_energy">     -0.46640332 </i>
   </energy>
  </scstep>
  <scstep>
   <time name="dav">    0.23    0.23</time>
   <time name="total">    1.46    1.46</time>
   <energy>
    <i name="e_fr_energy">     -0.52824964 </i>
    <i name="e_wo_entrp">     -0.47484968 </i>
    <i name="e_0_energy">     -0.50154966 </i>
   </energy>
  </scstep>
  <scstep>
   <time name="dav">    0.23    0.23</time>
   <time name="total">    1.47    1.47</time>
   <energy>
    <i name="e_fr_energy">     -0.52202159 </i>
    <i name="e_wo_entrp">     -0.47688841 </i>
    <i name="e_0_energy">     -0.49945500 </i>
   </energy>
  </scstep>
  <scstep>
   <time name="dav">    0.23    0.23</time>
   <time name="total">    1.47    1.47</time>
   <energy>
    <i name="e_fr_energy">     -0.51923904 </i>
    <i name="e_wo_entrp">     -0.47392768 </i>
    <i name="e_0_energy">     -0.49658336 </i>
   </energy>
  </scstep>
  <scstep>
   <time name="dav">    0.23    0.23</time>
   <time name="total">    1.47    1.47</time>
   <energy>
    <i name="e_fr_energy">     -0.53822014 </i>
    <i name="e_wo_entrp">     -0.50016009 </i>
    <i name="e_0_energy">     -0.51919011 </i>
   </energy>
  </scstep>
  <scstep>
   <time name="dav">    0.22    0.22</time>
   <time name="total">    1.45    1.45</time>
   <energy>
    <i name="e_fr_energy">     -0.52115775 </i>
    <i name="e_wo_entrp">     -0.47703666 </i>
    <i name="e_0_energy">     -0.49909720 </i>
   </energy>
  </scstep>
  <scstep>
   <time name="dav">    0.23    0.23</time>
   <time name="total">    1.47    1.47</time>
   <energy>
    <i name="e_fr_energy">     -0.53326347 </i>
    <i name="e_wo_entrp">     -0.50211561 </i>
    <i name="e_0_energy">     -0.51768954 </i>
   </energy>
  </scstep>
  <scstep>
   <time name="dav">    0.23    0.23</time>
   <time name="total">    1.46    1.46</time>
   <energy>
    <i name="e_fr_energy">     -0.52186027 </i>
    <i name="e_wo_entrp">     -0.48157829 </i>
    <i name="e_0_energy">     -0.50171928 </i>
   </energy>
  </scstep>
  <scstep>
   <time name="dav">    0.23    0.23</time>
   <time name="total">    1.48    1.48</time>
   <energy>
    <i name="e_fr_energy">     -0.54579484 </i>
    <i name="e_wo_entrp">     -0.52158556 </i>
    <i name="e_0_energy">     -0.53369020 </i>
   </energy>
  </scstep>
  <scstep>
   <time name="dav">    0.23    0.23</time>
   <time name="total">    1.46    1.46</time>
   <energy>
    <i name="e_fr_energy">     -0.53939122 </i>
    <i name="e_wo_entrp">     -0.50057304 </i>
    <i name="e_0_energy">     -0.51998213 </i>
   </energy>
  </scstep>
  <scstep>
   <time name="dav">    0.23    0.23</time>
   <time name="total">    1.46    1.46</time>
   <energy>
    <i name="e_fr_energy">     -0.54345243 </i>
    <i name="e_wo_entrp">     -0.51853832 </i>
    <i name="e_0_energy">     -0.53099538 </i>
   </energy>
  </scstep>
  <scstep>
   <time name="dav">    0.23    0.23</time>
   <time name="total">    1.46    1.47</time>
   <energy>
    <i name="e_fr_energy">     -0.53758838 </i>
    <i name="e_wo_entrp">     -0.49882992 </i>
    <i name="e_0_energy">     -0.51820915 </i>
   </energy>
  </scstep>
  <scstep>
   <time name="dav">    0.23    0.23</time>
   <time name="total">    1.47    1.47</time>
   <energy>
    <i name="e_fr_energy">     -0.53507757 </i>
    <i name="e_wo_entrp">     -0.50672899 </i>
    <i name="e_0_energy">     -0.52090328 </i>
   </energy>
  </scstep>
  <scstep>
   <time name="dav">    0.23    0.23</time>
   <time name="total">    1.48    1.50</time>
   <energy>
    <i name="e_fr_energy">     -0.53087841 </i>
    <i name="e_wo_entrp">     -0.49199071 </i>
    <i name="e_0_energy">     -0.51143456 </i>
   </energy>
  </scstep>
  <scstep>
   <time name="dav">    0.23    0.23</time>
   <time name="total">    1.46    1.46</time>
   <energy>
    <i name="e_fr_energy">     -0.52825475 </i>
    <i name="e_wo_entrp">     -0.49647757 </i>
    <i name="e_0_energy">     -0.51236616 </i>
   </energy>
  </scstep>
  <scstep>
   <time name="dav">    0.23    0.23</time>
   <time name="total">    1.46    1.46</time>
   <energy>
    <i name="e_fr_energy">     -0.52491464 </i>
    <i name="e_wo_entrp">     -0.48576311 </i>
    <i name="e_0_energy">     -0.50533888 </i>
   </energy>
  </scstep>
  <scstep>
   <time name="dav">    0.23    0.23</time>
   <time name="total">    1.46    1.46</time>
   <energy>
    <i name="e_fr_energy">     -0.52325056 </i>
    <i name="e_wo_entrp">     -0.48846420 </i>
    <i name="e_0_energy">     -0.50585738 </i>
   </energy>
  </scstep>
  <scstep>
   <time name="dav">    0.23    0.23</time>
   <time name="total">    1.47    1.47</time>
   <energy>
    <i name="e_fr_energy">     -0.52079324 </i>
    <i name="e_wo_entrp">     -0.48134675 </i>
    <i name="e_0_energy">     -0.50107000 </i>
   </energy>
  </scstep>
  <scstep>
   <time name="dav">    0.23    0.23</time>
   <time name="total">    1.47    1.47</time>
   <energy>
    <i name="e_fr_energy">     -0.52036736 </i>
    <i name="e_wo_entrp">     -0.48320281 </i>
    <i name="e_0_energy">     -0.50178509 </i>
   </energy>
  </scstep>
  <scstep>
   <time name="dav">    0.23    0.23</time>
   <time name="total">    1.47    1.47</time>
   <energy>
    <i name="e_fr_energy">     -0.51611223 </i>
    <i name="e_wo_entrp">     -0.47629966 </i>
    <i name="e_0_energy">     -0.49620594 </i>
   </energy>
  </scstep>
  <scstep>
   <time name="dav">    0.23    0.23</time>
   <time name="total">    1.46    1.46</time>
   <energy>
    <i name="e_fr_energy">     -0.51731194 </i>
    <i name="e_wo_entrp">     -0.47773388 </i>
    <i name="e_0_energy">     -0.49752291 </i>
   </energy>
  </scstep>
  <scstep>
   <time name="dav">    0.22    0.22</time>
   <time name="total">    1.46    1.46</time>
   <energy>
    <i name="e_fr_energy">     -0.51216341 </i>
    <i name="e_wo_entrp">     -0.47190594 </i>
    <i name="e_0_energy">     -0.49203468 </i>
   </energy>
  </scstep>
  <scstep>
   <time name="dav">    0.22    0.22</time>
   <time name="total">    1.48    1.48</time>
   <energy>
    <i name="e_fr_energy">     -0.51539533 </i>
    <i name="e_wo_entrp">     -0.47368495 </i>
    <i name="e_0_energy">     -0.49454014 </i>
   </energy>
  </scstep>
  <scstep>
   <time name="dav">    0.23    0.23</time>
   <time name="total">    1.48    1.48</time>
   <energy>
    <i name="e_fr_energy">     -0.50632824 </i>
    <i name="e_wo_entrp">     -0.46523373 </i>
    <i name="e_0_energy">     -0.48578098 </i>
   </energy>
  </scstep>
  <scstep>
   <time name="dav">    0.23    0.23</time>
   <time name="total">    1.46    1.47</time>
   <energy>
    <i name="e_fr_energy">     -0.51158346 </i>
    <i name="e_wo_entrp">     -0.46707169 </i>
    <i name="e_0_energy">     -0.48932758 </i>
   </energy>
  </scstep>
  <scstep>
   <time name="dav">    0.23    0.23</time>
   <time name="total">    1.47    1.48</time>
   <energy>
    <i name="e_fr_energy">     -0.50117530 </i>
    <i name="e_wo_entrp">     -0.45869981 </i>
    <i name="e_0_energy">     -0.47993755 </i>
   </energy>
  </scstep>
  <scstep>
   <time name="dav">    0.23    0.23</time>
   <time name="total">    1.47    1.47</time>
   <energy>
    <i name="e_fr_energy">     -0.49706516 </i>
    <i name="e_wo_entrp">     -0.46703166 </i>
    <i name="e_0_energy">     -0.48204841 </i>
   </energy>
  </scstep>
  <scstep>
   <time name="dav">    0.23    0.23</time>
   <time name="total">    1.47    1.47</time>
   <energy>
    <i name="e_fr_energy">     -0.49142722 </i>
    <i name="e_wo_entrp">     -0.44630031 </i>
    <i name="e_0_energy">     -0.46886377 </i>
   </energy>
  </scstep>
  <scstep>
   <time name="dav">    0.23    0.23</time>
   <time name="total">    1.46    1.46</time>
   <energy>
    <i name="e_fr_energy">     -0.49367868 </i>
    <i name="e_wo_entrp">     -0.44371005 </i>
    <i name="e_0_energy">     -0.46869436 </i>
   </energy>
  </scstep>
  <scstep>
   <time name="dav">    0.23    0.23</time>
   <time name="total">    1.46    1.46</time>
   <energy>
    <i name="e_fr_energy">     -0.49359613 </i>
    <i name="e_wo_entrp">     -0.45209857 </i>
    <i name="e_0_energy">     -0.47284735 </i>
   </energy>
  </scstep>
  <scstep>
   <time name="dav">    0.23    0.23</time>
   <time name="total">    1.48    1.48</time>
   <energy>
    <i name="e_fr_energy">     -0.49428870 </i>
    <i name="e_wo_entrp">     -0.44381364 </i>
    <i name="e_0_energy">     -0.46905117 </i>
   </energy>
  </scstep>
  <scstep>
   <time name="dav">    0.22    0.22</time>
   <time name="total">    1.47    1.47</time>
   <energy>
    <i name="e_fr_energy">     -0.49347354 </i>
    <i name="e_wo_entrp">     -0.45472182 </i>
    <i name="e_0_energy">     -0.47409768 </i>
   </energy>
  </scstep>
  <scstep>
   <time name="dav">    0.23    0.23</time>
   <time name="total">    1.47    1.47</time>
   <energy>
    <i name="e_fr_energy">     -0.49355879 </i>
    <i name="e_wo_entrp">     -0.45182539 </i>
    <i name="e_0_energy">     -0.47269209 </i>
   </energy>
  </scstep>
  <scstep>
   <time name="dav">    0.22    0.23</time>
   <time name="total">    1.47    1.50</time>
   <energy>
    <i name="e_fr_energy">     -0.49342804 </i>
    <i name="e_wo_entrp">     -0.44960658 </i>
    <i name="e_0_energy">     -0.47151731 </i>
   </energy>
  </scstep>
  <scstep>
   <time name="dav">    0.22    0.23</time>
   <time name="total">    1.49    1.49</time>
   <energy>
    <i name="e_fr_energy">     -0.49326721 </i>
    <i name="e_wo_entrp">     -0.44747492 </i>
    <i name="e_0_energy">     -0.47037106 </i>
   </energy>
  </scstep>
  <scstep>
   <time name="dav">    0.23    0.23</time>
   <time name="total">    1.48    1.48</time>
   <energy>
    <i name="e_fr_energy">     -0.49309839 </i>
    <i name="e_wo_entrp">     -0.44821003 </i>
    <i name="e_0_energy">     -0.47065421 </i>
   </energy>
  </scstep>
  <scstep>
   <time name="dav">    0.23    0.23</time>
   <time name="total">    1.46    1.46</time>
   <energy>
    <i name="e_fr_energy">     -0.56467945 </i>
    <i name="e_wo_entrp">     -0.51160003 </i>
    <i name="e_0_energy">     -0.53813974 </i>
   </energy>
  </scstep>
  <scstep>
   <time name="dav">    0.23    0.23</time>
   <time name="total">    1.46    1.46</time>
   <energy>
    <i name="e_fr_energy">     -0.55445569 </i>
    <i name="e_wo_entrp">     -0.50254075 </i>
    <i name="e_0_energy">     -0.52849822 </i>
   </energy>
  </scstep>
  <scstep>
   <time name="dav">    0.23    0.23</time>
   <time name="total">    1.47    1.47</time>
   <energy>
    <i name="e_fr_energy">     -0.48178326 </i>
    <i name="e_wo_entrp">     -0.43070105 </i>
    <i name="e_0_energy">     -0.45624216 </i>
   </energy>
  </scstep>
  <scstep>
   <time name="dav">    0.22    0.22</time>
   <time name="total">    1.46    1.46</time>
   <energy>
    <i name="e_fr_energy">     -0.48436020 </i>
    <i name="e_wo_entrp">     -0.45125265 </i>
    <i name="e_0_energy">     -0.46780642 </i>
   </energy>
  </scstep>
  <scstep>
   <time name="dav">    0.23    0.23</time>
   <time name="total">    1.46    1.46</time>
   <energy>
    <i name="e_fr_energy">     -0.49592386 </i>
    <i name="e_wo_entrp">     -0.46178988 </i>
    <i name="e_0_energy">     -0.47885687 </i>
   </energy>
  </scstep>
  <scstep>
   <time name="dav">    0.23    0.23</time>
   <time name="total">    1.46    1.47</time>
   <energy>
    <i name="e_fr_energy">     -0.49360082 </i>
    <i name="e_wo_entrp">     -0.44812981 </i>
    <i name="e_0_energy">     -0.47086532 </i>
   </energy>
  </scstep>
  <scstep>
   <time name="dav">    0.22    0.22</time>
   <time name="total">    1.46    1.46</time>
   <energy>
    <i name="e_fr_energy">     -0.49426041 </i>
    <i name="e_wo_entrp">     -0.44272189 </i>
    <i name="e_0_energy">     -0.46849115 </i>
   </energy>
  </scstep>
  <scstep>
   <time name="dav">    0.23    0.23</time>
   <time name="total">    1.47    1.47</time>
   <energy>
    <i name="e_fr_energy">     -0.49319842 </i>
    <i name="e_wo_entrp">     -0.44761448 </i>
    <i name="e_0_energy">     -0.47040645 </i>
   </energy>
  </scstep>
  <scstep>
   <time name="dav">    0.23    0.23</time>
   <time name="total">    1.46    1.46</time>
   <energy>
    <i name="e_fr_energy">     -0.49329195 </i>
    <i name="e_wo_entrp">     -0.44567621 </i>
    <i name="e_0_energy">     -0.46948408 </i>
   </energy>
  </scstep>
  <scstep>
   <time name="dav">    0.23    0.23</time>
   <time name="total">    1.47    1.47</time>
   <energy>
    <i name="e_fr_energy">     -0.49320940 </i>
    <i name="e_wo_entrp">     -0.44791108 </i>
    <i name="e_0_energy">     -0.47056024 </i>
   </energy>
  </scstep>
  <scstep>
   <time name="dav">    0.23    0.23</time>
   <time name="total">    1.25    1.25</time>
   <energy>
    <i name="alphaZ">      1.33529066 </i>
    <i name="ewald">   -247.18170407 </i>
    <i name="hartreedc">   -436.86347991 </i>
    <i name="XCdc">     27.99941421 </i>
    <i name="pawpsdc">    648.06565686 </i>
    <i name="pawaedc">   -648.36557078 </i>
    <i name="eentropy">     -0.04622682 </i>
    <i name="bandstr">   -211.41196873 </i>
    <i name="atom">    865.97535665 </i>
    <i name="e_fr_energy">     -0.49323192 </i>
    <i name="e_wo_entrp">     -0.44700511 </i>
    <i name="e_0_energy">     -0.47011851 </i>
   </energy>
  </scstep>
  <structure>
   <crystal>
    <varray name="basis" >
     <v>      10.00000000       0.00000000       0.00000000 </v>
     <v>       0.00000000      10.00000000       0.00000000 </v>
     <v>       0.00000000       0.00000000      10.00000000 </v>
    </varray>
    <i name="volume">   1000.00000000 </i>
    <varray name="rec_basis" >
     <v>       0.10000000       0.00000000       0.00000000 </v>
     <v>       0.00000000       0.10000000       0.00000000 </v>
     <v>       0.00000000       0.00000000       0.10000000 </v>
    </varray>
   </crystal>
   <varray name="positions" >
    <v>       0.50000000       0.50000000       0.50000000 </v>
   </varray>
  </structure>
  <varray name="forces" >
   <v>       0.00000000       0.00000000       0.00000000 </v>
  </varray>
  <varray name="stress" >
   <v>      -0.17869335      -0.00000000       0.00000000 </v>
   <v>      -0.00000000      -0.17869335      -0.00000000 </v>
   <v>      -0.00000000      -0.00000000      -0.17869335 </v>
  </varray>
  <energy>
   <i name="e_fr_energy">     -0.49323192 </i>
   <i name="e_wo_entrp">     -0.47011851 </i>
   <i name="e_0_energy">     -0.04622682 </i>
  </energy>
  <time name="totalsc">  108.05  108.28</time>
  <eigenvalues>
   <array>
    <dimension dim="1">band</dimension>
    <dimension dim="2">kpoint</dimension>
    <dimension dim="3">spin</dimension>
    <field>eigene</field>
    <field>occ</field>
    <set>
     <set comment="spin 1">
      <set comment="kpoint 1">
       <r>  -37.7684    1.0000 </r>
       <r>  -21.3764    1.0000 </r>
       <r>  -21.3764    1.0000 </r>
       <r>  -21.3764    1.0000 </r>
       <r>   -3.2720    1.0000 </r>
       <r>   -2.6881    0.3705 </r>
       <r>   -2.6881    0.3705 </r>
       <r>   -2.6403    0.0463 </r>
       <r>   -2.6403    0.0463 </r>
       <r>   -2.6403    0.0463 </r>
       <r>   -2.6377    0.0394 </r>
       <r>   -2.6377    0.0394 </r>
       <r>   -2.6377    0.0394 </r>
       <r>   -2.5964    0.0017 </r>
       <r>   -2.3780    0.0000 </r>
       <r>   -2.3780    0.0000 </r>
       <r>   -2.3780    0.0000 </r>
       <r>   -0.7407    0.0000 </r>
       <r>   -0.7407    0.0000 </r>
       <r>   -0.7407    0.0000 </r>
       <r>    0.0234    0.0000 </r>
       <r>    0.8140    0.0000 </r>
       <r>    0.8140    0.0000 </r>
       <r>    1.7009    0.0000 </r>
       <r>    1.7009    0.0000 </r>
       <r>    1.7009    0.0000 </r>
       <r>    1.9991    0.0000 </r>
       <r>    2.1604    0.0000 </r>
       <r>    2.1604    0.0000 </r>
       <r>    2.1604    0.0000 </r>
       <r>    2.1647    0.0000 </r>
       <r>    2.1647    0.0000 </r>
       <r>    2.1647    0.0000 </r>
       <r>    2.4439    0.0000 </r>
       <r>    2.4439    0.0000 </r>
       <r>    3.2377    0.0000 </r>
      </set>
     </set>
     <set comment="spin 2">
      <set comment="kpoint 1">
       <r>  -37.3580    1.0000 </r>
       <r>  -21.0854    1.0000 </r>
       <r>  -21.0854    1.0000 </r>
       <r>  -21.0854    1.0000 </r>
       <r>   -2.9527    1.0000 </r>
       <r>   -2.2008    0.0000 </r>
       <r>   -2.2008    0.0000 </r>
       <r>   -2.2008    0.0000 </r>
       <r>   -2.1756    0.0000 </r>
       <r>   -2.1014    0.0000 </r>
       <r>   -2.1014    0.0000 </r>
       <r>   -2.1014    0.0000 </r>
       <r>   -2.0576    0.0000 </r>
       <r>   -2.0576    0.0000 </r>
       <r>   -2.0546    0.0000 </r>
       <r>   -2.0546    0.0000 </r>
       <r>   -2.0546    0.0000 </r>
       <r>   -0.6063    0.0000 </r>
       <r>   -0.6063    0.0000 </r>
       <r>   -0.6063    0.0000 </r>
       <r>    0.0874    0.0000 </r>
       <r>    0.9255    0.0000 </r>
       <r>    0.9255    0.0000 </r>
       <r>    1.7450    0.0000 </r>
       <r>    1.7450    0.0000 </r>
       <r>    1.7450    0.0000 </r>
       <r>    2.0804    0.0000 </r>
       <r>    2.1798    0.0000 </r>
       <r>    2.1798    0.0000 </r>
       <r>    2.1798    0.0000 </r>
       <r>    2.1936    0.0000 </r>
       <r>    2.1936    0.0000 </r>
       <r>    2.1936    0.0000 </r>
       <r>    2.5079    0.0000 </r>
       <r>    2.5079    0.0000 </r>
       <r>    3.2076    0.0000 </r>
      </set>
     </set>
    </set>
   </array>
  </eigenvalues>
  <separator name="orbital magnetization" >
   <v name="MAGDIPOLOUT">      0.00000000      0.00000000      0.00000000</v>
  </separator>
  <dos>
   <i name="efermi">     -2.66209537 </i>
   <total>
    <array>
     <dimension dim="1">gridpoints</dimension>
     <dimension dim="2">spin</dimension>
     <field>energy</field>
     <field>total</field>
     <field>integrated</field>
     <set>
      <set comment="spin 1">
       <r>   -39.8187     0.0000     0.0000 </r>
       <r>   -39.6684     0.0000     0.0000 </r>
       <r>   -39.5180     0.0000     0.0000 </r>
       <r>   -39.3677     0.0000     0.0000 </r>
       <r>   -39.2173     0.0000     0.0000 </r>
       <r>   -39.0670     0.0000     0.0000 </r>
       <r>   -38.9166     0.0000     0.0000 </r>
       <r>   -38.7662     0.0000     0.0000 </r>
       <r>   -38.6159     0.0000     0.0000 </r>
       <r>   -38.4655     0.0000     0.0000 </r>
       <r>   -38.3152     0.0000     0.0000 </r>
       <r>   -38.1648     0.0000     0.0000 </r>
       <r>   -38.0145     0.0000     0.0000 </r>
       <r>   -37.8641     0.0453     0.0068 </r>
       <r>   -37.7138    12.4451     1.8780 </r>
       <r>   -37.5634     0.8114     2.0000 </r>
       <r>   -37.4130     0.0000     2.0000 </r>
       <r>   -37.2627     0.0000     2.0000 </r>
       <r>   -37.1123     0.0000     2.0000 </r>
       <r>   -36.9620     0.0000     2.0000 </r>
       <r>   -36.8116     0.0000     2.0000 </r>
       <r>   -36.6613     0.0000     2.0000 </r>
       <r>   -36.5109     0.0000     2.0000 </r>
       <r>   -36.3606     0.0000     2.0000 </r>
       <r>   -36.2102     0.0000     2.0000 </r>
       <r>   -36.0598     0.0000     2.0000 </r>
       <r>   -35.9095     0.0000     2.0000 </r>
       <r>   -35.7591     0.0000     2.0000 </r>
       <r>   -35.6088     0.0000     2.0000 </r>
       <r>   -35.4584     0.0000     2.0000 </r>
       <r>   -35.3081     0.0000     2.0000 </r>
       <r>   -35.1577     0.0000     2.0000 </r>
       <r>   -35.0074     0.0000     2.0000 </r>
       <r>   -34.8570     0.0000     2.0000 </r>
       <r>   -34.7066     0.0000     2.0000 </r>
       <r>   -34.5563     0.0000     2.0000 </r>
       <r>   -34.4059     0.0000     2.0000 </r>
       <r>   -34.2556     0.0000     2.0000 </r>
       <r>   -34.1052     0.0000     2.0000 </r>
       <r>   -33.9549     0.0000     2.0000 </r>
       <r>   -33.8045     0.0000     2.0000 </r>
       <r>   -33.6542     0.0000     2.0000 </r>
       <r>   -33.5038     0.0000     2.0000 </r>
       <r>   -33.3534     0.0000     2.0000 </r>
       <r>   -33.2031     0.0000     2.0000 </r>
       <r>   -33.0527     0.0000     2.0000 </r>
       <r>   -32.9024     0.0000     2.0000 </r>
       <r>   -32.7520     0.0000     2.0000 </r>
       <r>   -32.6017     0.0000     2.0000 </r>
       <r>   -32.4513     0.0000     2.0000 </r>
       <r>   -32.3010     0.0000     2.0000 </r>
       <r>   -32.1506     0.0000     2.0000 </r>
       <r>   -32.0002     0.0000     2.0000 </r>
       <r>   -31.8499     0.0000     2.0000 </r>
       <r>   -31.6995     0.0000     2.0000 </r>
       <r>   -31.5492     0.0000     2.0000 </r>
       <r>   -31.3988     0.0000     2.0000 </r>
       <r>   -31.2485     0.0000     2.0000 </r>
       <r>   -31.0981     0.0000     2.0000 </r>
       <r>   -30.9478     0.0000     2.0000 </r>
       <r>   -30.7974     0.0000     2.0000 </r>
       <r>   -30.6470     0.0000     2.0000 </r>
       <r>   -30.4967     0.0000     2.0000 </r>
       <r>   -30.3463     0.0000     2.0000 </r>
       <r>   -30.1960     0.0000     2.0000 </r>
       <r>   -30.0456     0.0000     2.0000 </r>
       <r>   -29.8953     0.0000     2.0000 </r>
       <r>   -29.7449     0.0000     2.0000 </r>
       <r>   -29.5945     0.0000     2.0000 </r>
       <r>   -29.4442     0.0000     2.0000 </r>
       <r>   -29.2938     0.0000     2.0000 </r>
       <r>   -29.1435     0.0000     2.0000 </r>
       <r>   -28.9931     0.0000     2.0000 </r>
       <r>   -28.8428     0.0000     2.0000 </r>
       <r>   -28.6924     0.0000     2.0000 </r>
       <r>   -28.5421     0.0000     2.0000 </r>
       <r>   -28.3917     0.0000     2.0000 </r>
       <r>   -28.2413     0.0000     2.0000 </r>
       <r>   -28.0910     0.0000     2.0000 </r>
       <r>   -27.9406     0.0000     2.0000 </r>
       <r>   -27.7903     0.0000     2.0000 </r>
       <r>   -27.6399     0.0000     2.0000 </r>
       <r>   -27.4896     0.0000     2.0000 </r>
       <r>   -27.3392     0.0000     2.0000 </r>
       <r>   -27.1889     0.0000     2.0000 </r>
       <r>   -27.0385     0.0000     2.0000 </r>
       <r>   -26.8881     0.0000     2.0000 </r>
       <r>   -26.7378     0.0000     2.0000 </r>
       <r>   -26.5874     0.0000     2.0000 </r>
       <r>   -26.4371     0.0000     2.0000 </r>
       <r>   -26.2867     0.0000     2.0000 </r>
       <r>   -26.1364     0.0000     2.0000 </r>
       <r>   -25.9860     0.0000     2.0000 </r>
       <r>   -25.8357     0.0000     2.0000 </r>
       <r>   -25.6853     0.0000     2.0000 </r>
       <r>   -25.5349     0.0000     2.0000 </r>
       <r>   -25.3846     0.0000     2.0000 </r>
       <r>   -25.2342     0.0000     2.0000 </r>
       <r>   -25.0839     0.0000     2.0000 </r>
       <r>   -24.9335     0.0000     2.0000 </r>
       <r>   -24.7832     0.0000     2.0000 </r>
       <r>   -24.6328     0.0000     2.0000 </r>
       <r>   -24.4825     0.0000     2.0000 </r>
       <r>   -24.3321     0.0000     2.0000 </r>
       <r>   -24.1817     0.0000     2.0000 </r>
       <r>   -24.0314     0.0000     2.0000 </r>
       <r>   -23.8810     0.0000     2.0000 </r>
       <r>   -23.7307     0.0000     2.0000 </r>
       <r>   -23.5803     0.0000     2.0000 </r>
       <r>   -23.4300     0.0000     2.0000 </r>
       <r>   -23.2796     0.0000     2.0000 </r>
       <r>   -23.1293     0.0000     2.0000 </r>
       <r>   -22.9789     0.0000     2.0000 </r>
       <r>   -22.8285     0.0000     2.0000 </r>
       <r>   -22.6782     0.0000     2.0000 </r>
       <r>   -22.5278     0.0000     2.0000 </r>
       <r>   -22.3775     0.0000     2.0000 </r>
       <r>   -22.2271     0.0000     2.0000 </r>
       <r>   -22.0768     0.0000     2.0000 </r>
       <r>   -21.9264     0.0000     2.0000 </r>
       <r>   -21.7761     0.0000     2.0000 </r>
       <r>   -21.6257     0.0000     2.0000 </r>
       <r>   -21.4753     0.1024     2.0154 </r>
       <r>   -21.3250    36.8907     7.5621 </r>
       <r>   -21.1746     2.9124     8.0000 </r>
       <r>   -21.0243     0.0000     8.0000 </r>
       <r>   -20.8739     0.0000     8.0000 </r>
       <r>   -20.7236     0.0000     8.0000 </r>
       <r>   -20.5732     0.0000     8.0000 </r>
       <r>   -20.4229     0.0000     8.0000 </r>
       <r>   -20.2725     0.0000     8.0000 </r>
       <r>   -20.1221     0.0000     8.0000 </r>
       <r>   -19.9718     0.0000     8.0000 </r>
       <r>   -19.8214     0.0000     8.0000 </r>
       <r>   -19.6711     0.0000     8.0000 </r>
       <r>   -19.5207     0.0000     8.0000 </r>
       <r>   -19.3704     0.0000     8.0000 </r>
       <r>   -19.2200     0.0000     8.0000 </r>
       <r>   -19.0697     0.0000     8.0000 </r>
       <r>   -18.9193     0.0000     8.0000 </r>
       <r>   -18.7689     0.0000     8.0000 </r>
       <r>   -18.6186     0.0000     8.0000 </r>
       <r>   -18.4682     0.0000     8.0000 </r>
       <r>   -18.3179     0.0000     8.0000 </r>
       <r>   -18.1675     0.0000     8.0000 </r>
       <r>   -18.0172     0.0000     8.0000 </r>
       <r>   -17.8668     0.0000     8.0000 </r>
       <r>   -17.7165     0.0000     8.0000 </r>
       <r>   -17.5661     0.0000     8.0000 </r>
       <r>   -17.4157     0.0000     8.0000 </r>
       <r>   -17.2654     0.0000     8.0000 </r>
       <r>   -17.1150     0.0000     8.0000 </r>
       <r>   -16.9647     0.0000     8.0000 </r>
       <r>   -16.8143     0.0000     8.0000 </r>
       <r>   -16.6640     0.0000     8.0000 </r>
       <r>   -16.5136     0.0000     8.0000 </r>
       <r>   -16.3633     0.0000     8.0000 </r>
       <r>   -16.2129     0.0000     8.0000 </r>
       <r>   -16.0625     0.0000     8.0000 </r>
       <r>   -15.9122     0.0000     8.0000 </r>
       <r>   -15.7618     0.0000     8.0000 </r>
       <r>   -15.6115     0.0000     8.0000 </r>
       <r>   -15.4611     0.0000     8.0000 </r>
       <r>   -15.3108     0.0000     8.0000 </r>
       <r>   -15.1604     0.0000     8.0000 </r>
       <r>   -15.0101     0.0000     8.0000 </r>
       <r>   -14.8597     0.0000     8.0000 </r>
       <r>   -14.7093     0.0000     8.0000 </r>
       <r>   -14.5590     0.0000     8.0000 </r>
       <r>   -14.4086     0.0000     8.0000 </r>
       <r>   -14.2583     0.0000     8.0000 </r>
       <r>   -14.1079     0.0000     8.0000 </r>
       <r>   -13.9576     0.0000     8.0000 </r>
       <r>   -13.8072     0.0000     8.0000 </r>
       <r>   -13.6569     0.0000     8.0000 </r>
       <r>   -13.5065     0.0000     8.0000 </r>
       <r>   -13.3561     0.0000     8.0000 </r>
       <r>   -13.2058     0.0000     8.0000 </r>
       <r>   -13.0554     0.0000     8.0000 </r>
       <r>   -12.9051     0.0000     8.0000 </r>
       <r>   -12.7547     0.0000     8.0000 </r>
       <r>   -12.6044     0.0000     8.0000 </r>
       <r>   -12.4540     0.0000     8.0000 </r>
       <r>   -12.3037     0.0000     8.0000 </r>
       <r>   -12.1533     0.0000     8.0000 </r>
       <r>   -12.0029     0.0000     8.0000 </r>
       <r>   -11.8526     0.0000     8.0000 </r>
       <r>   -11.7022     0.0000     8.0000 </r>
       <r>   -11.5519     0.0000     8.0000 </r>
       <r>   -11.4015     0.0000     8.0000 </r>
       <r>   -11.2512     0.0000     8.0000 </r>
       <r>   -11.1008     0.0000     8.0000 </r>
       <r>   -10.9505     0.0000     8.0000 </r>
       <r>   -10.8001     0.0000     8.0000 </r>
       <r>   -10.6497     0.0000     8.0000 </r>
       <r>   -10.4994     0.0000     8.0000 </r>
       <r>   -10.3490     0.0000     8.0000 </r>
       <r>   -10.1987     0.0000     8.0000 </r>
       <r>   -10.0483     0.0000     8.0000 </r>
       <r>    -9.8980     0.0000     8.0000 </r>
       <r>    -9.7476     0.0000     8.0000 </r>
       <r>    -9.5972     0.0000     8.0000 </r>
       <r>    -9.4469     0.0000     8.0000 </r>
       <r>    -9.2965     0.0000     8.0000 </r>
       <r>    -9.1462     0.0000     8.0000 </r>
       <r>    -8.9958     0.0000     8.0000 </r>
       <r>    -8.8455     0.0000     8.0000 </r>
       <r>    -8.6951     0.0000     8.0000 </r>
       <r>    -8.5448     0.0000     8.0000 </r>
       <r>    -8.3944     0.0000     8.0000 </r>
       <r>    -8.2440     0.0000     8.0000 </r>
       <r>    -8.0937     0.0000     8.0000 </r>
       <r>    -7.9433     0.0000     8.0000 </r>
       <r>    -7.7930     0.0000     8.0000 </r>
       <r>    -7.6426     0.0000     8.0000 </r>
       <r>    -7.4923     0.0000     8.0000 </r>
       <r>    -7.3419     0.0000     8.0000 </r>
       <r>    -7.1916     0.0000     8.0000 </r>
       <r>    -7.0412     0.0000     8.0000 </r>
       <r>    -6.8908     0.0000     8.0000 </r>
       <r>    -6.7405     0.0000     8.0000 </r>
       <r>    -6.5901     0.0000     8.0000 </r>
       <r>    -6.4398     0.0000     8.0000 </r>
       <r>    -6.2894     0.0000     8.0000 </r>
       <r>    -6.1391     0.0000     8.0000 </r>
       <r>    -5.9887     0.0000     8.0000 </r>
       <r>    -5.8384     0.0000     8.0000 </r>
       <r>    -5.6880     0.0000     8.0000 </r>
       <r>    -5.5376     0.0000     8.0000 </r>
       <r>    -5.3873     0.0000     8.0000 </r>
       <r>    -5.2369     0.0000     8.0000 </r>
       <r>    -5.0866     0.0000     8.0000 </r>
       <r>    -4.9362     0.0000     8.0000 </r>
       <r>    -4.7859     0.0000     8.0000 </r>
       <r>    -4.6355     0.0000     8.0000 </r>
       <r>    -4.4852     0.0000     8.0000 </r>
       <r>    -4.3348     0.0000     8.0000 </r>
       <r>    -4.1844     0.0000     8.0000 </r>
       <r>    -4.0341     0.0000     8.0000 </r>
       <r>    -3.8837     0.0000     8.0000 </r>
       <r>    -3.7334     0.0000     8.0000 </r>
       <r>    -3.5830     0.0000     8.0000 </r>
       <r>    -3.4327     0.0000     8.0000 </r>
       <r>    -3.2823     5.1242     8.7705 </r>
       <r>    -3.1320     8.1770     9.9999 </r>
       <r>    -2.9816     0.0005    10.0000 </r>
       <r>    -2.8312     0.0007    10.0001 </r>
       <r>    -2.6809    25.0021    13.7593 </r>
       <r>    -2.5305    94.2104    27.9244 </r>
       <r>    -2.3802    19.4812    30.8535 </r>
       <r>    -2.2298    20.9266    33.9999 </r>
       <r>    -2.0795     0.0006    34.0000 </r>
       <r>    -1.9291     0.0000    34.0000 </r>
       <r>    -1.7788     0.0000    34.0000 </r>
       <r>    -1.6284     0.0000    34.0000 </r>
       <r>    -1.4780     0.0000    34.0000 </r>
       <r>    -1.3277     0.0000    34.0000 </r>
       <r>    -1.1773     0.0000    34.0000 </r>
       <r>    -1.0270     0.0000    34.0000 </r>
       <r>    -0.8766     0.0024    34.0004 </r>
       <r>    -0.7263    26.2720    37.9505 </r>
       <r>    -0.5759    13.6309    40.0000 </r>
       <r>    -0.4256     0.0001    40.0000 </r>
       <r>    -0.2752     0.0000    40.0000 </r>
       <r>    -0.1248     0.0002    40.0000 </r>
       <r>     0.0255     6.9709    41.0481 </r>
       <r>     0.1759     6.3306    42.0000 </r>
       <r>     0.3262     0.0001    42.0000 </r>
       <r>     0.4766     0.0000    42.0000 </r>
       <r>     0.6269     0.0000    42.0000 </r>
       <r>     0.7773     3.9795    42.5983 </r>
       <r>     0.9276    22.6067    45.9974 </r>
       <r>     1.0780     0.0174    46.0000 </r>
       <r>     1.2284     0.0000    46.0000 </r>
       <r>     1.3787     0.0000    46.0000 </r>
       <r>     1.5291     0.0000    46.0000 </r>
       <r>     1.6794    10.8559    47.6323 </r>
       <r>     1.8298    29.0441    51.9992 </r>
       <r>     1.9801     3.9439    52.5922 </r>
       <r>     2.1305    23.9392    56.1916 </r>
       <r>     2.2808    65.2014    65.9950 </r>
       <r>     2.4312     9.6106    67.4400 </r>
       <r>     2.5816    17.0251    69.9998 </r>
       <r>     2.7319     0.0013    70.0000 </r>
       <r>     2.8823     0.0000    70.0000 </r>
       <r>     3.0326     0.0000    70.0000 </r>
       <r>     3.1830     0.8114    70.1220 </r>
       <r>     3.3333    12.4451    71.9932 </r>
       <r>     3.4837     0.0453    72.0000 </r>
       <r>     3.6340     0.0000    72.0000 </r>
       <r>     3.7844     0.0000    72.0000 </r>
       <r>     3.9348     0.0000    72.0000 </r>
       <r>     4.0851     0.0000    72.0000 </r>
       <r>     4.2355     0.0000    72.0000 </r>
       <r>     4.3858     0.0000    72.0000 </r>
       <r>     4.5362     0.0000    72.0000 </r>
       <r>     4.6865     0.0000    72.0000 </r>
       <r>     4.8369     0.0000    72.0000 </r>
       <r>     4.9872     0.0000    72.0000 </r>
       <r>     5.1376     0.0000    72.0000 </r>
       <r>     5.2880     0.0000    72.0000 </r>
      </set>
      <set comment="spin 2">
       <r>   -39.8187     0.0000     0.0000 </r>
       <r>   -39.6684     0.0000     0.0000 </r>
       <r>   -39.5180     0.0000     0.0000 </r>
       <r>   -39.3677     0.0000     0.0000 </r>
       <r>   -39.2173     0.0000     0.0000 </r>
       <r>   -39.0670     0.0000     0.0000 </r>
       <r>   -38.9166     0.0000     0.0000 </r>
       <r>   -38.7662     0.0000     0.0000 </r>
       <r>   -38.6159     0.0000     0.0000 </r>
       <r>   -38.4655     0.0000     0.0000 </r>
       <r>   -38.3152     0.0000     0.0000 </r>
       <r>   -38.1648     0.0000     0.0000 </r>
       <r>   -38.0145     0.0000     0.0000 </r>
       <r>   -37.8641     0.0000     0.0000 </r>
       <r>   -37.7138     0.0000     0.0000 </r>
       <r>   -37.5634     0.0000     0.0000 </r>
       <r>   -37.4130     0.7955     0.1196 </r>
       <r>   -37.2627    12.4596     1.9930 </r>
       <r>   -37.1123     0.0466     2.0000 </r>
       <r>   -36.9620     0.0000     2.0000 </r>
       <r>   -36.8116     0.0000     2.0000 </r>
       <r>   -36.6613     0.0000     2.0000 </r>
       <r>   -36.5109     0.0000     2.0000 </r>
       <r>   -36.3606     0.0000     2.0000 </r>
       <r>   -36.2102     0.0000     2.0000 </r>
       <r>   -36.0598     0.0000     2.0000 </r>
       <r>   -35.9095     0.0000     2.0000 </r>
       <r>   -35.7591     0.0000     2.0000 </r>
       <r>   -35.6088     0.0000     2.0000 </r>
       <r>   -35.4584     0.0000     2.0000 </r>
       <r>   -35.3081     0.0000     2.0000 </r>
       <r>   -35.1577     0.0000     2.0000 </r>
       <r>   -35.0074     0.0000     2.0000 </r>
       <r>   -34.8570     0.0000     2.0000 </r>
       <r>   -34.7066     0.0000     2.0000 </r>
       <r>   -34.5563     0.0000     2.0000 </r>
       <r>   -34.4059     0.0000     2.0000 </r>
       <r>   -34.2556     0.0000     2.0000 </r>
       <r>   -34.1052     0.0000     2.0000 </r>
       <r>   -33.9549     0.0000     2.0000 </r>
       <r>   -33.8045     0.0000     2.0000 </r>
       <r>   -33.6542     0.0000     2.0000 </r>
       <r>   -33.5038     0.0000     2.0000 </r>
       <r>   -33.3534     0.0000     2.0000 </r>
       <r>   -33.2031     0.0000     2.0000 </r>
       <r>   -33.0527     0.0000     2.0000 </r>
       <r>   -32.9024     0.0000     2.0000 </r>
       <r>   -32.7520     0.0000     2.0000 </r>
       <r>   -32.6017     0.0000     2.0000 </r>
       <r>   -32.4513     0.0000     2.0000 </r>
       <r>   -32.3010     0.0000     2.0000 </r>
       <r>   -32.1506     0.0000     2.0000 </r>
       <r>   -32.0002     0.0000     2.0000 </r>
       <r>   -31.8499     0.0000     2.0000 </r>
       <r>   -31.6995     0.0000     2.0000 </r>
       <r>   -31.5492     0.0000     2.0000 </r>
       <r>   -31.3988     0.0000     2.0000 </r>
       <r>   -31.2485     0.0000     2.0000 </r>
       <r>   -31.0981     0.0000     2.0000 </r>
       <r>   -30.9478     0.0000     2.0000 </r>
       <r>   -30.7974     0.0000     2.0000 </r>
       <r>   -30.6470     0.0000     2.0000 </r>
       <r>   -30.4967     0.0000     2.0000 </r>
       <r>   -30.3463     0.0000     2.0000 </r>
       <r>   -30.1960     0.0000     2.0000 </r>
       <r>   -30.0456     0.0000     2.0000 </r>
       <r>   -29.8953     0.0000     2.0000 </r>
       <r>   -29.7449     0.0000     2.0000 </r>
       <r>   -29.5945     0.0000     2.0000 </r>
       <r>   -29.4442     0.0000     2.0000 </r>
       <r>   -29.2938     0.0000     2.0000 </r>
       <r>   -29.1435     0.0000     2.0000 </r>
       <r>   -28.9931     0.0000     2.0000 </r>
       <r>   -28.8428     0.0000     2.0000 </r>
       <r>   -28.6924     0.0000     2.0000 </r>
       <r>   -28.5421     0.0000     2.0000 </r>
       <r>   -28.3917     0.0000     2.0000 </r>
       <r>   -28.2413     0.0000     2.0000 </r>
       <r>   -28.0910     0.0000     2.0000 </r>
       <r>   -27.9406     0.0000     2.0000 </r>
       <r>   -27.7903     0.0000     2.0000 </r>
       <r>   -27.6399     0.0000     2.0000 </r>
       <r>   -27.4896     0.0000     2.0000 </r>
       <r>   -27.3392     0.0000     2.0000 </r>
       <r>   -27.1889     0.0000     2.0000 </r>
       <r>   -27.0385     0.0000     2.0000 </r>
       <r>   -26.8881     0.0000     2.0000 </r>
       <r>   -26.7378     0.0000     2.0000 </r>
       <r>   -26.5874     0.0000     2.0000 </r>
       <r>   -26.4371     0.0000     2.0000 </r>
       <r>   -26.2867     0.0000     2.0000 </r>
       <r>   -26.1364     0.0000     2.0000 </r>
       <r>   -25.9860     0.0000     2.0000 </r>
       <r>   -25.8357     0.0000     2.0000 </r>
       <r>   -25.6853     0.0000     2.0000 </r>
       <r>   -25.5349     0.0000     2.0000 </r>
       <r>   -25.3846     0.0000     2.0000 </r>
       <r>   -25.2342     0.0000     2.0000 </r>
       <r>   -25.0839     0.0000     2.0000 </r>
       <r>   -24.9335     0.0000     2.0000 </r>
       <r>   -24.7832     0.0000     2.0000 </r>
       <r>   -24.6328     0.0000     2.0000 </r>
       <r>   -24.4825     0.0000     2.0000 </r>
       <r>   -24.3321     0.0000     2.0000 </r>
       <r>   -24.1817     0.0000     2.0000 </r>
       <r>   -24.0314     0.0000     2.0000 </r>
       <r>   -23.8810     0.0000     2.0000 </r>
       <r>   -23.7307     0.0000     2.0000 </r>
       <r>   -23.5803     0.0000     2.0000 </r>
       <r>   -23.4300     0.0000     2.0000 </r>
       <r>   -23.2796     0.0000     2.0000 </r>
       <r>   -23.1293     0.0000     2.0000 </r>
       <r>   -22.9789     0.0000     2.0000 </r>
       <r>   -22.8285     0.0000     2.0000 </r>
       <r>   -22.6782     0.0000     2.0000 </r>
       <r>   -22.5278     0.0000     2.0000 </r>
       <r>   -22.3775     0.0000     2.0000 </r>
       <r>   -22.2271     0.0000     2.0000 </r>
       <r>   -22.0768     0.0000     2.0000 </r>
       <r>   -21.9264     0.0000     2.0000 </r>
       <r>   -21.7761     0.0000     2.0000 </r>
       <r>   -21.6257     0.0000     2.0000 </r>
       <r>   -21.4753     0.0000     2.0000 </r>
       <r>   -21.3250     0.0000     2.0000 </r>
       <r>   -21.1746     0.2320     2.0349 </r>
       <r>   -21.0243    38.0026     7.7488 </r>
       <r>   -20.8739     1.6708     8.0000 </r>
       <r>   -20.7236     0.0000     8.0000 </r>
       <r>   -20.5732     0.0000     8.0000 </r>
       <r>   -20.4229     0.0000     8.0000 </r>
       <r>   -20.2725     0.0000     8.0000 </r>
       <r>   -20.1221     0.0000     8.0000 </r>
       <r>   -19.9718     0.0000     8.0000 </r>
       <r>   -19.8214     0.0000     8.0000 </r>
       <r>   -19.6711     0.0000     8.0000 </r>
       <r>   -19.5207     0.0000     8.0000 </r>
       <r>   -19.3704     0.0000     8.0000 </r>
       <r>   -19.2200     0.0000     8.0000 </r>
       <r>   -19.0697     0.0000     8.0000 </r>
       <r>   -18.9193     0.0000     8.0000 </r>
       <r>   -18.7689     0.0000     8.0000 </r>
       <r>   -18.6186     0.0000     8.0000 </r>
       <r>   -18.4682     0.0000     8.0000 </r>
       <r>   -18.3179     0.0000     8.0000 </r>
       <r>   -18.1675     0.0000     8.0000 </r>
       <r>   -18.0172     0.0000     8.0000 </r>
       <r>   -17.8668     0.0000     8.0000 </r>
       <r>   -17.7165     0.0000     8.0000 </r>
       <r>   -17.5661     0.0000     8.0000 </r>
       <r>   -17.4157     0.0000     8.0000 </r>
       <r>   -17.2654     0.0000     8.0000 </r>
       <r>   -17.1150     0.0000     8.0000 </r>
       <r>   -16.9647     0.0000     8.0000 </r>
       <r>   -16.8143     0.0000     8.0000 </r>
       <r>   -16.6640     0.0000     8.0000 </r>
       <r>   -16.5136     0.0000     8.0000 </r>
       <r>   -16.3633     0.0000     8.0000 </r>
       <r>   -16.2129     0.0000     8.0000 </r>
       <r>   -16.0625     0.0000     8.0000 </r>
       <r>   -15.9122     0.0000     8.0000 </r>
       <r>   -15.7618     0.0000     8.0000 </r>
       <r>   -15.6115     0.0000     8.0000 </r>
       <r>   -15.4611     0.0000     8.0000 </r>
       <r>   -15.3108     0.0000     8.0000 </r>
       <r>   -15.1604     0.0000     8.0000 </r>
       <r>   -15.0101     0.0000     8.0000 </r>
       <r>   -14.8597     0.0000     8.0000 </r>
       <r>   -14.7093     0.0000     8.0000 </r>
       <r>   -14.5590     0.0000     8.0000 </r>
       <r>   -14.4086     0.0000     8.0000 </r>
       <r>   -14.2583     0.0000     8.0000 </r>
       <r>   -14.1079     0.0000     8.0000 </r>
       <r>   -13.9576     0.0000     8.0000 </r>
       <r>   -13.8072     0.0000     8.0000 </r>
       <r>   -13.6569     0.0000     8.0000 </r>
       <r>   -13.5065     0.0000     8.0000 </r>
       <r>   -13.3561     0.0000     8.0000 </r>
       <r>   -13.2058     0.0000     8.0000 </r>
       <r>   -13.0554     0.0000     8.0000 </r>
       <r>   -12.9051     0.0000     8.0000 </r>
       <r>   -12.7547     0.0000     8.0000 </r>
       <r>   -12.6044     0.0000     8.0000 </r>
       <r>   -12.4540     0.0000     8.0000 </r>
       <r>   -12.3037     0.0000     8.0000 </r>
       <r>   -12.1533     0.0000     8.0000 </r>
       <r>   -12.0029     0.0000     8.0000 </r>
       <r>   -11.8526     0.0000     8.0000 </r>
       <r>   -11.7022     0.0000     8.0000 </r>
       <r>   -11.5519     0.0000     8.0000 </r>
       <r>   -11.4015     0.0000     8.0000 </r>
       <r>   -11.2512     0.0000     8.0000 </r>
       <r>   -11.1008     0.0000     8.0000 </r>
       <r>   -10.9505     0.0000     8.0000 </r>
       <r>   -10.8001     0.0000     8.0000 </r>
       <r>   -10.6497     0.0000     8.0000 </r>
       <r>   -10.4994     0.0000     8.0000 </r>
       <r>   -10.3490     0.0000     8.0000 </r>
       <r>   -10.1987     0.0000     8.0000 </r>
       <r>   -10.0483     0.0000     8.0000 </r>
       <r>    -9.8980     0.0000     8.0000 </r>
       <r>    -9.7476     0.0000     8.0000 </r>
       <r>    -9.5972     0.0000     8.0000 </r>
       <r>    -9.4469     0.0000     8.0000 </r>
       <r>    -9.2965     0.0000     8.0000 </r>
       <r>    -9.1462     0.0000     8.0000 </r>
       <r>    -8.9958     0.0000     8.0000 </r>
       <r>    -8.8455     0.0000     8.0000 </r>
       <r>    -8.6951     0.0000     8.0000 </r>
       <r>    -8.5448     0.0000     8.0000 </r>
       <r>    -8.3944     0.0000     8.0000 </r>
       <r>    -8.2440     0.0000     8.0000 </r>
       <r>    -8.0937     0.0000     8.0000 </r>
       <r>    -7.9433     0.0000     8.0000 </r>
       <r>    -7.7930     0.0000     8.0000 </r>
       <r>    -7.6426     0.0000     8.0000 </r>
       <r>    -7.4923     0.0000     8.0000 </r>
       <r>    -7.3419     0.0000     8.0000 </r>
       <r>    -7.1916     0.0000     8.0000 </r>
       <r>    -7.0412     0.0000     8.0000 </r>
       <r>    -6.8908     0.0000     8.0000 </r>
       <r>    -6.7405     0.0000     8.0000 </r>
       <r>    -6.5901     0.0000     8.0000 </r>
       <r>    -6.4398     0.0000     8.0000 </r>
       <r>    -6.2894     0.0000     8.0000 </r>
       <r>    -6.1391     0.0000     8.0000 </r>
       <r>    -5.9887     0.0000     8.0000 </r>
       <r>    -5.8384     0.0000     8.0000 </r>
       <r>    -5.6880     0.0000     8.0000 </r>
       <r>    -5.5376     0.0000     8.0000 </r>
       <r>    -5.3873     0.0000     8.0000 </r>
       <r>    -5.2369     0.0000     8.0000 </r>
       <r>    -5.0866     0.0000     8.0000 </r>
       <r>    -4.9362     0.0000     8.0000 </r>
       <r>    -4.7859     0.0000     8.0000 </r>
       <r>    -4.6355     0.0000     8.0000 </r>
       <r>    -4.4852     0.0000     8.0000 </r>
       <r>    -4.3348     0.0000     8.0000 </r>
       <r>    -4.1844     0.0000     8.0000 </r>
       <r>    -4.0341     0.0000     8.0000 </r>
       <r>    -3.8837     0.0000     8.0000 </r>
       <r>    -3.7334     0.0000     8.0000 </r>
       <r>    -3.5830     0.0000     8.0000 </r>
       <r>    -3.4327     0.0000     8.0000 </r>
       <r>    -3.2823     0.0000     8.0000 </r>
       <r>    -3.1320     0.0000     8.0000 </r>
       <r>    -2.9816     2.7540     8.4141 </r>
       <r>    -2.8312    10.5438     9.9994 </r>
       <r>    -2.6809     0.0039    10.0000 </r>
       <r>    -2.5305     0.0000    10.0000 </r>
       <r>    -2.3802     0.0000    10.0000 </r>
       <r>    -2.2298     9.0663    11.3632 </r>
       <r>    -2.0795    90.0840    24.9078 </r>
       <r>    -1.9291    60.4598    33.9983 </r>
       <r>    -1.7788     0.0114    34.0000 </r>
       <r>    -1.6284     0.0000    34.0000 </r>
       <r>    -1.4780     0.0000    34.0000 </r>
       <r>    -1.3277     0.0000    34.0000 </r>
       <r>    -1.1773     0.0000    34.0000 </r>
       <r>    -1.0270     0.0000    34.0000 </r>
       <r>    -0.8766     0.0000    34.0000 </r>
       <r>    -0.7263     0.0138    34.0021 </r>
       <r>    -0.5759    32.1095    38.8299 </r>
       <r>    -0.4256     7.7821    40.0000 </r>
       <r>    -0.2752     0.0000    40.0000 </r>
       <r>    -0.1248     0.0000    40.0000 </r>
       <r>     0.0255     0.5326    40.0801 </r>
       <r>     0.1759    12.6871    41.9877 </r>
       <r>     0.3262     0.0820    42.0000 </r>
       <r>     0.4766     0.0000    42.0000 </r>
       <r>     0.6269     0.0000    42.0000 </r>
       <r>     0.7773     0.0004    42.0001 </r>
       <r>     0.9276    13.9471    44.0971 </r>
       <r>     1.0780    12.6559    46.0000 </r>
       <r>     1.2284     0.0002    46.0000 </r>
       <r>     1.3787     0.0000    46.0000 </r>
       <r>     1.5291     0.0000    46.0000 </r>
       <r>     1.6794     1.2733    46.1914 </r>
       <r>     1.8298    38.3043    51.9507 </r>
       <r>     1.9801     0.3582    52.0046 </r>
       <r>     2.1305    16.9565    54.5541 </r>
       <r>     2.2808    75.7682    65.9463 </r>
       <r>     2.4312     0.7563    66.0600 </r>
       <r>     2.5816    25.7085    69.9254 </r>
       <r>     2.7319     0.4963    70.0000 </r>
       <r>     2.8823     0.0000    70.0000 </r>
       <r>     3.0326     0.0000    70.0000 </r>
       <r>     3.1830     3.2374    70.4868 </r>
       <r>     3.3333    10.0619    71.9996 </r>
       <r>     3.4837     0.0025    72.0000 </r>
       <r>     3.6340     0.0000    72.0000 </r>
       <r>     3.7844     0.0000    72.0000 </r>
       <r>     3.9348     0.0000    72.0000 </r>
       <r>     4.0851     0.0000    72.0000 </r>
       <r>     4.2355     0.0000    72.0000 </r>
       <r>     4.3858     0.0000    72.0000 </r>
       <r>     4.5362     0.0000    72.0000 </r>
       <r>     4.6865     0.0000    72.0000 </r>
       <r>     4.8369     0.0000    72.0000 </r>
       <r>     4.9872     0.0000    72.0000 </r>
       <r>     5.1376     0.0000    72.0000 </r>
       <r>     5.2880     0.0000    72.0000 </r>
      </set>
     </set>
    </array>
   </total>
   <partial>
    <array>
     <dimension dim="1">gridpoints</dimension>
     <dimension dim="2">spin</dimension>
     <dimension dim="3">ion</dimension>
     <field>energy</field>
     <field>    s</field>
     <field>   py</field>
     <field>   pz</field>
     <field>   px</field>
     <field>  dxy</field>
     <field>  dyz</field>
     <field>  dz2</field>
     <field>  dxz</field>
     <field>x2-y2</field>
     <field>fy3x2</field>
     <field> fxyz</field>
     <field> fyz2</field>
     <field>  fz3</field>
     <field> fxz2</field>
     <field> fzx2</field>
     <field>  fx3</field>
     <set>
      <set comment="ion 1">
       <set comment="spin 1">
        <r>   -39.8187     0.0000     0.0000     0.0000     0.0000     0.0000     0.0000     0.0000     0.0000     0.0000     0.0000     0.0000     0.0000     0.0000     0.0000     0.0000     0.0000 </r>
        <r>   -39.6684     0.0000     0.0000     0.0000     0.0000     0.0000     0.0000     0.0000     0.0000     0.0000     0.0000     0.0000     0.0000     0.0000     0.0000     0.0000     0.0000 </r>
        <r>   -39.5180     0.0000     0.0000     0.0000     0.0000     0.0000     0.0000     0.0000     0.0000     0.0000     0.0000     0.0000     0.0000     0.0000     0.0000     0.0000     0.0000 </r>
        <r>   -39.3677     0.0000     0.0000     0.0000     0.0000     0.0000     0.0000     0.0000     0.0000     0.0000     0.0000     0.0000     0.0000     0.0000     0.0000     0.0000     0.0000 </r>
        <r>   -39.2173     0.0000     0.0000     0.0000     0.0000     0.0000     0.0000     0.0000     0.0000     0.0000     0.0000     0.0000     0.0000     0.0000     0.0000     0.0000     0.0000 </r>
        <r>   -39.0670     0.0000     0.0000     0.0000     0.0000     0.0000     0.0000     0.0000     0.0000     0.0000     0.0000     0.0000     0.0000     0.0000     0.0000     0.0000     0.0000 </r>
        <r>   -38.9166     0.0000     0.0000     0.0000     0.0000     0.0000     0.0000     0.0000     0.0000     0.0000     0.0000     0.0000     0.0000     0.0000     0.0000     0.0000     0.0000 </r>
        <r>   -38.7662     0.0000     0.0000     0.0000     0.0000     0.0000     0.0000     0.0000     0.0000     0.0000     0.0000     0.0000     0.0000     0.0000     0.0000     0.0000     0.0000 </r>
        <r>   -38.6159     0.0000     0.0000     0.0000     0.0000     0.0000     0.0000     0.0000     0.0000     0.0000     0.0000     0.0000     0.0000     0.0000     0.0000     0.0000     0.0000 </r>
        <r>   -38.4655     0.0000     0.0000     0.0000     0.0000     0.0000     0.0000     0.0000     0.0000     0.0000     0.0000     0.0000     0.0000     0.0000     0.0000     0.0000     0.0000 </r>
        <r>   -38.3152     0.0000     0.0000     0.0000     0.0000     0.0000     0.0000     0.0000     0.0000     0.0000     0.0000     0.0000     0.0000     0.0000     0.0000     0.0000     0.0000 </r>
        <r>   -38.1648     0.0000     0.0000     0.0000     0.0000     0.0000     0.0000     0.0000     0.0000     0.0000     0.0000     0.0000     0.0000     0.0000     0.0000     0.0000     0.0000 </r>
        <r>   -38.0145     0.0000     0.0000     0.0000     0.0000     0.0000     0.0000     0.0000     0.0000     0.0000     0.0000     0.0000     0.0000     0.0000     0.0000     0.0000     0.0000 </r>
        <r>   -37.8641     0.0446     0.0000     0.0000     0.0000     0.0000     0.0000     0.0000     0.0000     0.0000     0.0000     0.0000     0.0000     0.0000     0.0000     0.0000     0.0000 </r>
        <r>   -37.7138    12.2784     0.0000     0.0000     0.0000     0.0000     0.0000     0.0000     0.0000     0.0000     0.0000     0.0000     0.0000     0.0000     0.0000     0.0000     0.0000 </r>
        <r>   -37.5634     0.8005     0.0000     0.0000     0.0000     0.0000     0.0000     0.0000     0.0000     0.0000     0.0000     0.0000     0.0000     0.0000     0.0000     0.0000     0.0000 </r>
        <r>   -37.4130     0.0000     0.0000     0.0000     0.0000     0.0000     0.0000     0.0000     0.0000     0.0000     0.0000     0.0000     0.0000     0.0000     0.0000     0.0000     0.0000 </r>
        <r>   -37.2627     0.0000     0.0000     0.0000     0.0000     0.0000     0.0000     0.0000     0.0000     0.0000     0.0000     0.0000     0.0000     0.0000     0.0000     0.0000     0.0000 </r>
        <r>   -37.1123     0.0000     0.0000     0.0000     0.0000     0.0000     0.0000     0.0000     0.0000     0.0000     0.0000     0.0000     0.0000     0.0000     0.0000     0.0000     0.0000 </r>
        <r>   -36.9620     0.0000     0.0000     0.0000     0.0000     0.0000     0.0000     0.0000     0.0000     0.0000     0.0000     0.0000     0.0000     0.0000     0.0000     0.0000     0.0000 </r>
        <r>   -36.8116     0.0000     0.0000     0.0000     0.0000     0.0000     0.0000     0.0000     0.0000     0.0000     0.0000     0.0000     0.0000     0.0000     0.0000     0.0000     0.0000 </r>
        <r>   -36.6613     0.0000     0.0000     0.0000     0.0000     0.0000     0.0000     0.0000     0.0000     0.0000     0.0000     0.0000     0.0000     0.0000     0.0000     0.0000     0.0000 </r>
        <r>   -36.5109     0.0000     0.0000     0.0000     0.0000     0.0000     0.0000     0.0000     0.0000     0.0000     0.0000     0.0000     0.0000     0.0000     0.0000     0.0000     0.0000 </r>
        <r>   -36.3606     0.0000     0.0000     0.0000     0.0000     0.0000     0.0000     0.0000     0.0000     0.0000     0.0000     0.0000     0.0000     0.0000     0.0000     0.0000     0.0000 </r>
        <r>   -36.2102     0.0000     0.0000     0.0000     0.0000     0.0000     0.0000     0.0000     0.0000     0.0000     0.0000     0.0000     0.0000     0.0000     0.0000     0.0000     0.0000 </r>
        <r>   -36.0598     0.0000     0.0000     0.0000     0.0000     0.0000     0.0000     0.0000     0.0000     0.0000     0.0000     0.0000     0.0000     0.0000     0.0000     0.0000     0.0000 </r>
        <r>   -35.9095     0.0000     0.0000     0.0000     0.0000     0.0000     0.0000     0.0000     0.0000     0.0000     0.0000     0.0000     0.0000     0.0000     0.0000     0.0000     0.0000 </r>
        <r>   -35.7591     0.0000     0.0000     0.0000     0.0000     0.0000     0.0000     0.0000     0.0000     0.0000     0.0000     0.0000     0.0000     0.0000     0.0000     0.0000     0.0000 </r>
        <r>   -35.6088     0.0000     0.0000     0.0000     0.0000     0.0000     0.0000     0.0000     0.0000     0.0000     0.0000     0.0000     0.0000     0.0000     0.0000     0.0000     0.0000 </r>
        <r>   -35.4584     0.0000     0.0000     0.0000     0.0000     0.0000     0.0000     0.0000     0.0000     0.0000     0.0000     0.0000     0.0000     0.0000     0.0000     0.0000     0.0000 </r>
        <r>   -35.3081     0.0000     0.0000     0.0000     0.0000     0.0000     0.0000     0.0000     0.0000     0.0000     0.0000     0.0000     0.0000     0.0000     0.0000     0.0000     0.0000 </r>
        <r>   -35.1577     0.0000     0.0000     0.0000     0.0000     0.0000     0.0000     0.0000     0.0000     0.0000     0.0000     0.0000     0.0000     0.0000     0.0000     0.0000     0.0000 </r>
        <r>   -35.0074     0.0000     0.0000     0.0000     0.0000     0.0000     0.0000     0.0000     0.0000     0.0000     0.0000     0.0000     0.0000     0.0000     0.0000     0.0000     0.0000 </r>
        <r>   -34.8570     0.0000     0.0000     0.0000     0.0000     0.0000     0.0000     0.0000     0.0000     0.0000     0.0000     0.0000     0.0000     0.0000     0.0000     0.0000     0.0000 </r>
        <r>   -34.7066     0.0000     0.0000     0.0000     0.0000     0.0000     0.0000     0.0000     0.0000     0.0000     0.0000     0.0000     0.0000     0.0000     0.0000     0.0000     0.0000 </r>
        <r>   -34.5563     0.0000     0.0000     0.0000     0.0000     0.0000     0.0000     0.0000     0.0000     0.0000     0.0000     0.0000     0.0000     0.0000     0.0000     0.0000     0.0000 </r>
        <r>   -34.4059     0.0000     0.0000     0.0000     0.0000     0.0000     0.0000     0.0000     0.0000     0.0000     0.0000     0.0000     0.0000     0.0000     0.0000     0.0000     0.0000 </r>
        <r>   -34.2556     0.0000     0.0000     0.0000     0.0000     0.0000     0.0000     0.0000     0.0000     0.0000     0.0000     0.0000     0.0000     0.0000     0.0000     0.0000     0.0000 </r>
[...]
        <r>     4.2355     0.0000     0.0000     0.0000     0.0000     0.0000     0.0000     0.0000     0.0000     0.0000     0.0000     0.0000     0.0000     0.0000     0.0000     0.0000     0.0000 </r>
        <r>     4.3858     0.0000     0.0000     0.0000     0.0000     0.0000     0.0000     0.0000     0.0000     0.0000     0.0000     0.0000     0.0000     0.0000     0.0000     0.0000     0.0000 </r>
        <r>     4.5362     0.0000     0.0000     0.0000     0.0000     0.0000     0.0000     0.0000     0.0000     0.0000     0.0000     0.0000     0.0000     0.0000     0.0000     0.0000     0.0000 </r>
        <r>     4.6865     0.0000     0.0000     0.0000     0.0000     0.0000     0.0000     0.0000     0.0000     0.0000     0.0000     0.0000     0.0000     0.0000     0.0000     0.0000     0.0000 </r>
        <r>     4.8369     0.0000     0.0000     0.0000     0.0000     0.0000     0.0000     0.0000     0.0000     0.0000     0.0000     0.0000     0.0000     0.0000     0.0000     0.0000     0.0000 </r>
        <r>     4.9872     0.0000     0.0000     0.0000     0.0000     0.0000     0.0000     0.0000     0.0000     0.0000     0.0000     0.0000     0.0000     0.0000     0.0000     0.0000     0.0000 </r>
        <r>     5.1376     0.0000     0.0000     0.0000     0.0000     0.0000     0.0000     0.0000     0.0000     0.0000     0.0000     0.0000     0.0000     0.0000     0.0000     0.0000     0.0000 </r>
        <r>     5.2880     0.0000     0.0000     0.0000     0.0000     0.0000     0.0000     0.0000     0.0000     0.0000     0.0000     0.0000     0.0000     0.0000     0.0000     0.0000     0.0000 </r>
       </set>
      </set>
     </set>
    </array>
   </partial>
  </dos>
  <projected>
   <eigenvalues>
    <array>
     <dimension dim="1">band</dimension>
     <dimension dim="2">kpoint</dimension>
     <dimension dim="3">spin</dimension>
     <field>eigene</field>
     <field>occ</field>
     <set>
      <set comment="spin 1">
       <set comment="kpoint 1">
        <r>  -37.7684    1.0000 </r>
        <r>  -21.3764    1.0000 </r>
        <r>  -21.3764    1.0000 </r>
        <r>  -21.3764    1.0000 </r>
        <r>   -3.2720    1.0000 </r>
        <r>   -2.6881    0.3705 </r>
        <r>   -2.6881    0.3705 </r>
        <r>   -2.6403    0.0463 </r>
        <r>   -2.6403    0.0463 </r>
        <r>   -2.6403    0.0463 </r>
        <r>   -2.6377    0.0394 </r>
        <r>   -2.6377    0.0394 </r>
        <r>   -2.6377    0.0394 </r>
        <r>   -2.5964    0.0017 </r>
        <r>   -2.3780    0.0000 </r>
        <r>   -2.3780    0.0000 </r>
        <r>   -2.3780    0.0000 </r>
        <r>   -0.7407    0.0000 </r>
        <r>   -0.7407    0.0000 </r>
        <r>   -0.7407    0.0000 </r>
        <r>    0.0234    0.0000 </r>
        <r>    0.8140    0.0000 </r>
        <r>    0.8140    0.0000 </r>
        <r>    1.7009    0.0000 </r>
        <r>    1.7009    0.0000 </r>
        <r>    1.7009    0.0000 </r>
        <r>    1.9991    0.0000 </r>
        <r>    2.1604    0.0000 </r>
        <r>    2.1604    0.0000 </r>
        <r>    2.1604    0.0000 </r>
        <r>    2.1647    0.0000 </r>
        <r>    2.1647    0.0000 </r>
        <r>    2.1647    0.0000 </r>
        <r>    2.4439    0.0000 </r>
        <r>    2.4439    0.0000 </r>
        <r>    3.2377    0.0000 </r>
       </set>
      </set>
      <set comment="spin 2">
       <set comment="kpoint 1">
        <r>  -37.3580    1.0000 </r>
        <r>  -21.0854    1.0000 </r>
        <r>  -21.0854    1.0000 </r>
        <r>  -21.0854    1.0000 </r>
        <r>   -2.9527    1.0000 </r>
        <r>   -2.2008    0.0000 </r>
        <r>   -2.2008    0.0000 </r>
        <r>   -2.2008    0.0000 </r>
        <r>   -2.1756    0.0000 </r>
        <r>   -2.1014    0.0000 </r>
        <r>   -2.1014    0.0000 </r>
        <r>   -2.1014    0.0000 </r>
        <r>   -2.0576    0.0000 </r>
        <r>   -2.0576    0.0000 </r>
        <r>   -2.0546    0.0000 </r>
        <r>   -2.0546    0.0000 </r>
        <r>   -2.0546    0.0000 </r>
        <r>   -0.6063    0.0000 </r>
        <r>   -0.6063    0.0000 </r>
        <r>   -0.6063    0.0000 </r>
        <r>    0.0874    0.0000 </r>
        <r>    0.9255    0.0000 </r>
        <r>    0.9255    0.0000 </r>
        <r>    1.7450    0.0000 </r>
        <r>    1.7450    0.0000 </r>
        <r>    1.7450    0.0000 </r>
        <r>    2.0804    0.0000 </r>
        <r>    2.1798    0.0000 </r>
        <r>    2.1798    0.0000 </r>
        <r>    2.1798    0.0000 </r>
        <r>    2.1936    0.0000 </r>
        <r>    2.1936    0.0000 </r>
        <r>    2.1936    0.0000 </r>
        <r>    2.5079    0.0000 </r>
        <r>    2.5079    0.0000 </r>
        <r>    3.2076    0.0000 </r>
       </set>
      </set>
     </set>
    </array>
   </eigenvalues>
   <array>
    <dimension dim="1">ion</dimension>
    <dimension dim="2">band</dimension>
    <dimension dim="3">kpoint</dimension>
    <dimension dim="4">spin</dimension>
    <field>    s</field>
    <field>   py</field>
    <field>   pz</field>
    <field>   px</field>
    <field>  dxy</field>
    <field>  dyz</field>
    <field>  dz2</field>
    <field>  dxz</field>
    <field>x2-y2</field>
    <field>fy3x2</field>
    <field> fxyz</field>
    <field> fyz2</field>
    <field>  fz3</field>
    <field> fxz2</field>
    <field> fzx2</field>
    <field>  fx3</field>
    <set>
     <set comment="spin1">
      <set comment="kpoint 1">
       <set comment="band 1">
        <r>  0.9866  0.0000  0.0000  0.0000  0.0000  0.0000  0.0000  0.0000  0.0000  0.0000  0.0000  0.0000  0.0000  0.0000  0.0000  0.0000 </r>
       </set>
       <set comment="band 2">
        <r>  0.0000  0.0000  0.9266  0.0000  0.0000  0.0000  0.0000  0.0000  0.0000  0.0000  0.0000  0.0000  0.0000  0.0000  0.0000  0.0000 </r>
       </set>
       <set comment="band 3">
        <r>  0.0000  0.1889  0.0000  0.7378  0.0000  0.0000  0.0000  0.0000  0.0000  0.0000  0.0000  0.0000  0.0000  0.0000  0.0000  0.0000 </r>
       </set>
       <set comment="band 4">
        <r>  0.0000  0.7378  0.0000  0.1889  0.0000  0.0000  0.0000  0.0000  0.0000  0.0000  0.0000  0.0000  0.0000  0.0000  0.0000  0.0000 </r>
       </set>
       <set comment="band 5">
        <r>  0.1197  0.0000  0.0000  0.0000  0.0000  0.0000  0.0000  0.0000  0.0000  0.0000  0.0000  0.0000  0.0000  0.0000  0.0000  0.0000 </r>
       </set>
       <set comment="band 6">
        <r>  0.0000  0.0000  0.0000  0.0000  0.0000  0.0000  0.0000  0.0000  0.5040  0.0000  0.0000  0.0000  0.0000  0.0000  0.0000  0.0000 </r>
       </set>
       <set comment="band 7">
        <r>  0.0000  0.0000  0.0000  0.0000  0.0000  0.0000  0.5040  0.0000  0.0000  0.0000  0.0000  0.0000  0.0000  0.0000  0.0000  0.0000 </r>
       </set>
       <set comment="band 8">
        <r>  0.0000  0.0000  0.0000  0.0000  0.0000  0.0000  0.0000  0.0000  0.0000  0.0349  0.0000  0.0209  0.0000  0.3390  0.0000  0.5650 </r>
       </set>
       <set comment="band 9">
        <r>  0.0000  0.0000  0.0000  0.0000  0.0000  0.0000  0.0000  0.0000  0.0000  0.5650  0.0000  0.3390  0.0000  0.0209  0.0000  0.0349 </r>
       </set>
       <set comment="band 10">
        <r>  0.0000  0.0000  0.0001  0.0000  0.0000  0.0000  0.0000  0.0000  0.0000  0.0000  0.0000  0.0000  0.9598  0.0000  0.0000  0.0000 </r>
       </set>
       <set comment="band 11">
        <r>  0.0000  0.0000  0.0000  0.0000  0.0000  0.0000  0.0000  0.0000  0.0000  0.0060  0.0000  0.0100  0.0000  0.5907  0.0000  0.3545 </r>
       </set>
       <set comment="band 12">
        <r>  0.0000  0.0000  0.0000  0.0000  0.0000  0.0000  0.0000  0.0000  0.0000  0.3545  0.0000  0.5907  0.0000  0.0100  0.0000  0.0060 </r>
       </set>
       <set comment="band 13">
        <r>  0.0000  0.0000  0.0000  0.0000  0.0000  0.0000  0.0000  0.0000  0.0000  0.0000  0.0000  0.0000  0.0000  0.0000  0.9611  0.0000 </r>
       </set>
       <set comment="band 14">
        <r>  0.0000  0.0000  0.0000  0.0000  0.0000  0.0000  0.0000  0.0000  0.0000  0.0000  0.9627  0.0000  0.0000  0.0000  0.0000  0.0000 </r>
       </set>
       <set comment="band 15">
        <r>  0.0000  0.0000  0.0000  0.0000  0.0000  0.2788  0.0000  0.2297  0.0000  0.0000  0.0000  0.0000  0.0000  0.0000  0.0000  0.0000 </r>
       </set>
       <set comment="band 16">
        <r>  0.0000  0.0000  0.0000  0.0000  0.0000  0.2297  0.0000  0.2788  0.0000  0.0000  0.0000  0.0000  0.0000  0.0000  0.0000  0.0000 </r>
       </set>
       <set comment="band 17">
        <r>  0.0000  0.0000  0.0000  0.0000  0.5085  0.0000  0.0000  0.0000  0.0000  0.0000  0.0000  0.0000  0.0000  0.0000  0.0000  0.0000 </r>
       </set>
       <set comment="band 18">
        <r>  0.0000  0.0000  0.0357  0.0000  0.0000  0.0000  0.0000  0.0000  0.0000  0.0000  0.0000  0.0000  0.0002  0.0000  0.0000  0.0000 </r>
       </set>
       <set comment="band 19">
        <r>  0.0000  0.0002  0.0000  0.0355  0.0000  0.0000  0.0000  0.0000  0.0000  0.0000  0.0000  0.0000  0.0000  0.0001  0.0000  0.0001 </r>
       </set>
       <set comment="band 20">
        <r>  0.0000  0.0355  0.0000  0.0002  0.0000  0.0000  0.0000  0.0000  0.0000  0.0001  0.0000  0.0001  0.0000  0.0000  0.0000  0.0000 </r>
       </set>
       <set comment="band 21">
        <r>  0.0305  0.0000  0.0000  0.0000  0.0000  0.0000  0.0000  0.0000  0.0000  0.0000  0.0000  0.0000  0.0000  0.0000  0.0000  0.0000 </r>
       </set>
       <set comment="band 22">
        <r>  0.0000  0.0000  0.0000  0.0000  0.0000  0.0000  0.0000  0.0000  0.0554  0.0000  0.0000  0.0000  0.0000  0.0000  0.0000  0.0000 </r>
       </set>
       <set comment="band 23">
        <r>  0.0000  0.0000  0.0000  0.0000  0.0000  0.0000  0.0554  0.0000  0.0000  0.0000  0.0000  0.0000  0.0000  0.0000  0.0000  0.0000 </r>
       </set>
       <set comment="band 24">
        <r>  0.0000  0.0007  0.0001  0.0091  0.0000  0.0000  0.0000  0.0000  0.0000  0.0001  0.0000  0.0001  0.0000  0.0007  0.0000  0.0011 </r>
       </set>
       <set comment="band 25">
        <r>  0.0000  0.0090  0.0001  0.0008  0.0000  0.0000  0.0000  0.0000  0.0000  0.0011  0.0000  0.0007  0.0000  0.0001  0.0000  0.0001 </r>
       </set>
       <set comment="band 26">
        <r>  0.0000  0.0001  0.0097  0.0000  0.0000  0.0000  0.0000  0.0000  0.0000  0.0000  0.0000  0.0000  0.0020  0.0000  0.0000  0.0000 </r>
       </set>
       <set comment="band 27">
        <r>  0.0257  0.0000  0.0000  0.0000  0.0000  0.0000  0.0000  0.0000  0.0000  0.0000  0.0000  0.0000  0.0000  0.0000  0.0000  0.0000 </r>
       </set>
       <set comment="band 28">
        <r>  0.0000  0.0000  0.0000  0.0000  0.0000  0.0000  0.0000  0.0000  0.0000  0.0000  0.0000  0.0000  0.0000  0.0030  0.0000  0.0018 </r>
       </set>
       <set comment="band 29">
        <r>  0.0000  0.0000  0.0000  0.0000  0.0000  0.0000  0.0000  0.0000  0.0000  0.0018  0.0000  0.0030  0.0000  0.0000  0.0000  0.0000 </r>
       </set>
       <set comment="band 30">
        <r>  0.0000  0.0000  0.0000  0.0000  0.0000  0.0000  0.0000  0.0000  0.0000  0.0000  0.0000  0.0000  0.0000  0.0000  0.0047  0.0000 </r>
       </set>
       <set comment="band 31">
        <r>  0.0000  0.0000  0.0000  0.0000  0.0000  0.0149  0.0000  0.0694  0.0000  0.0000  0.0000  0.0000  0.0000  0.0000  0.0000  0.0000 </r>
       </set>
       <set comment="band 32">
        <r>  0.0000  0.0000  0.0000  0.0000  0.0000  0.0694  0.0000  0.0149  0.0000  0.0000  0.0000  0.0000  0.0000  0.0000  0.0000  0.0000 </r>
       </set>
       <set comment="band 33">
        <r>  0.0000  0.0000  0.0000  0.0000  0.0843  0.0000  0.0000  0.0000  0.0000  0.0000  0.0000  0.0000  0.0000  0.0000  0.0000  0.0000 </r>
       </set>
       <set comment="band 34">
        <r>  0.0000  0.0000  0.0000  0.0000  0.0000  0.0000  0.0000  0.0000  0.0173  0.0000  0.0000  0.0000  0.0000  0.0000  0.0000  0.0000 </r>
       </set>
       <set comment="band 35">
        <r>  0.0000  0.0000  0.0000  0.0000  0.0000  0.0000  0.0173  0.0000  0.0000  0.0000  0.0000  0.0000  0.0000  0.0000  0.0000  0.0000 </r>
       </set>
       <set comment="band 36">
        <r>  0.0000  0.0000  0.0000  0.0000  0.0000  0.0000  0.0000  0.0000  0.0000  0.0000  0.0099  0.0000  0.0000  0.0000  0.0000  0.0000 </r>
       </set>
      </set>
     </set>
     <set comment="spin2">
      <set comment="kpoint 1">
       <set comment="band 1">
        <r>  0.9668  0.0000  0.0000  0.0000  0.0000  0.0000  0.0000  0.0000  0.0000  0.0000  0.0000  0.0000  0.0000  0.0000  0.0000  0.0000 </r>
       </set>
       <set comment="band 2">
        <r>  0.0000  0.0000  0.9309  0.0000  0.0000  0.0000  0.0000  0.0000  0.0000  0.0000  0.0000  0.0000  0.0000  0.0000  0.0000  0.0000 </r>
       </set>
       <set comment="band 3">
        <r>  0.0000  0.0063  0.0000  0.9246  0.0000  0.0000  0.0000  0.0000  0.0000  0.0000  0.0000  0.0000  0.0000  0.0000  0.0000  0.0000 </r>
       </set>
       <set comment="band 4">
        <r>  0.0000  0.9246  0.0000  0.0063  0.0000  0.0000  0.0000  0.0000  0.0000  0.0000  0.0000  0.0000  0.0000  0.0000  0.0000  0.0000 </r>
       </set>
       <set comment="band 5">
        <r>  0.0865  0.0000  0.0000  0.0000  0.0000  0.0000  0.0000  0.0000  0.0000  0.0000  0.0000  0.0000  0.0000  0.0000  0.0000  0.0000 </r>
       </set>
       <set comment="band 6">
        <r>  0.0000  0.0000  0.0000  0.0000  0.4995  0.0000  0.0000  0.0000  0.0000  0.0000  0.0000  0.0000  0.0000  0.0000  0.0000  0.0000 </r>
       </set>
       <set comment="band 7">
        <r>  0.0000  0.0000  0.0000  0.0000  0.0000  0.4897  0.0000  0.0098  0.0000  0.0000  0.0000  0.0000  0.0000  0.0000  0.0000  0.0000 </r>
       </set>
       <set comment="band 8">
        <r>  0.0000  0.0000  0.0000  0.0000  0.0000  0.0098  0.0000  0.4897  0.0000  0.0000  0.0000  0.0000  0.0000  0.0000  0.0000  0.0000 </r>
       </set>
       <set comment="band 9">
        <r>  0.0000  0.0000  0.0000  0.0000  0.0000  0.0000  0.0000  0.0000  0.0000  0.0000  0.9593  0.0000  0.0000  0.0000  0.0000  0.0000 </r>
       </set>
       <set comment="band 10">
        <r>  0.0000  0.0000  0.0000  0.0000  0.0000  0.0000  0.0000  0.0000  0.0000  0.0000  0.0000  0.0000  0.0000  0.0000  0.9591  0.0000 </r>
       </set>
       <set comment="band 11">
        <r>  0.0000  0.0000  0.0000  0.0000  0.0000  0.0000  0.0000  0.0000  0.0000  0.3340  0.0000  0.5566  0.0000  0.0429  0.0000  0.0257 </r>
       </set>
       <set comment="band 12">
        <r>  0.0000  0.0000  0.0000  0.0000  0.0000  0.0000  0.0000  0.0000  0.0000  0.0257  0.0000  0.0429  0.0000  0.5566  0.0000  0.3340 </r>
       </set>
       <set comment="band 13">
        <r>  0.0000  0.0000  0.0000  0.0000  0.0000  0.0000  0.0000  0.0000  0.4829  0.0000  0.0000  0.0000  0.0000  0.0000  0.0000  0.0000 </r>
       </set>
       <set comment="band 14">
        <r>  0.0000  0.0000  0.0000  0.0000  0.0000  0.0000  0.4829  0.0000  0.0000  0.0000  0.0000  0.0000  0.0000  0.0000  0.0000  0.0000 </r>
       </set>
       <set comment="band 15">
        <r>  0.0000  0.0000  0.0000  0.0000  0.0000  0.0000  0.0000  0.0000  0.0000  0.0000  0.0000  0.0000  0.9593  0.0000  0.0000  0.0000 </r>
       </set>
       <set comment="band 16">
        <r>  0.0000  0.0000  0.0000  0.0000  0.0000  0.0000  0.0000  0.0000  0.0000  0.2578  0.0000  0.1547  0.0000  0.2051  0.0000  0.3418 </r>
       </set>
       <set comment="band 17">
        <r>  0.0000  0.0000  0.0000  0.0000  0.0000  0.0000  0.0000  0.0000  0.0000  0.3418  0.0000  0.2051  0.0000  0.1547  0.0000  0.2578 </r>
       </set>
       <set comment="band 18">
        <r>  0.0000  0.0000  0.0326  0.0000  0.0000  0.0000  0.0000  0.0000  0.0000  0.0000  0.0000  0.0000  0.0002  0.0000  0.0000  0.0000 </r>
       </set>
       <set comment="band 19">
        <r>  0.0000  0.0286  0.0000  0.0040  0.0000  0.0000  0.0000  0.0000  0.0000  0.0001  0.0000  0.0001  0.0000  0.0000  0.0000  0.0000 </r>
       </set>
       <set comment="band 20">
        <r>  0.0000  0.0040  0.0000  0.0286  0.0000  0.0000  0.0000  0.0000  0.0000  0.0000  0.0000  0.0000  0.0000  0.0001  0.0000  0.0001 </r>
       </set>
       <set comment="band 21">
        <r>  0.0236  0.0000  0.0000  0.0000  0.0000  0.0000  0.0000  0.0000  0.0000  0.0000  0.0000  0.0000  0.0000  0.0000  0.0000  0.0000 </r>
       </set>
       <set comment="band 22">
        <r>  0.0000  0.0000  0.0000  0.0000  0.0000  0.0000  0.0001  0.0000  0.0626  0.0000  0.0000  0.0000  0.0000  0.0000  0.0000  0.0000 </r>
       </set>
       <set comment="band 23">
        <r>  0.0000  0.0000  0.0000  0.0000  0.0000  0.0000  0.0626  0.0000  0.0001  0.0000  0.0000  0.0000  0.0000  0.0000  0.0000  0.0000 </r>
       </set>
       <set comment="band 24">
        <r>  0.0000  0.0062  0.0008  0.0032  0.0000  0.0000  0.0000  0.0000  0.0000  0.0005  0.0000  0.0003  0.0001  0.0002  0.0000  0.0003 </r>
       </set>
       <set comment="band 25">
        <r>  0.0000  0.0023  0.0073  0.0006  0.0000  0.0000  0.0000  0.0000  0.0000  0.0002  0.0000  0.0001  0.0010  0.0000  0.0000  0.0001 </r>
       </set>
       <set comment="band 26">
        <r>  0.0000  0.0017  0.0021  0.0064  0.0000  0.0000  0.0000  0.0000  0.0000  0.0001  0.0000  0.0001  0.0003  0.0003  0.0000  0.0005 </r>
       </set>
       <set comment="band 27">
        <r>  0.0208  0.0000  0.0000  0.0000  0.0000  0.0000  0.0000  0.0000  0.0000  0.0000  0.0000  0.0000  0.0000  0.0000  0.0000  0.0000 </r>
       </set>
       <set comment="band 28">
        <r>  0.0000  0.0000  0.0000  0.0000  0.0005  0.0735  0.0000  0.0119  0.0000  0.0000  0.0000  0.0000  0.0000  0.0000  0.0000  0.0000 </r>
       </set>
       <set comment="band 29">
        <r>  0.0000  0.0000  0.0000  0.0000  0.0000  0.0121  0.0000  0.0738  0.0000  0.0000  0.0000  0.0000  0.0000  0.0000  0.0000  0.0000 </r>
       </set>
       <set comment="band 30">
        <r>  0.0000  0.0000  0.0000  0.0000  0.0854  0.0003  0.0000  0.0002  0.0000  0.0000  0.0000  0.0000  0.0000  0.0000  0.0000  0.0000 </r>
       </set>
       <set comment="band 31">
        <r>  0.0000  0.0000  0.0000  0.0000  0.0000  0.0000  0.0000  0.0000  0.0000  0.0000  0.0000  0.0000  0.0000  0.0000  0.0050  0.0000 </r>
       </set>
       <set comment="band 32">
        <r>  0.0000  0.0000  0.0000  0.0000  0.0000  0.0000  0.0000  0.0000  0.0000  0.0016  0.0000  0.0027  0.0000  0.0005  0.0000  0.0003 </r>
       </set>
       <set comment="band 33">
        <r>  0.0000  0.0000  0.0000  0.0000  0.0000  0.0000  0.0000  0.0000  0.0000  0.0003  0.0000  0.0005  0.0000  0.0027  0.0000  0.0016 </r>
       </set>
       <set comment="band 34">
        <r>  0.0000  0.0000  0.0000  0.0000  0.0000  0.0000  0.0042  0.0000  0.0166  0.0000  0.0000  0.0000  0.0000  0.0000  0.0000  0.0000 </r>
       </set>
       <set comment="band 35">
        <r>  0.0000  0.0000  0.0000  0.0000  0.0000  0.0000  0.0166  0.0000  0.0042  0.0000  0.0000  0.0000  0.0000  0.0000  0.0000  0.0000 </r>
       </set>
       <set comment="band 36">
        <r>  0.0000  0.0000  0.0000  0.0000  0.0000  0.0000  0.0000  0.0000  0.0000  0.0000  0.0112  0.0000  0.0000  0.0000  0.0000  0.0000 </r>
       </set>
      </set>
     </set>
    </set>
   </array>
  </projected>
 </calculation>
 <structure name="finalpos" >
  <crystal>
   <varray name="basis" >
    <v>      10.00000000       0.00000000       0.00000000 </v>
    <v>       0.00000000      10.00000000       0.00000000 </v>
    <v>       0.00000000       0.00000000      10.00000000 </v>
   </varray>
   <i name="volume">   1000.00000000 </i>
   <varray name="rec_basis" >
    <v>       0.10000000       0.00000000       0.00000000 </v>
    <v>       0.00000000       0.10000000       0.00000000 </v>
    <v>       0.00000000       0.00000000       0.10000000 </v>
   </varray>
  </crystal>
  <varray name="positions" >
   <v>       0.50000000       0.50000000       0.50000000 </v>
  </varray>
 </structure>
</modeling>
