       N       E                     dE             d eps       ncg     rms          ort
DAV:   1     0.886487982382E+02    0.88649E+02   -0.48058E+03    36   0.317E+02
DAV:   2     0.158283438397E+02   -0.72820E+02   -0.72820E+02    36   0.805E+01
DAV:   3     0.627982436247E+01   -0.95485E+01   -0.95405E+01    36   0.363E+01
DAV:   4     0.366936802918E+01   -0.26105E+01   -0.24941E+01    36   0.109E+01
DAV:   5     0.169954617282E+01   -0.19698E+01   -0.19691E+01    36   0.542E+00
SDA:   6     0.159403381640E+01   -0.10551E+00   -0.23555E+01    36   0.589E+01 0.000E+00
DMP:   7     0.228583471173E-01   -0.15712E+01   -0.86210E+00    36   0.143E+01 0.190E+01
DMP:   8    -0.442732232636E+00   -0.46559E+00   -0.14229E+00    36   0.373E+00-0.459E-01
DMP:   9    -0.531764671451E+00   -0.89032E-01   -0.10562E+00    36   0.274E+00-0.270E-01
DMP:  10    -0.604928537677E+00   -0.73164E-01   -0.53994E-01    36   0.105E+00 0.779E-01
DMP:  11    -0.638488895110E+00   -0.33560E-01   -0.15766E-01    36   0.280E-01 0.300E-01
DMP:  12    -0.647811220336E+00   -0.93223E-02   -0.67009E-02    36   0.144E-01 0.627E-02
DMP:  13    -0.652347945548E+00   -0.45367E-02   -0.30616E-02    36   0.561E-02 0.535E-02
DMP:  14    -0.654357335342E+00   -0.20094E-02   -0.11024E-02    36   0.190E-02 0.223E-02
DMP:  15    -0.655050977705E+00   -0.69364E-03   -0.41623E-03    36   0.766E-03 0.718E-03
DMP:  16    -0.655331060477E+00   -0.28008E-03   -0.20093E-03    36   0.357E-03 0.380E-03
DMP:  17    -0.655518437773E+00   -0.18738E-03   -0.26627E-03    36   0.373E-03 0.766E-03
DMP:  18    -0.656855175368E+00   -0.13367E-02   -0.28352E-02    36   0.355E-02 0.926E-02
DMP:  19    -0.663479585453E+00   -0.66244E-02   -0.83875E-02    36   0.991E-02 0.290E-01
DMP:  20    -0.674730738975E+00   -0.11251E-01   -0.94426E-02    36   0.106E-01 0.339E-01
DMP:  21    -0.684348802597E+00   -0.96181E-02   -0.62081E-02    36   0.673E-02 0.230E-01
DMP:  22    -0.689887207201E+00   -0.55384E-02   -0.30646E-02    36   0.320E-02 0.117E-01
DMP:  23    -0.692452975927E+00   -0.25658E-02   -0.12968E-02    36   0.131E-02 0.506E-02
DMP:  24    -0.693505233126E+00   -0.10523E-02   -0.50162E-03    36   0.489E-03 0.200E-02
DMP:  25    -0.693905314305E+00   -0.40008E-03   -0.18240E-03    36   0.172E-03 0.744E-03
DMP:  26    -0.694049064599E+00   -0.14375E-03   -0.62924E-04    36   0.571E-04 0.262E-03
DMP:  27    -0.694098120809E+00   -0.49056E-04   -0.20576E-04    36   0.179E-04 0.878E-04
   1 F= -.69409812E+00 E0= -.67481817E+00  d E =-.694098E+00  mag=     2.0000
