<?xml version="1.0" encoding="ISO-8859-1"?>
<modeling>
 <generator>
  <i name="program" type="string">vasp </i>
  <i name="version" type="string">5.4.4.18Apr17-6-g9f103f2a35  </i>
  <i name="subversion" type="string">(build Nov 08 2019 15:19:53) gamma-only         parallel </i>
  <i name="platform" type="string">LinuxIFC </i>
  <i name="date" type="string">2020 11 30 </i>
  <i name="time" type="string">09:30:48 </i>
 </generator>
 <incar>
  <i type="string" name="PREC">accurate</i>
  <i type="string" name="ALGO"> D</i>
  <i type="int" name="ISPIN">     2</i>
  <i type="int" name="NELM">   300</i>
  <i type="int" name="IBRION">     2</i>
  <i name="EDIFF">      0.00005000</i>
  <i type="int" name="NSW">    99</i>
  <i type="int" name="ISIF">     2</i>
  <i name="ENCUT">    520.00000000</i>
  <v name="MAGMOM">      0.60000000</v>
  <i type="string" name="LREAL"> Auto</i>
  <i type="int" name="ISMEAR">     0</i>
  <i name="SIGMA">      0.05000000</i>
  <i type="logical" name="LWAVE"> F  </i>
  <i type="int" name="LORBIT">    11</i>
  <i type="logical" name="LASPH"> T  </i>
  <v type="int" name="KPOINT_BSE">    -1     0     0     0</v>
  <i type="int" name="NELM">   300</i>
  <i type="logical" name="LASPH"> T  </i>
 </incar>
 <structure name="primitive_cell" >
  <crystal>
   <varray name="basis" >
    <v>      10.00000000       0.00000000       0.00000000 </v>
    <v>       0.00000000      10.00000000       0.00000000 </v>
    <v>       0.00000000       0.00000000      10.00000000 </v>
   </varray>
   <i name="volume">   1000.00000000 </i>
   <varray name="rec_basis" >
    <v>       0.10000000       0.00000000       0.00000000 </v>
    <v>       0.00000000       0.10000000       0.00000000 </v>
    <v>       0.00000000       0.00000000       0.10000000 </v>
   </varray>
  </crystal>
  <varray name="positions" >
   <v>      -0.50000000      -0.50000000      -0.50000000 </v>
  </varray>
 </structure>
 <varray name="primitive_index" >
  <v type="int" >        1 </v>
 </varray>
 <kpoints>
  <generation param="Gamma">
   <v type="int" name="divisions">       1        1        1 </v>
   <v name="usershift">      0.00000000       0.00000000       0.00000000 </v>
   <v name="genvec1">      1.00000000       0.00000000       0.00000000 </v>
   <v name="genvec2">      0.00000000       1.00000000       0.00000000 </v>
   <v name="genvec3">      0.00000000       0.00000000       1.00000000 </v>
   <v name="shift">      0.00000000       0.00000000       0.00000000 </v>
  </generation>
  <varray name="kpointlist" >
   <v>       0.00000000       0.00000000       0.00000000 </v>
  </varray>
  <varray name="weights" >
   <v>       1.00000000 </v>
  </varray>
 </kpoints>
 <parameters>
  <separator name="general" >
   <i type="string" name="SYSTEM">unknown system</i>
   <i type="logical" name="LCOMPAT"> F  </i>
  </separator>
  <separator name="electronic" >
   <i type="string" name="PREC">accura</i>
   <i name="ENMAX">    520.00000000</i>
   <i name="ENAUG">    439.82500000</i>
   <i name="EDIFF">      0.00005000</i>
   <i type="int" name="IALGO">    53</i>
   <i type="int" name="IWAVPR">    11</i>
   <i type="int" name="NBANDS">    36</i>
   <i name="NELECT">     14.00000000</i>
   <i type="int" name="TURBO">     0</i>
   <i type="int" name="IRESTART">     0</i>
   <i type="int" name="NREBOOT">     0</i>
   <i type="int" name="NMIN">     0</i>
   <i name="EREF">      0.00000000</i>
   <separator name="electronic smearing" >
    <i type="int" name="ISMEAR">     0</i>
    <i name="SIGMA">      0.05000000</i>
    <i name="KSPACING">      0.50000000</i>
    <i type="logical" name="KGAMMA"> T  </i>
   </separator>
   <separator name="electronic projectors" >
    <i type="logical" name="LREAL"> T  </i>
    <v name="ROPT">     -0.00025000</v>
    <i type="int" name="LMAXPAW">  -100</i>
    <i type="int" name="LMAXMIX">     2</i>
    <i type="logical" name="NLSPLINE"> F  </i>
   </separator>
   <separator name="electronic startup" >
    <i type="int" name="ISTART">     0</i>
    <i type="int" name="ICHARG">     2</i>
    <i type="int" name="INIWAV">     1</i>
   </separator>
   <separator name="electronic spin" >
    <i type="int" name="ISPIN">     2</i>
    <i type="logical" name="LNONCOLLINEAR"> F  </i>
    <v name="MAGMOM">      0.60000000</v>
    <i name="NUPDOWN">     -1.00000000</i>
    <i type="logical" name="LSORBIT"> F  </i>
    <v name="SAXIS">      0.00000000      0.00000000      1.00000000</v>
    <i type="logical" name="LSPIRAL"> F  </i>
    <v name="QSPIRAL">      0.00000000      0.00000000      0.00000000</v>
    <i type="logical" name="LZEROZ"> F  </i>
   </separator>
   <separator name="electronic exchange-correlation" >
    <i type="logical" name="LASPH"> T  </i>
    <i type="logical" name="LMETAGGA"> F  </i>
   </separator>
   <separator name="electronic convergence" >
    <i type="int" name="NELM">   300</i>
    <i type="int" name="NELMDL">    -5</i>
    <i type="int" name="NELMIN">     2</i>
    <i name="ENINI">    520.00000000</i>
    <separator name="electronic convergence detail" >
     <i type="logical" name="LDIAG"> T  </i>
     <i type="logical" name="LSUBROT"> F  </i>
     <i name="WEIMIN">      0.00100000</i>
     <i name="EBREAK">      0.00000035</i>
     <i name="DEPER">      0.30000000</i>
     <i type="int" name="NRMM">     4</i>
     <i name="TIME">      0.40000000</i>
    </separator>
   </separator>
   <separator name="electronic mixer" >
    <i name="AMIX">      0.40000000</i>
    <i name="BMIX">      1.00000000</i>
    <i name="AMIN">      0.10000000</i>
    <i name="AMIX_MAG">      1.60000000</i>
    <i name="BMIX_MAG">      1.00000000</i>
    <separator name="electronic mixer details" >
     <i type="int" name="IMIX">     4</i>
     <i type="logical" name="MIXFIRST"> F  </i>
     <i type="int" name="MAXMIX">   -45</i>
     <i name="WC">    100.00000000</i>
     <i type="int" name="INIMIX">     1</i>
     <i type="int" name="MIXPRE">     1</i>
     <i type="int" name="MREMOVE">     5</i>
    </separator>
   </separator>
   <separator name="electronic dipolcorrection" >
    <i type="logical" name="LDIPOL"> F  </i>
    <i type="logical" name="LMONO"> F  </i>
    <i type="int" name="IDIPOL">     0</i>
    <i name="EPSILON">      1.00000000</i>
    <v name="DIPOL">   -100.00000000   -100.00000000   -100.00000000</v>
    <i name="EFIELD">      0.00000000</i>
   </separator>
  </separator>
  <separator name="grids" >
   <i type="int" name="NGX">    80</i>
   <i type="int" name="NGY">    80</i>
   <i type="int" name="NGZ">    80</i>
   <i type="int" name="NGXF">   160</i>
   <i type="int" name="NGYF">   160</i>
   <i type="int" name="NGZF">   160</i>
   <i type="logical" name="ADDGRID"> F  </i>
  </separator>
  <separator name="ionic" >
   <i type="int" name="NSW">    99</i>
   <i type="int" name="IBRION">     2</i>
   <i type="int" name="MDALGO">     0</i>
   <i type="int" name="ISIF">     2</i>
   <i name="PSTRESS">      0.00000000</i>
   <i name="EDIFFG">      0.00050000</i>
   <i type="int" name="NFREE">     1</i>
   <i name="POTIM">      0.50000000</i>
   <i name="SMASS">     -3.00000000</i>
   <i name="SCALEE">      1.00000000</i>
  </separator>
  <separator name="ionic md" >
   <i name="TEBEG">      0.00010000</i>
   <i name="TEEND">      0.00010000</i>
   <i type="int" name="NBLOCK">     1</i>
   <i type="int" name="KBLOCK">    99</i>
   <i type="int" name="NPACO">   256</i>
   <i name="APACO">     16.00000000</i>
  </separator>
  <separator name="symmetry" >
   <i type="int" name="ISYM">     2</i>
   <i name="SYMPREC">      0.00001000</i>
  </separator>
  <separator name="dos" >
   <i type="int" name="LORBIT">    11</i>
   <v name="RWIGS">     -1.00000000</v>
   <i type="int" name="NEDOS">   301</i>
   <i name="EMIN">     10.00000000</i>
   <i name="EMAX">    -10.00000000</i>
   <i name="EFERMI">      0.00000000</i>
  </separator>
  <separator name="writing" >
   <i type="int" name="NWRITE">     2</i>
   <i type="logical" name="LWAVE"> F  </i>
   <i type="logical" name="LDOWNSAMPLE"> F  </i>
   <i type="logical" name="LCHARG"> T  </i>
   <i type="logical" name="LPARD"> F  </i>
   <i type="logical" name="LVTOT"> F  </i>
   <i type="logical" name="LVHAR"> F  </i>
   <i type="logical" name="LELF"> F  </i>
   <i type="logical" name="LOPTICS"> F  </i>
   <v name="STM">      0.00000000      0.00000000      0.00000000      0.00000000      0.00000000      0.00000000      0.00000000</v>
  </separator>
  <separator name="performance" >
   <i type="int" name="NPAR">    36</i>
   <i type="int" name="NSIM">     4</i>
   <i type="int" name="NBLK">    -1</i>
   <i type="logical" name="LPLANE"> T  </i>
   <i type="logical" name="LSCALAPACK"> T  </i>
   <i type="logical" name="LSCAAWARE"> F  </i>
   <i type="logical" name="LSCALU"> F  </i>
   <i type="logical" name="LASYNC"> F  </i>
   <i type="logical" name="LORBITALREAL"> F  </i>
  </separator>
  <separator name="miscellaneous" >
   <i type="int" name="IDIOT">     3</i>
   <i type="int" name="ISPECIAL">     0</i>
   <i type="logical" name="LMUSIC"> F  </i>
   <v name="POMASS">    118.71000000</v>
   <v name="DARWINR">      0.00000000</v>
   <v name="DARWINV">      1.00000000</v>
   <i type="logical" name="LCORR"> T  </i>
  </separator>
  <i type="logical" name="GGA_COMPAT"> T  </i>
  <i type="logical" name="LBERRY"> F  </i>
  <i type="int" name="ICORELEVEL">     0</i>
  <i type="logical" name="LDAU"> F  </i>
  <i type="int" name="I_CONSTRAINED_M">     0</i>
  <separator name="electronic exchange-correlation" >
   <i type="string" name="GGA">--</i>
   <i type="int" name="VOSKOWN">     0</i>
   <i type="logical" name="LHFCALC"> F  </i>
   <i type="string" name="PRECFOCK"></i>
   <i type="logical" name="LSYMGRAD"> F  </i>
   <i type="logical" name="LHFONE"> F  </i>
   <i type="logical" name="LRHFCALC"> F  </i>
   <i type="logical" name="LTHOMAS"> F  </i>
   <i type="logical" name="LMODELHF"> F  </i>
   <i name="ENCUT4O">     -1.00000000</i>
   <i type="int" name="EXXOEP">     0</i>
   <i type="int" name="FOURORBIT">     0</i>
   <i name="AEXX">      0.00000000</i>
   <i name="HFALPHA">      0.00000000</i>
   <i name="MCALPHA">      0.00000000</i>
   <i name="ALDAX">      1.00000000</i>
   <i name="AGGAX">      1.00000000</i>
   <i name="ALDAC">      1.00000000</i>
   <i name="AGGAC">      1.00000000</i>
   <i type="int" name="NKREDX">     1</i>
   <i type="int" name="NKREDY">     1</i>
   <i type="int" name="NKREDZ">     1</i>
   <i type="logical" name="SHIFTRED"> F  </i>
   <i type="logical" name="ODDONLY"> F  </i>
   <i type="logical" name="EVENONLY"> F  </i>
   <i type="int" name="LMAXFOCK">     0</i>
   <i type="int" name="NMAXFOCKAE">     0</i>
   <i type="logical" name="LFOCKAEDFT"> F  </i>
   <i name="HFSCREEN">      0.00000000</i>
   <i name="HFSCREENC">      0.00000000</i>
   <i type="int" name="NBANDSGWLOW">     0</i>
  </separator>
  <separator name="vdW DFT" >
   <i type="logical" name="LUSE_VDW"> F  </i>
   <i name="Zab_VDW">     -0.84910000</i>
   <i name="PARAM1">      0.12340000</i>
   <i name="PARAM2">      1.00000000</i>
   <i name="PARAM3">      0.00000000</i>
  </separator>
  <separator name="model GW" >
   <i type="int" name="MODEL_GW">     0</i>
   <i name="MODEL_EPS0">    600.00000000</i>
   <i name="MODEL_ALPHA">      1.00000000</i>
  </separator>
  <separator name="linear response parameters" >
   <i type="logical" name="LEPSILON"> F  </i>
   <i type="logical" name="LRPA"> F  </i>
   <i type="logical" name="LNABLA"> F  </i>
   <i type="logical" name="LVEL"> F  </i>
   <i type="int" name="KINTER">     0</i>
   <i name="CSHIFT">      0.10000000</i>
   <i name="OMEGAMAX">     -1.00000000</i>
   <i name="DEG_THRESHOLD">      0.00200000</i>
   <i name="RTIME">     -0.10000000</i>
   <i name="WPLASMAI">      0.00000000</i>
   <v name="DFIELD">      0.00000000      0.00000000      0.00000000</v>
   <v name="WPLASMA">      0.00000000      0.00000000      0.00000000      0.00000000      0.00000000      0.00000000      0.00000000      0.00000000      0.00000000</v>
  </separator>
  <separator name="orbital magnetization" >
   <i type="logical" name="NUCIND"> F  </i>
   <v name="MAGPOS">      0.00000000      0.00000000      0.00000000</v>
   <i type="logical" name="LNICSALL"> T  </i>
   <i type="logical" name="ORBITALMAG"> F  </i>
   <i type="logical" name="LMAGBLOCH"> F  </i>
   <i type="logical" name="LCHIMAG"> F  </i>
   <i type="logical" name="LGAUGE"> T  </i>
   <i type="int" name="MAGATOM">     0</i>
   <v name="MAGDIPOL">      0.00000000      0.00000000      0.00000000</v>
   <v name="AVECCONST">      0.00000000      0.00000000      0.00000000</v>
  </separator>
  <separator name="response functions" >
   <i type="logical" name="LADDER"> F  </i>
   <i type="logical" name="LRPAFORCE"> F  </i>
   <i type="logical" name="LFXC"> F  </i>
   <i type="logical" name="LHARTREE"> T  </i>
   <i type="int" name="IBSE">     0</i>
   <v type="int" name="KPOINT">    -1     0     0     0</v>
   <i type="logical" name="LTCTE"> F  </i>
   <i type="logical" name="LTETE"> F  </i>
   <i type="logical" name="LTRIPLET"> F  </i>
   <i type="logical" name="LFXCEPS"> F  </i>
   <i type="logical" name="LFXHEG"> F  </i>
   <i type="int" name="NATURALO">     2</i>
   <i type="logical" name="L2ORDER"> F  </i>
   <i type="logical" name="LMP2LT"> F  </i>
   <i type="logical" name="LUSEW"> F  </i>
   <i name="ENCUTGW">     -2.00000000</i>
   <i name="ENCUTGWSOFT">     -2.00000000</i>
   <i name="ENCUTLF">     -1.00000000</i>
   <i type="int" name="LMAXMP2">    -1</i>
   <i name="SCISSOR">      0.00000000</i>
   <i type="int" name="NOMEGA">     0</i>
   <i type="int" name="NOMEGAR">     0</i>
   <i type="int" name="NBANDSGW">    -1</i>
   <i type="int" name="NBANDSO">    -1</i>
   <i type="int" name="NBANDSV">    -1</i>
   <i type="int" name="NELM">   300</i>
   <i type="int" name="NELMHF">     1</i>
   <i type="int" name="DIM">     3</i>
   <i type="int" name="ANTIRES">     0</i>
   <i name="OMEGAMAX">    -30.00000000</i>
   <i name="OMEGAMIN">    -30.00000000</i>
   <i name="OMEGATL">   -200.00000000</i>
   <i type="int" name="OMEGAGRID">   140</i>
   <i name="CSHIFT">     -0.10000000</i>
   <i type="logical" name="SELFENERGY"> F  </i>
   <i type="logical" name="LSPECTRAL"> F  </i>
   <i type="logical" name="LSPECTRALGW"> F  </i>
   <i type="logical" name="LSINGLES"> F  </i>
   <i type="logical" name="LFERMIGW"> F  </i>
   <i type="logical" name="ODDONLYGW"> F  </i>
   <i type="logical" name="EVENONLYGW"> F  </i>
   <i type="int" name="NKREDLFX">     1</i>
   <i type="int" name="NKREDLFY">     1</i>
   <i type="int" name="NKREDLFZ">     1</i>
   <i type="int" name="MAXMEM">  2800</i>
   <i type="int" name="TELESCOPE">     0</i>
   <i type="int" name="TAUPAR">     1</i>
   <i type="int" name="OMEGAPAR">    -1</i>
   <i name="LAMBDA">      1.00000000</i>
  </separator>
  <separator name="External order field" >
   <i name="OFIELD_KAPPA">      0.00000000</i>
   <v name="OFIELD_K">      0.00000000      0.00000000      0.00000000</v>
   <i name="OFIELD_Q6_NEAR">      0.00000000</i>
   <i name="OFIELD_Q6_FAR">      0.00000000</i>
   <i name="OFIELD_A">      0.00000000</i>
  </separator>
 </parameters>
 <atominfo>
  <atoms>       1 </atoms>
  <types>       1 </types>
  <array name="atoms" >
   <dimension dim="1">ion</dimension>
   <field type="string">element</field>
   <field type="int">atomtype</field>
   <set>
    <rc><c>Sn</c><c>   1</c></rc>
   </set>
  </array>
  <array name="atomtypes" >
   <dimension dim="1">type</dimension>
   <field type="int">atomspertype</field>
   <field type="string">element</field>
   <field>mass</field>
   <field>valence</field>
   <field type="string">pseudopotential</field>
   <set>
    <rc><c>   1</c><c>Sn</c><c>    118.71000000</c><c>     14.00000000</c><c>  PAW_PBE Sn_d 06Sep2000                </c></rc>
   </set>
  </array>
 </atominfo>
 <structure name="initialpos" >
  <crystal>
   <varray name="basis" >
    <v>      10.00000000       0.00000000       0.00000000 </v>
    <v>       0.00000000      10.00000000       0.00000000 </v>
    <v>       0.00000000       0.00000000      10.00000000 </v>
   </varray>
   <i name="volume">   1000.00000000 </i>
   <varray name="rec_basis" >
    <v>       0.10000000       0.00000000       0.00000000 </v>
    <v>       0.00000000       0.10000000       0.00000000 </v>
    <v>       0.00000000       0.00000000       0.10000000 </v>
   </varray>
  </crystal>
  <varray name="positions" >
   <v>       0.50000000       0.50000000       0.50000000 </v>
  </varray>
 </structure>
 <calculation>
  <scstep>
   <time name="total">    0.85    0.85</time>
   <energy>
    <i name="alphaZ">      1.11986550 </i>
    <i name="ewald">   -400.39350411 </i>
    <i name="hartreedc">  -1230.08993999 </i>
    <i name="XCdc">     55.23691591 </i>
    <i name="pawpsdc">   1568.85670986 </i>
    <i name="pawaedc">  -1606.08557785 </i>
    <i name="eentropy">     -0.00000000 </i>
    <i name="bandstr">   -193.10229839 </i>
    <i name="atom">   1893.10662729 </i>
    <i name="e_fr_energy">     88.64879824 </i>
    <i name="e_wo_entrp">     88.64879824 </i>
    <i name="e_0_energy">     88.64879824 </i>
   </energy>
  </scstep>
  <scstep>
   <time name="total">    0.37    0.37</time>
   <energy>
    <i name="e_fr_energy">     15.82834384 </i>
    <i name="e_wo_entrp">     15.82834384 </i>
    <i name="e_0_energy">     15.82834384 </i>
   </energy>
  </scstep>
  <scstep>
   <time name="total">    0.38    0.38</time>
   <energy>
    <i name="e_fr_energy">      6.27982436 </i>
    <i name="e_wo_entrp">      6.30202215 </i>
    <i name="e_0_energy">      6.29092326 </i>
   </energy>
  </scstep>
  <scstep>
   <time name="total">    0.38    0.38</time>
   <energy>
    <i name="e_fr_energy">      3.66936803 </i>
    <i name="e_wo_entrp">      3.67490421 </i>
    <i name="e_0_energy">      3.67213612 </i>
   </energy>
  </scstep>
  <scstep>
   <time name="total">    0.60    0.60</time>
   <energy>
    <i name="e_fr_energy">      1.69954617 </i>
    <i name="e_wo_entrp">      1.70108679 </i>
    <i name="e_0_energy">      1.70031648 </i>
   </energy>
  </scstep>
  <scstep>
   <time name="total">    0.93    0.95</time>
   <energy>
    <i name="e_fr_energy">      1.59403382 </i>
    <i name="e_wo_entrp">      1.59403441 </i>
    <i name="e_0_energy">      1.59403411 </i>
   </energy>
  </scstep>
  <scstep>
   <time name="total">    0.89    0.89</time>
   <energy>
    <i name="e_fr_energy">      0.02285835 </i>
    <i name="e_wo_entrp">      0.02285835 </i>
    <i name="e_0_energy">      0.02285835 </i>
   </energy>
  </scstep>
  <scstep>
   <time name="total">    0.91    0.91</time>
   <energy>
    <i name="e_fr_energy">     -0.44273223 </i>
    <i name="e_wo_entrp">     -0.44273223 </i>
    <i name="e_0_energy">     -0.44273223 </i>
   </energy>
  </scstep>
  <scstep>
   <time name="total">    0.91    0.91</time>
   <energy>
    <i name="e_fr_energy">     -0.53176467 </i>
    <i name="e_wo_entrp">     -0.53176467 </i>
    <i name="e_0_energy">     -0.53176467 </i>
   </energy>
  </scstep>
  <scstep>
   <time name="total">    0.89    0.89</time>
   <energy>
    <i name="e_fr_energy">     -0.60492854 </i>
    <i name="e_wo_entrp">     -0.60492854 </i>
    <i name="e_0_energy">     -0.60492854 </i>
   </energy>
  </scstep>
  <scstep>
   <time name="total">    0.92    0.92</time>
   <energy>
    <i name="e_fr_energy">     -0.63848890 </i>
    <i name="e_wo_entrp">     -0.63848890 </i>
    <i name="e_0_energy">     -0.63848890 </i>
   </energy>
  </scstep>
  <scstep>
   <time name="total">    0.89    0.89</time>
   <energy>
    <i name="e_fr_energy">     -0.64781122 </i>
    <i name="e_wo_entrp">     -0.64781122 </i>
    <i name="e_0_energy">     -0.64781122 </i>
   </energy>
  </scstep>
  <scstep>
   <time name="total">    0.90    0.91</time>
   <energy>
    <i name="e_fr_energy">     -0.65234795 </i>
    <i name="e_wo_entrp">     -0.65234795 </i>
    <i name="e_0_energy">     -0.65234795 </i>
   </energy>
  </scstep>
  <scstep>
   <time name="total">    0.90    0.90</time>
   <energy>
    <i name="e_fr_energy">     -0.65435734 </i>
    <i name="e_wo_entrp">     -0.65435734 </i>
    <i name="e_0_energy">     -0.65435734 </i>
   </energy>
  </scstep>
  <scstep>
   <time name="total">    0.89    0.89</time>
   <energy>
    <i name="e_fr_energy">     -0.65505098 </i>
    <i name="e_wo_entrp">     -0.65505077 </i>
    <i name="e_0_energy">     -0.65505087 </i>
   </energy>
  </scstep>
  <scstep>
   <time name="total">    0.90    0.90</time>
   <energy>
    <i name="e_fr_energy">     -0.65533106 </i>
    <i name="e_wo_entrp">     -0.65528152 </i>
    <i name="e_0_energy">     -0.65530629 </i>
   </energy>
  </scstep>
  <scstep>
   <time name="total">    0.90    0.90</time>
   <energy>
    <i name="e_fr_energy">     -0.65551844 </i>
    <i name="e_wo_entrp">     -0.65415872 </i>
    <i name="e_0_energy">     -0.65483858 </i>
   </energy>
  </scstep>
  <scstep>
   <time name="total">    0.89    0.89</time>
   <energy>
    <i name="e_fr_energy">     -0.65685518 </i>
    <i name="e_wo_entrp">     -0.64878546 </i>
    <i name="e_0_energy">     -0.65282032 </i>
   </energy>
  </scstep>
  <scstep>
   <time name="total">    0.89    0.89</time>
   <energy>
    <i name="e_fr_energy">     -0.66347959 </i>
    <i name="e_wo_entrp">     -0.64407443 </i>
    <i name="e_0_energy">     -0.65377701 </i>
   </energy>
  </scstep>
  <scstep>
   <time name="total">    0.90    0.90</time>
   <energy>
    <i name="e_fr_energy">     -0.67473074 </i>
    <i name="e_wo_entrp">     -0.64572583 </i>
    <i name="e_0_energy">     -0.66022829 </i>
   </energy>
  </scstep>
  <scstep>
   <time name="total">    0.90    0.90</time>
   <energy>
    <i name="e_fr_energy">     -0.68434880 </i>
    <i name="e_wo_entrp">     -0.64987780 </i>
    <i name="e_0_energy">     -0.66711330 </i>
   </energy>
  </scstep>
  <scstep>
   <time name="total">    0.89    0.89</time>
   <energy>
    <i name="e_fr_energy">     -0.68988721 </i>
    <i name="e_wo_entrp">     -0.65291472 </i>
    <i name="e_0_energy">     -0.67140097 </i>
   </energy>
  </scstep>
  <scstep>
   <time name="total">    0.92    0.92</time>
   <energy>
    <i name="e_fr_energy">     -0.69245298 </i>
    <i name="e_wo_entrp">     -0.65446757 </i>
    <i name="e_0_energy">     -0.67346027 </i>
   </energy>
  </scstep>
  <scstep>
   <time name="total">    0.90    0.90</time>
   <energy>
    <i name="e_fr_energy">     -0.69350523 </i>
    <i name="e_wo_entrp">     -0.65513967 </i>
    <i name="e_0_energy">     -0.67432245 </i>
   </energy>
  </scstep>
  <scstep>
   <time name="total">    0.90    0.90</time>
   <energy>
    <i name="e_fr_energy">     -0.69390531 </i>
    <i name="e_wo_entrp">     -0.65540503 </i>
    <i name="e_0_energy">     -0.67465517 </i>
   </energy>
  </scstep>
  <scstep>
   <time name="total">    0.89    0.89</time>
   <energy>
    <i name="e_fr_energy">     -0.69404906 </i>
    <i name="e_wo_entrp">     -0.65550351 </i>
    <i name="e_0_energy">     -0.67477629 </i>
   </energy>
  </scstep>
  <scstep>
   <time name="total">    0.95    0.95</time>
   <energy>
    <i name="alphaZ">      1.11986550 </i>
    <i name="ewald">   -400.39350411 </i>
    <i name="hartreedc">  -1232.23515080 </i>
    <i name="XCdc">     55.57173465 </i>
    <i name="pawpsdc">   1596.57464814 </i>
    <i name="pawaedc">  -1633.90106192 </i>
    <i name="eentropy">     -0.03855989 </i>
    <i name="bandstr">   -280.49871134 </i>
    <i name="atom">   1893.10662729 </i>
    <i name="e_fr_energy">     -0.69409812 </i>
    <i name="e_wo_entrp">     -0.65553823 </i>
    <i name="e_0_energy">     -0.67481817 </i>
   </energy>
  </scstep>
  <structure>
   <crystal>
    <varray name="basis" >
     <v>      10.00000000       0.00000000       0.00000000 </v>
     <v>       0.00000000      10.00000000       0.00000000 </v>
     <v>       0.00000000       0.00000000      10.00000000 </v>
    </varray>
    <i name="volume">   1000.00000000 </i>
    <varray name="rec_basis" >
     <v>       0.10000000       0.00000000       0.00000000 </v>
     <v>       0.00000000       0.10000000       0.00000000 </v>
     <v>       0.00000000       0.00000000       0.10000000 </v>
    </varray>
   </crystal>
   <varray name="positions" >
    <v>       0.50000000       0.50000000       0.50000000 </v>
   </varray>
  </structure>
  <varray name="forces" >
   <v>       0.00000000       0.00000000       0.00000000 </v>
  </varray>
  <varray name="stress" >
   <v>       0.02907917       0.00000000       0.00000000 </v>
   <v>      -0.00000000       0.02907917       0.00000000 </v>
   <v>       0.00000000      -0.00000000       0.02907917 </v>
  </varray>
  <energy>
   <i name="e_fr_energy">     -0.69409812 </i>
   <i name="e_wo_entrp">     -0.67481817 </i>
   <i name="e_0_energy">     -0.03855989 </i>
  </energy>
  <time name="totalsc">   29.93   35.12</time>
  <eigenvalues>
   <array>
    <dimension dim="1">band</dimension>
    <dimension dim="2">kpoint</dimension>
    <dimension dim="3">spin</dimension>
    <field>eigene</field>
    <field>occ</field>
    <set>
     <set comment="spin 1">
      <set comment="kpoint 1">
       <r>  -25.3766    1.0000 </r>
       <r>  -25.3766    1.0000 </r>
       <r>  -25.3765    1.0000 </r>
       <r>  -25.3765    1.0000 </r>
       <r>  -25.3765    1.0000 </r>
       <r>  -10.5979    1.0000 </r>
       <r>   -3.7842    0.6713 </r>
       <r>   -3.7842    0.6708 </r>
       <r>   -3.7842    0.6578 </r>
       <r>   -0.5723    0.0000 </r>
       <r>    0.7138    0.0000 </r>
       <r>    0.7138    0.0000 </r>
       <r>    1.1600    0.0000 </r>
       <r>    1.1603    0.0000 </r>
       <r>    1.1617    0.0000 </r>
       <r>    1.3817    0.0000 </r>
       <r>    1.5091    0.0000 </r>
       <r>    1.5094    0.0000 </r>
       <r>    1.5095    0.0000 </r>
       <r>    2.4304    0.0000 </r>
       <r>    2.4306    0.0000 </r>
       <r>    2.4379    0.0000 </r>
       <r>    2.4401    0.0000 </r>
       <r>    2.4407    0.0000 </r>
       <r>    2.9321    0.0000 </r>
       <r>    2.9339    0.0000 </r>
       <r>    2.9362    0.0000 </r>
       <r>    3.3061    0.0000 </r>
       <r>    3.5366    0.0000 </r>
       <r>    3.6010    0.0000 </r>
       <r>    3.6015    0.0000 </r>
       <r>    3.6020    0.0000 </r>
       <r>    3.9478    0.0000 </r>
       <r>    3.9486    0.0000 </r>
       <r>    4.1710    0.0000 </r>
       <r>    4.3998    0.0000 </r>
      </set>
     </set>
     <set comment="spin 2">
      <set comment="kpoint 1">
       <r>  -25.2091    1.0000 </r>
       <r>  -25.2091    1.0000 </r>
       <r>  -25.2090    1.0000 </r>
       <r>  -25.2090    1.0000 </r>
       <r>  -25.2090    1.0000 </r>
       <r>   -9.4045    1.0000 </r>
       <r>   -2.4861    0.0000 </r>
       <r>   -2.4861    0.0000 </r>
       <r>   -2.4860    0.0000 </r>
       <r>    0.1025    0.0000 </r>
       <r>    1.4261    0.0000 </r>
       <r>    1.4262    0.0000 </r>
       <r>    1.8220    0.0000 </r>
       <r>    1.8224    0.0000 </r>
       <r>    1.8224    0.0000 </r>
       <r>    1.8250    0.0000 </r>
       <r>    2.4275    0.0000 </r>
       <r>    2.4276    0.0000 </r>
       <r>    2.4278    0.0000 </r>
       <r>    2.9364    0.0000 </r>
       <r>    2.9366    0.0000 </r>
       <r>    3.0733    0.0000 </r>
       <r>    3.0734    0.0000 </r>
       <r>    3.0739    0.0000 </r>
       <r>    3.5447    0.0000 </r>
       <r>    3.5515    0.0000 </r>
       <r>    3.5578    0.0000 </r>
       <r>    3.7097    0.0000 </r>
       <r>    4.1766    0.0000 </r>
       <r>    4.1795    0.0000 </r>
       <r>    4.1796    0.0000 </r>
       <r>    4.3353    0.0000 </r>
       <r>    4.7835    0.0000 </r>
       <r>    4.7837    0.0000 </r>
       <r>    5.0030    0.0000 </r>
       <r>    5.4015    0.0000 </r>
      </set>
     </set>
    </set>
   </array>
  </eigenvalues>
  <separator name="orbital magnetization" >
   <v name="MAGDIPOLOUT">      0.00000000      0.00000000      0.00000000</v>
  </separator>
  <dos>
   <i name="efermi">     -3.76901605 </i>
   <total>
    <array>
     <dimension dim="1">gridpoints</dimension>
     <dimension dim="2">spin</dimension>
     <field>energy</field>
     <field>total</field>
     <field>integrated</field>
     <set>
      <set comment="spin 1">
       <r>   -26.9155     0.0000     0.0000 </r>
       <r>   -26.8027     0.0000     0.0000 </r>
       <r>   -26.6898     0.0000     0.0000 </r>
       <r>   -26.5770     0.0000     0.0000 </r>
       <r>   -26.4641     0.0000     0.0000 </r>
       <r>   -26.3513     0.0000     0.0000 </r>
       <r>   -26.2384     0.0000     0.0000 </r>
       <r>   -26.1255     0.0000     0.0000 </r>
       <r>   -26.0127     0.0000     0.0000 </r>
       <r>   -25.8998     0.0000     0.0000 </r>
       <r>   -25.7870     0.0000     0.0000 </r>
       <r>   -25.6741     0.0000     0.0000 </r>
       <r>   -25.5613     0.0000     0.0000 </r>
       <r>   -25.4484     0.9301     0.1050 </r>
       <r>   -25.3356    37.9095     4.3832 </r>
       <r>   -25.2227     5.4655     5.0000 </r>
       <r>   -25.1099     0.0003     5.0000 </r>
       <r>   -24.9970     0.0000     5.0000 </r>
       <r>   -24.8842     0.0000     5.0000 </r>
       <r>   -24.7713     0.0000     5.0000 </r>
       <r>   -24.6585     0.0000     5.0000 </r>
       <r>   -24.5456     0.0000     5.0000 </r>
       <r>   -24.4328     0.0000     5.0000 </r>
       <r>   -24.3199     0.0000     5.0000 </r>
       <r>   -24.2070     0.0000     5.0000 </r>
       <r>   -24.0942     0.0000     5.0000 </r>
       <r>   -23.9813     0.0000     5.0000 </r>
       <r>   -23.8685     0.0000     5.0000 </r>
       <r>   -23.7556     0.0000     5.0000 </r>
       <r>   -23.6428     0.0000     5.0000 </r>
       <r>   -23.5299     0.0000     5.0000 </r>
       <r>   -23.4171     0.0000     5.0000 </r>
       <r>   -23.3042     0.0000     5.0000 </r>
       <r>   -23.1914     0.0000     5.0000 </r>
       <r>   -23.0785     0.0000     5.0000 </r>
       <r>   -22.9657     0.0000     5.0000 </r>
       <r>   -22.8528     0.0000     5.0000 </r>
       <r>   -22.7400     0.0000     5.0000 </r>
       <r>   -22.6271     0.0000     5.0000 </r>
       <r>   -22.5143     0.0000     5.0000 </r>
       <r>   -22.4014     0.0000     5.0000 </r>
       <r>   -22.2885     0.0000     5.0000 </r>
       <r>   -22.1757     0.0000     5.0000 </r>
       <r>   -22.0628     0.0000     5.0000 </r>
       <r>   -21.9500     0.0000     5.0000 </r>
       <r>   -21.8371     0.0000     5.0000 </r>
       <r>   -21.7243     0.0000     5.0000 </r>
       <r>   -21.6114     0.0000     5.0000 </r>
       <r>   -21.4986     0.0000     5.0000 </r>
       <r>   -21.3857     0.0000     5.0000 </r>
       <r>   -21.2729     0.0000     5.0000 </r>
       <r>   -21.1600     0.0000     5.0000 </r>
       <r>   -21.0472     0.0000     5.0000 </r>
       <r>   -20.9343     0.0000     5.0000 </r>
       <r>   -20.8215     0.0000     5.0000 </r>
       <r>   -20.7086     0.0000     5.0000 </r>
       <r>   -20.5958     0.0000     5.0000 </r>
       <r>   -20.4829     0.0000     5.0000 </r>
       <r>   -20.3700     0.0000     5.0000 </r>
       <r>   -20.2572     0.0000     5.0000 </r>
       <r>   -20.1443     0.0000     5.0000 </r>
       <r>   -20.0315     0.0000     5.0000 </r>
       <r>   -19.9186     0.0000     5.0000 </r>
       <r>   -19.8058     0.0000     5.0000 </r>
       <r>   -19.6929     0.0000     5.0000 </r>
       <r>   -19.5801     0.0000     5.0000 </r>
       <r>   -19.4672     0.0000     5.0000 </r>
       <r>   -19.3544     0.0000     5.0000 </r>
       <r>   -19.2415     0.0000     5.0000 </r>
       <r>   -19.1287     0.0000     5.0000 </r>
       <r>   -19.0158     0.0000     5.0000 </r>
       <r>   -18.9030     0.0000     5.0000 </r>
       <r>   -18.7901     0.0000     5.0000 </r>
       <r>   -18.6773     0.0000     5.0000 </r>
       <r>   -18.5644     0.0000     5.0000 </r>
       <r>   -18.4515     0.0000     5.0000 </r>
       <r>   -18.3387     0.0000     5.0000 </r>
       <r>   -18.2258     0.0000     5.0000 </r>
       <r>   -18.1130     0.0000     5.0000 </r>
       <r>   -18.0001     0.0000     5.0000 </r>
       <r>   -17.8873     0.0000     5.0000 </r>
       <r>   -17.7744     0.0000     5.0000 </r>
       <r>   -17.6616     0.0000     5.0000 </r>
       <r>   -17.5487     0.0000     5.0000 </r>
       <r>   -17.4359     0.0000     5.0000 </r>
       <r>   -17.3230     0.0000     5.0000 </r>
       <r>   -17.2102     0.0000     5.0000 </r>
       <r>   -17.0973     0.0000     5.0000 </r>
       <r>   -16.9845     0.0000     5.0000 </r>
       <r>   -16.8716     0.0000     5.0000 </r>
       <r>   -16.7588     0.0000     5.0000 </r>
       <r>   -16.6459     0.0000     5.0000 </r>
       <r>   -16.5330     0.0000     5.0000 </r>
       <r>   -16.4202     0.0000     5.0000 </r>
       <r>   -16.3073     0.0000     5.0000 </r>
       <r>   -16.1945     0.0000     5.0000 </r>
       <r>   -16.0816     0.0000     5.0000 </r>
       <r>   -15.9688     0.0000     5.0000 </r>
       <r>   -15.8559     0.0000     5.0000 </r>
       <r>   -15.7431     0.0000     5.0000 </r>
       <r>   -15.6302     0.0000     5.0000 </r>
       <r>   -15.5174     0.0000     5.0000 </r>
       <r>   -15.4045     0.0000     5.0000 </r>
       <r>   -15.2917     0.0000     5.0000 </r>
       <r>   -15.1788     0.0000     5.0000 </r>
       <r>   -15.0660     0.0000     5.0000 </r>
       <r>   -14.9531     0.0000     5.0000 </r>
       <r>   -14.8403     0.0000     5.0000 </r>
       <r>   -14.7274     0.0000     5.0000 </r>
       <r>   -14.6146     0.0000     5.0000 </r>
       <r>   -14.5017     0.0000     5.0000 </r>
       <r>   -14.3888     0.0000     5.0000 </r>
       <r>   -14.2760     0.0000     5.0000 </r>
       <r>   -14.1631     0.0000     5.0000 </r>
       <r>   -14.0503     0.0000     5.0000 </r>
       <r>   -13.9374     0.0000     5.0000 </r>
       <r>   -13.8246     0.0000     5.0000 </r>
       <r>   -13.7117     0.0000     5.0000 </r>
       <r>   -13.5989     0.0000     5.0000 </r>
       <r>   -13.4860     0.0000     5.0000 </r>
       <r>   -13.3732     0.0000     5.0000 </r>
       <r>   -13.2603     0.0000     5.0000 </r>
       <r>   -13.1475     0.0000     5.0000 </r>
       <r>   -13.0346     0.0000     5.0000 </r>
       <r>   -12.9218     0.0000     5.0000 </r>
       <r>   -12.8089     0.0000     5.0000 </r>
       <r>   -12.6961     0.0000     5.0000 </r>
       <r>   -12.5832     0.0000     5.0000 </r>
       <r>   -12.4703     0.0000     5.0000 </r>
       <r>   -12.3575     0.0000     5.0000 </r>
       <r>   -12.2446     0.0000     5.0000 </r>
       <r>   -12.1318     0.0000     5.0000 </r>
       <r>   -12.0189     0.0000     5.0000 </r>
       <r>   -11.9061     0.0000     5.0000 </r>
       <r>   -11.7932     0.0000     5.0000 </r>
       <r>   -11.6804     0.0000     5.0000 </r>
       <r>   -11.5675     0.0000     5.0000 </r>
       <r>   -11.4547     0.0000     5.0000 </r>
       <r>   -11.3418     0.0000     5.0000 </r>
       <r>   -11.2290     0.0000     5.0000 </r>
       <r>   -11.1161     0.0000     5.0000 </r>
       <r>   -11.0033     0.0000     5.0000 </r>
       <r>   -10.8904     0.0000     5.0000 </r>
       <r>   -10.7776     0.0000     5.0000 </r>
       <r>   -10.6647     0.2605     5.0294 </r>
       <r>   -10.5518     7.7462     5.9036 </r>
       <r>   -10.4390     0.8544     6.0000 </r>
       <r>   -10.3261     0.0000     6.0000 </r>
       <r>   -10.2133     0.0000     6.0000 </r>
       <r>   -10.1004     0.0000     6.0000 </r>
       <r>    -9.9876     0.0000     6.0000 </r>
       <r>    -9.8747     0.0000     6.0000 </r>
       <r>    -9.7619     0.0000     6.0000 </r>
       <r>    -9.6490     0.0000     6.0000 </r>
       <r>    -9.5362     0.0000     6.0000 </r>
       <r>    -9.4233     0.0000     6.0000 </r>
       <r>    -9.3105     0.0000     6.0000 </r>
       <r>    -9.1976     0.0000     6.0000 </r>
       <r>    -9.0848     0.0000     6.0000 </r>
       <r>    -8.9719     0.0000     6.0000 </r>
       <r>    -8.8591     0.0000     6.0000 </r>
       <r>    -8.7462     0.0000     6.0000 </r>
       <r>    -8.6333     0.0000     6.0000 </r>
       <r>    -8.5205     0.0000     6.0000 </r>
       <r>    -8.4076     0.0000     6.0000 </r>
       <r>    -8.2948     0.0000     6.0000 </r>
       <r>    -8.1819     0.0000     6.0000 </r>
       <r>    -8.0691     0.0000     6.0000 </r>
       <r>    -7.9562     0.0000     6.0000 </r>
       <r>    -7.8434     0.0000     6.0000 </r>
       <r>    -7.7305     0.0000     6.0000 </r>
       <r>    -7.6177     0.0000     6.0000 </r>
       <r>    -7.5048     0.0000     6.0000 </r>
       <r>    -7.3920     0.0000     6.0000 </r>
       <r>    -7.2791     0.0000     6.0000 </r>
       <r>    -7.1663     0.0000     6.0000 </r>
       <r>    -7.0534     0.0000     6.0000 </r>
       <r>    -6.9406     0.0000     6.0000 </r>
       <r>    -6.8277     0.0000     6.0000 </r>
       <r>    -6.7148     0.0000     6.0000 </r>
       <r>    -6.6020     0.0000     6.0000 </r>
       <r>    -6.4891     0.0000     6.0000 </r>
       <r>    -6.3763     0.0000     6.0000 </r>
       <r>    -6.2634     0.0000     6.0000 </r>
       <r>    -6.1506     0.0000     6.0000 </r>
       <r>    -6.0377     0.0000     6.0000 </r>
       <r>    -5.9249     0.0000     6.0000 </r>
       <r>    -5.8120     0.0000     6.0000 </r>
       <r>    -5.6992     0.0000     6.0000 </r>
       <r>    -5.5863     0.0000     6.0000 </r>
       <r>    -5.4735     0.0000     6.0000 </r>
       <r>    -5.3606     0.0000     6.0000 </r>
       <r>    -5.2478     0.0000     6.0000 </r>
       <r>    -5.1349     0.0000     6.0000 </r>
       <r>    -5.0221     0.0000     6.0000 </r>
       <r>    -4.9092     0.0000     6.0000 </r>
       <r>    -4.7963     0.0000     6.0000 </r>
       <r>    -4.6835     0.0000     6.0000 </r>
       <r>    -4.5706     0.0000     6.0000 </r>
       <r>    -4.4578     0.0000     6.0000 </r>
       <r>    -4.3449     0.0000     6.0000 </r>
       <r>    -4.2321     0.0000     6.0000 </r>
       <r>    -4.1192     0.0000     6.0000 </r>
       <r>    -4.0064     0.0000     6.0000 </r>
       <r>    -3.8935     0.0265     6.0030 </r>
       <r>    -3.7807    14.3355     7.6208 </r>
       <r>    -3.6678    12.2081     8.9985 </r>
       <r>    -3.5550     0.0132     9.0000 </r>
       <r>    -3.4421     0.0000     9.0000 </r>
       <r>    -3.3293     0.0000     9.0000 </r>
       <r>    -3.2164     0.0000     9.0000 </r>
       <r>    -3.1036     0.0000     9.0000 </r>
       <r>    -2.9907     0.0000     9.0000 </r>
       <r>    -2.8778     0.0000     9.0000 </r>
       <r>    -2.7650     0.0000     9.0000 </r>
       <r>    -2.6521     0.0000     9.0000 </r>
       <r>    -2.5393     0.0000     9.0000 </r>
       <r>    -2.4264     0.0000     9.0000 </r>
       <r>    -2.3136     0.0000     9.0000 </r>
       <r>    -2.2007     0.0000     9.0000 </r>
       <r>    -2.0879     0.0000     9.0000 </r>
       <r>    -1.9750     0.0000     9.0000 </r>
       <r>    -1.8622     0.0000     9.0000 </r>
       <r>    -1.7493     0.0000     9.0000 </r>
       <r>    -1.6365     0.0000     9.0000 </r>
       <r>    -1.5236     0.0000     9.0000 </r>
       <r>    -1.4108     0.0000     9.0000 </r>
       <r>    -1.2979     0.0000     9.0000 </r>
       <r>    -1.1851     0.0000     9.0000 </r>
       <r>    -1.0722     0.0000     9.0000 </r>
       <r>    -0.9593     0.0000     9.0000 </r>
       <r>    -0.8465     0.0000     9.0000 </r>
       <r>    -0.7336     0.0000     9.0000 </r>
       <r>    -0.6208     0.7539     9.0851 </r>
       <r>    -0.5079     7.8027     9.9656 </r>
       <r>    -0.3951     0.3044    10.0000 </r>
       <r>    -0.2822     0.0000    10.0000 </r>
       <r>    -0.1694     0.0000    10.0000 </r>
       <r>    -0.0565     0.0000    10.0000 </r>
       <r>     0.0563     0.0000    10.0000 </r>
       <r>     0.1692     0.0000    10.0000 </r>
       <r>     0.2820     0.0000    10.0000 </r>
       <r>     0.3949     0.0000    10.0000 </r>
       <r>     0.5077     0.0000    10.0000 </r>
       <r>     0.6206     0.0745    10.0084 </r>
       <r>     0.7334    12.5277    11.4222 </r>
       <r>     0.8463     5.1185    11.9998 </r>
       <r>     0.9592     0.0016    12.0000 </r>
       <r>     1.0720     0.1619    12.0183 </r>
       <r>     1.1849    19.8585    14.2594 </r>
       <r>     1.2977     6.6390    15.0086 </r>
       <r>     1.4106     7.0173    15.8005 </r>
       <r>     1.5234    19.1798    17.9650 </r>
       <r>     1.6363     9.1668    18.9995 </r>
       <r>     1.7491     0.0044    19.0000 </r>
       <r>     1.8620     0.0000    19.0000 </r>
       <r>     1.9748     0.0000    19.0000 </r>
       <r>     2.0877     0.0000    19.0000 </r>
       <r>     2.2005     0.0000    19.0000 </r>
       <r>     2.3134     0.0130    19.0015 </r>
       <r>     2.4262    17.3799    20.9628 </r>
       <r>     2.5391    26.8284    23.9905 </r>
       <r>     2.6519     0.0841    24.0000 </r>
       <r>     2.7648     0.0000    24.0000 </r>
       <r>     2.8777     1.4764    24.1666 </r>
       <r>     2.9905    23.6356    26.8340 </r>
       <r>     3.1034     1.4712    27.0000 </r>
       <r>     3.2162     0.0489    27.0055 </r>
       <r>     3.3291     6.5283    27.7423 </r>
       <r>     3.4419     2.3161    28.0036 </r>
       <r>     3.5548     8.6139    28.9757 </r>
       <r>     3.6676    25.9819    31.9079 </r>
       <r>     3.7805     0.8164    32.0000 </r>
       <r>     3.8933     1.0693    32.1207 </r>
       <r>     4.0062    15.7575    33.8990 </r>
       <r>     4.1190     1.5231    34.0708 </r>
       <r>     4.2319     7.8568    34.9575 </r>
       <r>     4.3447     0.9042    35.0596 </r>
       <r>     4.4576     7.8798    35.9488 </r>
       <r>     4.5704     0.4536    36.0000 </r>
       <r>     4.6833     0.0000    36.0000 </r>
       <r>     4.7962     0.0000    36.0000 </r>
       <r>     4.9090     0.0000    36.0000 </r>
       <r>     5.0219     0.0000    36.0000 </r>
       <r>     5.1347     0.0000    36.0000 </r>
       <r>     5.2476     0.0000    36.0000 </r>
       <r>     5.3604     0.0000    36.0000 </r>
       <r>     5.4733     0.0000    36.0000 </r>
       <r>     5.5861     0.0000    36.0000 </r>
       <r>     5.6990     0.0000    36.0000 </r>
       <r>     5.8118     0.0000    36.0000 </r>
       <r>     5.9247     0.0000    36.0000 </r>
       <r>     6.0375     0.0000    36.0000 </r>
       <r>     6.1504     0.0000    36.0000 </r>
       <r>     6.2632     0.0000    36.0000 </r>
       <r>     6.3761     0.0000    36.0000 </r>
       <r>     6.4889     0.0000    36.0000 </r>
       <r>     6.6018     0.0000    36.0000 </r>
       <r>     6.7147     0.0000    36.0000 </r>
       <r>     6.8275     0.0000    36.0000 </r>
       <r>     6.9404     0.0000    36.0000 </r>
      </set>
      <set comment="spin 2">
       <r>   -26.9155     0.0000     0.0000 </r>
       <r>   -26.8027     0.0000     0.0000 </r>
       <r>   -26.6898     0.0000     0.0000 </r>
       <r>   -26.5770     0.0000     0.0000 </r>
       <r>   -26.4641     0.0000     0.0000 </r>
       <r>   -26.3513     0.0000     0.0000 </r>
       <r>   -26.2384     0.0000     0.0000 </r>
       <r>   -26.1255     0.0000     0.0000 </r>
       <r>   -26.0127     0.0000     0.0000 </r>
       <r>   -25.8998     0.0000     0.0000 </r>
       <r>   -25.7870     0.0000     0.0000 </r>
       <r>   -25.6741     0.0000     0.0000 </r>
       <r>   -25.5613     0.0000     0.0000 </r>
       <r>   -25.4484     0.0000     0.0000 </r>
       <r>   -25.3356     0.0076     0.0009 </r>
       <r>   -25.2227    15.4734     1.7471 </r>
       <r>   -25.1099    28.7130     4.9874 </r>
       <r>   -24.9970     0.1114     5.0000 </r>
       <r>   -24.8842     0.0000     5.0000 </r>
       <r>   -24.7713     0.0000     5.0000 </r>
       <r>   -24.6585     0.0000     5.0000 </r>
       <r>   -24.5456     0.0000     5.0000 </r>
       <r>   -24.4328     0.0000     5.0000 </r>
       <r>   -24.3199     0.0000     5.0000 </r>
       <r>   -24.2070     0.0000     5.0000 </r>
       <r>   -24.0942     0.0000     5.0000 </r>
       <r>   -23.9813     0.0000     5.0000 </r>
       <r>   -23.8685     0.0000     5.0000 </r>
       <r>   -23.7556     0.0000     5.0000 </r>
       <r>   -23.6428     0.0000     5.0000 </r>
       <r>   -23.5299     0.0000     5.0000 </r>
       <r>   -23.4171     0.0000     5.0000 </r>
       <r>   -23.3042     0.0000     5.0000 </r>
       <r>   -23.1914     0.0000     5.0000 </r>
       <r>   -23.0785     0.0000     5.0000 </r>
       <r>   -22.9657     0.0000     5.0000 </r>
       <r>   -22.8528     0.0000     5.0000 </r>
       <r>   -22.7400     0.0000     5.0000 </r>
       <r>   -22.6271     0.0000     5.0000 </r>
       <r>   -22.5143     0.0000     5.0000 </r>
       <r>   -22.4014     0.0000     5.0000 </r>
       <r>   -22.2885     0.0000     5.0000 </r>
       <r>   -22.1757     0.0000     5.0000 </r>
       <r>   -22.0628     0.0000     5.0000 </r>
       <r>   -21.9500     0.0000     5.0000 </r>
       <r>   -21.8371     0.0000     5.0000 </r>
       <r>   -21.7243     0.0000     5.0000 </r>
       <r>   -21.6114     0.0000     5.0000 </r>
       <r>   -21.4986     0.0000     5.0000 </r>
       <r>   -21.3857     0.0000     5.0000 </r>
       <r>   -21.2729     0.0000     5.0000 </r>
       <r>   -21.1600     0.0000     5.0000 </r>
       <r>   -21.0472     0.0000     5.0000 </r>
       <r>   -20.9343     0.0000     5.0000 </r>
       <r>   -20.8215     0.0000     5.0000 </r>
       <r>   -20.7086     0.0000     5.0000 </r>
       <r>   -20.5958     0.0000     5.0000 </r>
       <r>   -20.4829     0.0000     5.0000 </r>
       <r>   -20.3700     0.0000     5.0000 </r>
       <r>   -20.2572     0.0000     5.0000 </r>
       <r>   -20.1443     0.0000     5.0000 </r>
       <r>   -20.0315     0.0000     5.0000 </r>
       <r>   -19.9186     0.0000     5.0000 </r>
       <r>   -19.8058     0.0000     5.0000 </r>
       <r>   -19.6929     0.0000     5.0000 </r>
       <r>   -19.5801     0.0000     5.0000 </r>
       <r>   -19.4672     0.0000     5.0000 </r>
       <r>   -19.3544     0.0000     5.0000 </r>
       <r>   -19.2415     0.0000     5.0000 </r>
       <r>   -19.1287     0.0000     5.0000 </r>
       <r>   -19.0158     0.0000     5.0000 </r>
       <r>   -18.9030     0.0000     5.0000 </r>
       <r>   -18.7901     0.0000     5.0000 </r>
       <r>   -18.6773     0.0000     5.0000 </r>
       <r>   -18.5644     0.0000     5.0000 </r>
       <r>   -18.4515     0.0000     5.0000 </r>
       <r>   -18.3387     0.0000     5.0000 </r>
       <r>   -18.2258     0.0000     5.0000 </r>
       <r>   -18.1130     0.0000     5.0000 </r>
       <r>   -18.0001     0.0000     5.0000 </r>
       <r>   -17.8873     0.0000     5.0000 </r>
       <r>   -17.7744     0.0000     5.0000 </r>
       <r>   -17.6616     0.0000     5.0000 </r>
       <r>   -17.5487     0.0000     5.0000 </r>
       <r>   -17.4359     0.0000     5.0000 </r>
       <r>   -17.3230     0.0000     5.0000 </r>
       <r>   -17.2102     0.0000     5.0000 </r>
       <r>   -17.0973     0.0000     5.0000 </r>
       <r>   -16.9845     0.0000     5.0000 </r>
       <r>   -16.8716     0.0000     5.0000 </r>
       <r>   -16.7588     0.0000     5.0000 </r>
       <r>   -16.6459     0.0000     5.0000 </r>
       <r>   -16.5330     0.0000     5.0000 </r>
       <r>   -16.4202     0.0000     5.0000 </r>
       <r>   -16.3073     0.0000     5.0000 </r>
       <r>   -16.1945     0.0000     5.0000 </r>
       <r>   -16.0816     0.0000     5.0000 </r>
       <r>   -15.9688     0.0000     5.0000 </r>
       <r>   -15.8559     0.0000     5.0000 </r>
       <r>   -15.7431     0.0000     5.0000 </r>
       <r>   -15.6302     0.0000     5.0000 </r>
       <r>   -15.5174     0.0000     5.0000 </r>
       <r>   -15.4045     0.0000     5.0000 </r>
       <r>   -15.2917     0.0000     5.0000 </r>
       <r>   -15.1788     0.0000     5.0000 </r>
       <r>   -15.0660     0.0000     5.0000 </r>
       <r>   -14.9531     0.0000     5.0000 </r>
       <r>   -14.8403     0.0000     5.0000 </r>
       <r>   -14.7274     0.0000     5.0000 </r>
       <r>   -14.6146     0.0000     5.0000 </r>
       <r>   -14.5017     0.0000     5.0000 </r>
       <r>   -14.3888     0.0000     5.0000 </r>
       <r>   -14.2760     0.0000     5.0000 </r>
       <r>   -14.1631     0.0000     5.0000 </r>
       <r>   -14.0503     0.0000     5.0000 </r>
       <r>   -13.9374     0.0000     5.0000 </r>
       <r>   -13.8246     0.0000     5.0000 </r>
       <r>   -13.7117     0.0000     5.0000 </r>
       <r>   -13.5989     0.0000     5.0000 </r>
       <r>   -13.4860     0.0000     5.0000 </r>
       <r>   -13.3732     0.0000     5.0000 </r>
       <r>   -13.2603     0.0000     5.0000 </r>
       <r>   -13.1475     0.0000     5.0000 </r>
       <r>   -13.0346     0.0000     5.0000 </r>
       <r>   -12.9218     0.0000     5.0000 </r>
       <r>   -12.8089     0.0000     5.0000 </r>
       <r>   -12.6961     0.0000     5.0000 </r>
       <r>   -12.5832     0.0000     5.0000 </r>
       <r>   -12.4703     0.0000     5.0000 </r>
       <r>   -12.3575     0.0000     5.0000 </r>
       <r>   -12.2446     0.0000     5.0000 </r>
       <r>   -12.1318     0.0000     5.0000 </r>
       <r>   -12.0189     0.0000     5.0000 </r>
       <r>   -11.9061     0.0000     5.0000 </r>
       <r>   -11.7932     0.0000     5.0000 </r>
       <r>   -11.6804     0.0000     5.0000 </r>
       <r>   -11.5675     0.0000     5.0000 </r>
       <r>   -11.4547     0.0000     5.0000 </r>
       <r>   -11.3418     0.0000     5.0000 </r>
       <r>   -11.2290     0.0000     5.0000 </r>
       <r>   -11.1161     0.0000     5.0000 </r>
       <r>   -11.0033     0.0000     5.0000 </r>
       <r>   -10.8904     0.0000     5.0000 </r>
       <r>   -10.7776     0.0000     5.0000 </r>
       <r>   -10.6647     0.0000     5.0000 </r>
       <r>   -10.5518     0.0000     5.0000 </r>
       <r>   -10.4390     0.0000     5.0000 </r>
       <r>   -10.3261     0.0000     5.0000 </r>
       <r>   -10.2133     0.0000     5.0000 </r>
       <r>   -10.1004     0.0000     5.0000 </r>
       <r>    -9.9876     0.0000     5.0000 </r>
       <r>    -9.8747     0.0000     5.0000 </r>
       <r>    -9.7619     0.0000     5.0000 </r>
       <r>    -9.6490     0.0000     5.0000 </r>
       <r>    -9.5362     0.0009     5.0001 </r>
       <r>    -9.4233     2.6301     5.2969 </r>
       <r>    -9.3105     6.1954     5.9961 </r>
       <r>    -9.1976     0.0348     6.0000 </r>
       <r>    -9.0848     0.0000     6.0000 </r>
       <r>    -8.9719     0.0000     6.0000 </r>
       <r>    -8.8591     0.0000     6.0000 </r>
       <r>    -8.7462     0.0000     6.0000 </r>
       <r>    -8.6333     0.0000     6.0000 </r>
       <r>    -8.5205     0.0000     6.0000 </r>
       <r>    -8.4076     0.0000     6.0000 </r>
       <r>    -8.2948     0.0000     6.0000 </r>
       <r>    -8.1819     0.0000     6.0000 </r>
       <r>    -8.0691     0.0000     6.0000 </r>
       <r>    -7.9562     0.0000     6.0000 </r>
       <r>    -7.8434     0.0000     6.0000 </r>
       <r>    -7.7305     0.0000     6.0000 </r>
       <r>    -7.6177     0.0000     6.0000 </r>
       <r>    -7.5048     0.0000     6.0000 </r>
       <r>    -7.3920     0.0000     6.0000 </r>
       <r>    -7.2791     0.0000     6.0000 </r>
       <r>    -7.1663     0.0000     6.0000 </r>
       <r>    -7.0534     0.0000     6.0000 </r>
       <r>    -6.9406     0.0000     6.0000 </r>
       <r>    -6.8277     0.0000     6.0000 </r>
       <r>    -6.7148     0.0000     6.0000 </r>
       <r>    -6.6020     0.0000     6.0000 </r>
       <r>    -6.4891     0.0000     6.0000 </r>
       <r>    -6.3763     0.0000     6.0000 </r>
       <r>    -6.2634     0.0000     6.0000 </r>
       <r>    -6.1506     0.0000     6.0000 </r>
       <r>    -6.0377     0.0000     6.0000 </r>
       <r>    -5.9249     0.0000     6.0000 </r>
       <r>    -5.8120     0.0000     6.0000 </r>
       <r>    -5.6992     0.0000     6.0000 </r>
       <r>    -5.5863     0.0000     6.0000 </r>
       <r>    -5.4735     0.0000     6.0000 </r>
       <r>    -5.3606     0.0000     6.0000 </r>
       <r>    -5.2478     0.0000     6.0000 </r>
       <r>    -5.1349     0.0000     6.0000 </r>
       <r>    -5.0221     0.0000     6.0000 </r>
       <r>    -4.9092     0.0000     6.0000 </r>
       <r>    -4.7963     0.0000     6.0000 </r>
       <r>    -4.6835     0.0000     6.0000 </r>
       <r>    -4.5706     0.0000     6.0000 </r>
       <r>    -4.4578     0.0000     6.0000 </r>
       <r>    -4.3449     0.0000     6.0000 </r>
       <r>    -4.2321     0.0000     6.0000 </r>
       <r>    -4.1192     0.0000     6.0000 </r>
       <r>    -4.0064     0.0000     6.0000 </r>
       <r>    -3.8935     0.0000     6.0000 </r>
       <r>    -3.7807     0.0000     6.0000 </r>
       <r>    -3.6678     0.0000     6.0000 </r>
       <r>    -3.5550     0.0000     6.0000 </r>
       <r>    -3.4421     0.0000     6.0000 </r>
       <r>    -3.3293     0.0000     6.0000 </r>
       <r>    -3.2164     0.0000     6.0000 </r>
       <r>    -3.1036     0.0000     6.0000 </r>
       <r>    -2.9907     0.0000     6.0000 </r>
       <r>    -2.8778     0.0000     6.0000 </r>
       <r>    -2.7650     0.0000     6.0000 </r>
       <r>    -2.6521     0.0000     6.0000 </r>
       <r>    -2.5393     1.7567     6.1983 </r>
       <r>    -2.4264    23.6073     8.8624 </r>
       <r>    -2.3136     1.2192     9.0000 </r>
       <r>    -2.2007     0.0000     9.0000 </r>
       <r>    -2.0879     0.0000     9.0000 </r>
       <r>    -1.9750     0.0000     9.0000 </r>
       <r>    -1.8622     0.0000     9.0000 </r>
       <r>    -1.7493     0.0000     9.0000 </r>
       <r>    -1.6365     0.0000     9.0000 </r>
       <r>    -1.5236     0.0000     9.0000 </r>
       <r>    -1.4108     0.0000     9.0000 </r>
       <r>    -1.2979     0.0000     9.0000 </r>
       <r>    -1.1851     0.0000     9.0000 </r>
       <r>    -1.0722     0.0000     9.0000 </r>
       <r>    -0.9593     0.0000     9.0000 </r>
       <r>    -0.8465     0.0000     9.0000 </r>
       <r>    -0.7336     0.0000     9.0000 </r>
       <r>    -0.6208     0.0000     9.0000 </r>
       <r>    -0.5079     0.0000     9.0000 </r>
       <r>    -0.3951     0.0000     9.0000 </r>
       <r>    -0.2822     0.0000     9.0000 </r>
       <r>    -0.1694     0.0000     9.0000 </r>
       <r>    -0.0565     0.0000     9.0000 </r>
       <r>     0.0563     0.8491     9.0958 </r>
       <r>     0.1692     7.7494     9.9704 </r>
       <r>     0.2820     0.2626    10.0000 </r>
       <r>     0.3949     0.0000    10.0000 </r>
       <r>     0.5077     0.0000    10.0000 </r>
       <r>     0.6206     0.0000    10.0000 </r>
       <r>     0.7334     0.0000    10.0000 </r>
       <r>     0.8463     0.0000    10.0000 </r>
       <r>     0.9592     0.0000    10.0000 </r>
       <r>     1.0720     0.0000    10.0000 </r>
       <r>     1.1849     0.0000    10.0000 </r>
       <r>     1.2977     0.0025    10.0003 </r>
       <r>     1.4106     5.8412    10.6595 </r>
       <r>     1.5234    11.8259    11.9941 </r>
       <r>     1.6363     0.0526    12.0000 </r>
       <r>     1.7491     0.6539    12.0738 </r>
       <r>     1.8620    30.0076    15.4602 </r>
       <r>     1.9748     4.7826    16.0000 </r>
       <r>     2.0877     0.0003    16.0000 </r>
       <r>     2.2005     0.0000    16.0000 </r>
       <r>     2.3134     0.0163    16.0018 </r>
       <r>     2.4262    12.8467    17.4516 </r>
       <r>     2.5391    13.6987    18.9976 </r>
       <r>     2.6519     0.0216    19.0000 </r>
       <r>     2.7648     0.0000    19.0000 </r>
       <r>     2.8777     0.8516    19.0961 </r>
       <r>     2.9905    16.0000    20.9018 </r>
       <r>     3.1034    22.1516    23.4016 </r>
       <r>     3.2162     5.3015    23.9999 </r>
       <r>     3.3291     0.0007    24.0000 </r>
       <r>     3.4419     0.0294    24.0033 </r>
       <r>     3.5548    14.2845    25.6154 </r>
       <r>     3.6676    13.2928    27.1155 </r>
       <r>     3.7805     7.6374    27.9774 </r>
       <r>     3.8933     0.2002    28.0000 </r>
       <r>     4.0062     0.0000    28.0000 </r>
       <r>     4.1190     1.2313    28.1390 </r>
       <r>     4.2319    23.6180    30.8043 </r>
       <r>     4.3447     7.0930    31.6048 </r>
       <r>     4.4576     3.4996    31.9997 </r>
       <r>     4.5704     0.0024    32.0000 </r>
       <r>     4.6833     0.0403    32.0045 </r>
       <r>     4.7962    11.2751    33.2770 </r>
       <r>     4.9090     6.4380    34.0035 </r>
       <r>     5.0219     6.1952    34.7027 </r>
       <r>     5.1347     2.6338    34.9999 </r>
       <r>     5.2476     0.0009    35.0000 </r>
       <r>     5.3604     1.0888    35.1229 </r>
       <r>     5.4733     7.5851    35.9789 </r>
       <r>     5.5861     0.1871    36.0000 </r>
       <r>     5.6990     0.0000    36.0000 </r>
       <r>     5.8118     0.0000    36.0000 </r>
       <r>     5.9247     0.0000    36.0000 </r>
       <r>     6.0375     0.0000    36.0000 </r>
       <r>     6.1504     0.0000    36.0000 </r>
       <r>     6.2632     0.0000    36.0000 </r>
       <r>     6.3761     0.0000    36.0000 </r>
       <r>     6.4889     0.0000    36.0000 </r>
       <r>     6.6018     0.0000    36.0000 </r>
       <r>     6.7147     0.0000    36.0000 </r>
       <r>     6.8275     0.0000    36.0000 </r>
       <r>     6.9404     0.0000    36.0000 </r>
      </set>
     </set>
    </array>
   </total>
   <partial>
    <array>
     <dimension dim="1">gridpoints</dimension>
     <dimension dim="2">spin</dimension>
     <dimension dim="3">ion</dimension>
     <field>energy</field>
     <field>    s</field>
     <field>   py</field>
     <field>   pz</field>
     <field>   px</field>
     <field>  dxy</field>
     <field>  dyz</field>
     <field>  dz2</field>
     <field>  dxz</field>
     <field>x2-y2</field>
     <set>
      <set comment="ion 1">
       <set comment="spin 1">
        <r>   -26.9155     0.0000     0.0000     0.0000     0.0000     0.0000     0.0000     0.0000     0.0000     0.0000 </r>
        <r>   -26.8027     0.0000     0.0000     0.0000     0.0000     0.0000     0.0000     0.0000     0.0000     0.0000 </r>
        <r>   -26.6898     0.0000     0.0000     0.0000     0.0000     0.0000     0.0000     0.0000     0.0000     0.0000 </r>
        <r>   -26.5770     0.0000     0.0000     0.0000     0.0000     0.0000     0.0000     0.0000     0.0000     0.0000 </r>
        <r>   -26.4641     0.0000     0.0000     0.0000     0.0000     0.0000     0.0000     0.0000     0.0000     0.0000 </r>
        <r>   -26.3513     0.0000     0.0000     0.0000     0.0000     0.0000     0.0000     0.0000     0.0000     0.0000 </r>
        <r>   -26.2384     0.0000     0.0000     0.0000     0.0000     0.0000     0.0000     0.0000     0.0000     0.0000 </r>
        <r>   -26.1255     0.0000     0.0000     0.0000     0.0000     0.0000     0.0000     0.0000     0.0000     0.0000 </r>
        <r>   -26.0127     0.0000     0.0000     0.0000     0.0000     0.0000     0.0000     0.0000     0.0000     0.0000 </r>
        <r>   -25.8998     0.0000     0.0000     0.0000     0.0000     0.0000     0.0000     0.0000     0.0000     0.0000 </r>
        <r>   -25.7870     0.0000     0.0000     0.0000     0.0000     0.0000     0.0000     0.0000     0.0000     0.0000 </r>
        <r>   -25.6741     0.0000     0.0000     0.0000     0.0000     0.0000     0.0000     0.0000     0.0000     0.0000 </r>
        <r>   -25.5613     0.0000     0.0000     0.0000     0.0000     0.0000     0.0000     0.0000     0.0000     0.0000 </r>
        <r>   -25.4484     0.0000     0.0000     0.0000     0.0000     0.1838     0.1838     0.1856     0.1838     0.1856 </r>
        <r>   -25.3356     0.0000     0.0000     0.0000     0.0000     7.5177     7.5177     7.5231     7.5177     7.5231 </r>
        <r>   -25.2227     0.0000     0.0000     0.0000     0.0000     1.0870     1.0870     1.0799     1.0870     1.0799 </r>
        <r>   -25.1099     0.0000     0.0000     0.0000     0.0000     0.0001     0.0001     0.0001     0.0001     0.0001 </r>
        <r>   -24.9970     0.0000     0.0000     0.0000     0.0000     0.0000     0.0000     0.0000     0.0000     0.0000 </r>
        <r>   -24.8842     0.0000     0.0000     0.0000     0.0000     0.0000     0.0000     0.0000     0.0000     0.0000 </r>
        <r>   -24.7713     0.0000     0.0000     0.0000     0.0000     0.0000     0.0000     0.0000     0.0000     0.0000 </r>
        <r>   -24.6585     0.0000     0.0000     0.0000     0.0000     0.0000     0.0000     0.0000     0.0000     0.0000 </r>
        <r>   -24.5456     0.0000     0.0000     0.0000     0.0000     0.0000     0.0000     0.0000     0.0000     0.0000 </r>
        <r>   -24.4328     0.0000     0.0000     0.0000     0.0000     0.0000     0.0000     0.0000     0.0000     0.0000 </r>
        <r>   -24.3199     0.0000     0.0000     0.0000     0.0000     0.0000     0.0000     0.0000     0.0000     0.0000 </r>
        <r>   -24.2070     0.0000     0.0000     0.0000     0.0000     0.0000     0.0000     0.0000     0.0000     0.0000 </r>
        <r>   -24.0942     0.0000     0.0000     0.0000     0.0000     0.0000     0.0000     0.0000     0.0000     0.0000 </r>
        <r>   -23.9813     0.0000     0.0000     0.0000     0.0000     0.0000     0.0000     0.0000     0.0000     0.0000 </r>
        <r>   -23.8685     0.0000     0.0000     0.0000     0.0000     0.0000     0.0000     0.0000     0.0000     0.0000 </r>
        <r>   -23.7556     0.0000     0.0000     0.0000     0.0000     0.0000     0.0000     0.0000     0.0000     0.0000 </r>
        <r>   -23.6428     0.0000     0.0000     0.0000     0.0000     0.0000     0.0000     0.0000     0.0000     0.0000 </r>
        <r>   -23.5299     0.0000     0.0000     0.0000     0.0000     0.0000     0.0000     0.0000     0.0000     0.0000 </r>
        <r>   -23.4171     0.0000     0.0000     0.0000     0.0000     0.0000     0.0000     0.0000     0.0000     0.0000 </r>
        <r>   -23.3042     0.0000     0.0000     0.0000     0.0000     0.0000     0.0000     0.0000     0.0000     0.0000 </r>
        <r>   -23.1914     0.0000     0.0000     0.0000     0.0000     0.0000     0.0000     0.0000     0.0000     0.0000 </r>
        <r>   -23.0785     0.0000     0.0000     0.0000     0.0000     0.0000     0.0000     0.0000     0.0000     0.0000 </r>
        <r>   -22.9657     0.0000     0.0000     0.0000     0.0000     0.0000     0.0000     0.0000     0.0000     0.0000 </r>
        <r>   -22.8528     0.0000     0.0000     0.0000     0.0000     0.0000     0.0000     0.0000     0.0000     0.0000 </r>
        <r>   -22.7400     0.0000     0.0000     0.0000     0.0000     0.0000     0.0000     0.0000     0.0000     0.0000 </r>
        <r>   -22.6271     0.0000     0.0000     0.0000     0.0000     0.0000     0.0000     0.0000     0.0000     0.0000 </r>
        <r>   -22.5143     0.0000     0.0000     0.0000     0.0000     0.0000     0.0000     0.0000     0.0000     0.0000 </r>
        <r>   -22.4014     0.0000     0.0000     0.0000     0.0000     0.0000     0.0000     0.0000     0.0000     0.0000 </r>
        <r>   -22.2885     0.0000     0.0000     0.0000     0.0000     0.0000     0.0000     0.0000     0.0000     0.0000 </r>
        <r>   -22.1757     0.0000     0.0000     0.0000     0.0000     0.0000     0.0000     0.0000     0.0000     0.0000 </r>
        <r>   -22.0628     0.0000     0.0000     0.0000     0.0000     0.0000     0.0000     0.0000     0.0000     0.0000 </r>
        <r>   -21.9500     0.0000     0.0000     0.0000     0.0000     0.0000     0.0000     0.0000     0.0000     0.0000 </r>
        <r>   -21.8371     0.0000     0.0000     0.0000     0.0000     0.0000     0.0000     0.0000     0.0000     0.0000 </r>
        <r>   -21.7243     0.0000     0.0000     0.0000     0.0000     0.0000     0.0000     0.0000     0.0000     0.0000 </r>
        <r>   -21.6114     0.0000     0.0000     0.0000     0.0000     0.0000     0.0000     0.0000     0.0000     0.0000 </r>
        <r>   -21.4986     0.0000     0.0000     0.0000     0.0000     0.0000     0.0000     0.0000     0.0000     0.0000 </r>
        <r>   -21.3857     0.0000     0.0000     0.0000     0.0000     0.0000     0.0000     0.0000     0.0000     0.0000 </r>
        <r>   -21.2729     0.0000     0.0000     0.0000     0.0000     0.0000     0.0000     0.0000     0.0000     0.0000 </r>
        <r>   -21.1600     0.0000     0.0000     0.0000     0.0000     0.0000     0.0000     0.0000     0.0000     0.0000 </r>
        <r>   -21.0472     0.0000     0.0000     0.0000     0.0000     0.0000     0.0000     0.0000     0.0000     0.0000 </r>
        <r>   -20.9343     0.0000     0.0000     0.0000     0.0000     0.0000     0.0000     0.0000     0.0000     0.0000 </r>
        <r>   -20.8215     0.0000     0.0000     0.0000     0.0000     0.0000     0.0000     0.0000     0.0000     0.0000 </r>
        <r>   -20.7086     0.0000     0.0000     0.0000     0.0000     0.0000     0.0000     0.0000     0.0000     0.0000 </r>
        <r>   -20.5958     0.0000     0.0000     0.0000     0.0000     0.0000     0.0000     0.0000     0.0000     0.0000 </r>
        <r>   -20.4829     0.0000     0.0000     0.0000     0.0000     0.0000     0.0000     0.0000     0.0000     0.0000 </r>
        <r>   -20.3700     0.0000     0.0000     0.0000     0.0000     0.0000     0.0000     0.0000     0.0000     0.0000 </r>
        <r>   -20.2572     0.0000     0.0000     0.0000     0.0000     0.0000     0.0000     0.0000     0.0000     0.0000 </r>
        <r>   -20.1443     0.0000     0.0000     0.0000     0.0000     0.0000     0.0000     0.0000     0.0000     0.0000 </r>
        <r>   -20.0315     0.0000     0.0000     0.0000     0.0000     0.0000     0.0000     0.0000     0.0000     0.0000 </r>
        <r>   -19.9186     0.0000     0.0000     0.0000     0.0000     0.0000     0.0000     0.0000     0.0000     0.0000 </r>
        <r>   -19.8058     0.0000     0.0000     0.0000     0.0000     0.0000     0.0000     0.0000     0.0000     0.0000 </r>
        <r>   -19.6929     0.0000     0.0000     0.0000     0.0000     0.0000     0.0000     0.0000     0.0000     0.0000 </r>
        <r>   -19.5801     0.0000     0.0000     0.0000     0.0000     0.0000     0.0000     0.0000     0.0000     0.0000 </r>
        <r>   -19.4672     0.0000     0.0000     0.0000     0.0000     0.0000     0.0000     0.0000     0.0000     0.0000 </r>
        <r>   -19.3544     0.0000     0.0000     0.0000     0.0000     0.0000     0.0000     0.0000     0.0000     0.0000 </r>
        <r>   -19.2415     0.0000     0.0000     0.0000     0.0000     0.0000     0.0000     0.0000     0.0000     0.0000 </r>
        <r>   -19.1287     0.0000     0.0000     0.0000     0.0000     0.0000     0.0000     0.0000     0.0000     0.0000 </r>
        <r>   -19.0158     0.0000     0.0000     0.0000     0.0000     0.0000     0.0000     0.0000     0.0000     0.0000 </r>
        <r>   -18.9030     0.0000     0.0000     0.0000     0.0000     0.0000     0.0000     0.0000     0.0000     0.0000 </r>
        <r>   -18.7901     0.0000     0.0000     0.0000     0.0000     0.0000     0.0000     0.0000     0.0000     0.0000 </r>
        <r>   -18.6773     0.0000     0.0000     0.0000     0.0000     0.0000     0.0000     0.0000     0.0000     0.0000 </r>
        <r>   -18.5644     0.0000     0.0000     0.0000     0.0000     0.0000     0.0000     0.0000     0.0000     0.0000 </r>
        <r>   -18.4515     0.0000     0.0000     0.0000     0.0000     0.0000     0.0000     0.0000     0.0000     0.0000 </r>
        <r>   -18.3387     0.0000     0.0000     0.0000     0.0000     0.0000     0.0000     0.0000     0.0000     0.0000 </r>
        <r>   -18.2258     0.0000     0.0000     0.0000     0.0000     0.0000     0.0000     0.0000     0.0000     0.0000 </r>
        <r>   -18.1130     0.0000     0.0000     0.0000     0.0000     0.0000     0.0000     0.0000     0.0000     0.0000 </r>
        <r>   -18.0001     0.0000     0.0000     0.0000     0.0000     0.0000     0.0000     0.0000     0.0000     0.0000 </r>
        <r>   -17.8873     0.0000     0.0000     0.0000     0.0000     0.0000     0.0000     0.0000     0.0000     0.0000 </r>
        <r>   -17.7744     0.0000     0.0000     0.0000     0.0000     0.0000     0.0000     0.0000     0.0000     0.0000 </r>
        <r>   -17.6616     0.0000     0.0000     0.0000     0.0000     0.0000     0.0000     0.0000     0.0000     0.0000 </r>
        <r>   -17.5487     0.0000     0.0000     0.0000     0.0000     0.0000     0.0000     0.0000     0.0000     0.0000 </r>
        <r>   -17.4359     0.0000     0.0000     0.0000     0.0000     0.0000     0.0000     0.0000     0.0000     0.0000 </r>
        <r>   -17.3230     0.0000     0.0000     0.0000     0.0000     0.0000     0.0000     0.0000     0.0000     0.0000 </r>
        <r>   -17.2102     0.0000     0.0000     0.0000     0.0000     0.0000     0.0000     0.0000     0.0000     0.0000 </r>
        <r>   -17.0973     0.0000     0.0000     0.0000     0.0000     0.0000     0.0000     0.0000     0.0000     0.0000 </r>
        <r>   -16.9845     0.0000     0.0000     0.0000     0.0000     0.0000     0.0000     0.0000     0.0000     0.0000 </r>
        <r>   -16.8716     0.0000     0.0000     0.0000     0.0000     0.0000     0.0000     0.0000     0.0000     0.0000 </r>
        <r>   -16.7588     0.0000     0.0000     0.0000     0.0000     0.0000     0.0000     0.0000     0.0000     0.0000 </r>
        <r>   -16.6459     0.0000     0.0000     0.0000     0.0000     0.0000     0.0000     0.0000     0.0000     0.0000 </r>
        <r>   -16.5330     0.0000     0.0000     0.0000     0.0000     0.0000     0.0000     0.0000     0.0000     0.0000 </r>
        <r>   -16.4202     0.0000     0.0000     0.0000     0.0000     0.0000     0.0000     0.0000     0.0000     0.0000 </r>
        <r>   -16.3073     0.0000     0.0000     0.0000     0.0000     0.0000     0.0000     0.0000     0.0000     0.0000 </r>
        <r>   -16.1945     0.0000     0.0000     0.0000     0.0000     0.0000     0.0000     0.0000     0.0000     0.0000 </r>
        <r>   -16.0816     0.0000     0.0000     0.0000     0.0000     0.0000     0.0000     0.0000     0.0000     0.0000 </r>
        <r>   -15.9688     0.0000     0.0000     0.0000     0.0000     0.0000     0.0000     0.0000     0.0000     0.0000 </r>
        <r>   -15.8559     0.0000     0.0000     0.0000     0.0000     0.0000     0.0000     0.0000     0.0000     0.0000 </r>
        <r>   -15.7431     0.0000     0.0000     0.0000     0.0000     0.0000     0.0000     0.0000     0.0000     0.0000 </r>
        <r>   -15.6302     0.0000     0.0000     0.0000     0.0000     0.0000     0.0000     0.0000     0.0000     0.0000 </r>
        <r>   -15.5174     0.0000     0.0000     0.0000     0.0000     0.0000     0.0000     0.0000     0.0000     0.0000 </r>
        <r>   -15.4045     0.0000     0.0000     0.0000     0.0000     0.0000     0.0000     0.0000     0.0000     0.0000 </r>
        <r>   -15.2917     0.0000     0.0000     0.0000     0.0000     0.0000     0.0000     0.0000     0.0000     0.0000 </r>
        <r>   -15.1788     0.0000     0.0000     0.0000     0.0000     0.0000     0.0000     0.0000     0.0000     0.0000 </r>
        <r>   -15.0660     0.0000     0.0000     0.0000     0.0000     0.0000     0.0000     0.0000     0.0000     0.0000 </r>
        <r>   -14.9531     0.0000     0.0000     0.0000     0.0000     0.0000     0.0000     0.0000     0.0000     0.0000 </r>
        <r>   -14.8403     0.0000     0.0000     0.0000     0.0000     0.0000     0.0000     0.0000     0.0000     0.0000 </r>
        <r>   -14.7274     0.0000     0.0000     0.0000     0.0000     0.0000     0.0000     0.0000     0.0000     0.0000 </r>
        <r>   -14.6146     0.0000     0.0000     0.0000     0.0000     0.0000     0.0000     0.0000     0.0000     0.0000 </r>
        <r>   -14.5017     0.0000     0.0000     0.0000     0.0000     0.0000     0.0000     0.0000     0.0000     0.0000 </r>
        <r>   -14.3888     0.0000     0.0000     0.0000     0.0000     0.0000     0.0000     0.0000     0.0000     0.0000 </r>
        <r>   -14.2760     0.0000     0.0000     0.0000     0.0000     0.0000     0.0000     0.0000     0.0000     0.0000 </r>
        <r>   -14.1631     0.0000     0.0000     0.0000     0.0000     0.0000     0.0000     0.0000     0.0000     0.0000 </r>
        <r>   -14.0503     0.0000     0.0000     0.0000     0.0000     0.0000     0.0000     0.0000     0.0000     0.0000 </r>
        <r>   -13.9374     0.0000     0.0000     0.0000     0.0000     0.0000     0.0000     0.0000     0.0000     0.0000 </r>
        <r>   -13.8246     0.0000     0.0000     0.0000     0.0000     0.0000     0.0000     0.0000     0.0000     0.0000 </r>
        <r>   -13.7117     0.0000     0.0000     0.0000     0.0000     0.0000     0.0000     0.0000     0.0000     0.0000 </r>
        <r>   -13.5989     0.0000     0.0000     0.0000     0.0000     0.0000     0.0000     0.0000     0.0000     0.0000 </r>
        <r>   -13.4860     0.0000     0.0000     0.0000     0.0000     0.0000     0.0000     0.0000     0.0000     0.0000 </r>
        <r>   -13.3732     0.0000     0.0000     0.0000     0.0000     0.0000     0.0000     0.0000     0.0000     0.0000 </r>
        <r>   -13.2603     0.0000     0.0000     0.0000     0.0000     0.0000     0.0000     0.0000     0.0000     0.0000 </r>
        <r>   -13.1475     0.0000     0.0000     0.0000     0.0000     0.0000     0.0000     0.0000     0.0000     0.0000 </r>
        <r>   -13.0346     0.0000     0.0000     0.0000     0.0000     0.0000     0.0000     0.0000     0.0000     0.0000 </r>
        <r>   -12.9218     0.0000     0.0000     0.0000     0.0000     0.0000     0.0000     0.0000     0.0000     0.0000 </r>
        <r>   -12.8089     0.0000     0.0000     0.0000     0.0000     0.0000     0.0000     0.0000     0.0000     0.0000 </r>
        <r>   -12.6961     0.0000     0.0000     0.0000     0.0000     0.0000     0.0000     0.0000     0.0000     0.0000 </r>
        <r>   -12.5832     0.0000     0.0000     0.0000     0.0000     0.0000     0.0000     0.0000     0.0000     0.0000 </r>
        <r>   -12.4703     0.0000     0.0000     0.0000     0.0000     0.0000     0.0000     0.0000     0.0000     0.0000 </r>
        <r>   -12.3575     0.0000     0.0000     0.0000     0.0000     0.0000     0.0000     0.0000     0.0000     0.0000 </r>
        <r>   -12.2446     0.0000     0.0000     0.0000     0.0000     0.0000     0.0000     0.0000     0.0000     0.0000 </r>
        <r>   -12.1318     0.0000     0.0000     0.0000     0.0000     0.0000     0.0000     0.0000     0.0000     0.0000 </r>
        <r>   -12.0189     0.0000     0.0000     0.0000     0.0000     0.0000     0.0000     0.0000     0.0000     0.0000 </r>
        <r>   -11.9061     0.0000     0.0000     0.0000     0.0000     0.0000     0.0000     0.0000     0.0000     0.0000 </r>
        <r>   -11.7932     0.0000     0.0000     0.0000     0.0000     0.0000     0.0000     0.0000     0.0000     0.0000 </r>
        <r>   -11.6804     0.0000     0.0000     0.0000     0.0000     0.0000     0.0000     0.0000     0.0000     0.0000 </r>
        <r>   -11.5675     0.0000     0.0000     0.0000     0.0000     0.0000     0.0000     0.0000     0.0000     0.0000 </r>
        <r>   -11.4547     0.0000     0.0000     0.0000     0.0000     0.0000     0.0000     0.0000     0.0000     0.0000 </r>
        <r>   -11.3418     0.0000     0.0000     0.0000     0.0000     0.0000     0.0000     0.0000     0.0000     0.0000 </r>
        <r>   -11.2290     0.0000     0.0000     0.0000     0.0000     0.0000     0.0000     0.0000     0.0000     0.0000 </r>
        <r>   -11.1161     0.0000     0.0000     0.0000     0.0000     0.0000     0.0000     0.0000     0.0000     0.0000 </r>
        <r>   -11.0033     0.0000     0.0000     0.0000     0.0000     0.0000     0.0000     0.0000     0.0000     0.0000 </r>
        <r>   -10.8904     0.0000     0.0000     0.0000     0.0000     0.0000     0.0000     0.0000     0.0000     0.0000 </r>
        <r>   -10.7776     0.0000     0.0000     0.0000     0.0000     0.0000     0.0000     0.0000     0.0000     0.0000 </r>
        <r>   -10.6647     0.1741     0.0000     0.0000     0.0000     0.0000     0.0000     0.0000     0.0000     0.0000 </r>
        <r>   -10.5518     5.1771     0.0000     0.0000     0.0000     0.0000     0.0000     0.0000     0.0000     0.0000 </r>
        <r>   -10.4390     0.5710     0.0000     0.0000     0.0000     0.0000     0.0000     0.0000     0.0000     0.0000 </r>
        <r>   -10.3261     0.0000     0.0000     0.0000     0.0000     0.0000     0.0000     0.0000     0.0000     0.0000 </r>
        <r>   -10.2133     0.0000     0.0000     0.0000     0.0000     0.0000     0.0000     0.0000     0.0000     0.0000 </r>
        <r>   -10.1004     0.0000     0.0000     0.0000     0.0000     0.0000     0.0000     0.0000     0.0000     0.0000 </r>
        <r>    -9.9876     0.0000     0.0000     0.0000     0.0000     0.0000     0.0000     0.0000     0.0000     0.0000 </r>
        <r>    -9.8747     0.0000     0.0000     0.0000     0.0000     0.0000     0.0000     0.0000     0.0000     0.0000 </r>
        <r>    -9.7619     0.0000     0.0000     0.0000     0.0000     0.0000     0.0000     0.0000     0.0000     0.0000 </r>
        <r>    -9.6490     0.0000     0.0000     0.0000     0.0000     0.0000     0.0000     0.0000     0.0000     0.0000 </r>
        <r>    -9.5362     0.0000     0.0000     0.0000     0.0000     0.0000     0.0000     0.0000     0.0000     0.0000 </r>
        <r>    -9.4233     0.0000     0.0000     0.0000     0.0000     0.0000     0.0000     0.0000     0.0000     0.0000 </r>
        <r>    -9.3105     0.0000     0.0000     0.0000     0.0000     0.0000     0.0000     0.0000     0.0000     0.0000 </r>
        <r>    -9.1976     0.0000     0.0000     0.0000     0.0000     0.0000     0.0000     0.0000     0.0000     0.0000 </r>
        <r>    -9.0848     0.0000     0.0000     0.0000     0.0000     0.0000     0.0000     0.0000     0.0000     0.0000 </r>
        <r>    -8.9719     0.0000     0.0000     0.0000     0.0000     0.0000     0.0000     0.0000     0.0000     0.0000 </r>
        <r>    -8.8591     0.0000     0.0000     0.0000     0.0000     0.0000     0.0000     0.0000     0.0000     0.0000 </r>
        <r>    -8.7462     0.0000     0.0000     0.0000     0.0000     0.0000     0.0000     0.0000     0.0000     0.0000 </r>
        <r>    -8.6333     0.0000     0.0000     0.0000     0.0000     0.0000     0.0000     0.0000     0.0000     0.0000 </r>
        <r>    -8.5205     0.0000     0.0000     0.0000     0.0000     0.0000     0.0000     0.0000     0.0000     0.0000 </r>
        <r>    -8.4076     0.0000     0.0000     0.0000     0.0000     0.0000     0.0000     0.0000     0.0000     0.0000 </r>
        <r>    -8.2948     0.0000     0.0000     0.0000     0.0000     0.0000     0.0000     0.0000     0.0000     0.0000 </r>
        <r>    -8.1819     0.0000     0.0000     0.0000     0.0000     0.0000     0.0000     0.0000     0.0000     0.0000 </r>
        <r>    -8.0691     0.0000     0.0000     0.0000     0.0000     0.0000     0.0000     0.0000     0.0000     0.0000 </r>
        <r>    -7.9562     0.0000     0.0000     0.0000     0.0000     0.0000     0.0000     0.0000     0.0000     0.0000 </r>
[...]
        <r>     1.8620     0.2145     0.2545     0.2518     0.2548     0.0000     0.0000     0.0000     0.0000     0.0000 </r>
        <r>     1.9748     0.0378     0.0393     0.0385     0.0393     0.0000     0.0000     0.0000     0.0000     0.0000 </r>
        <r>     2.0877     0.0000     0.0000     0.0000     0.0000     0.0000     0.0000     0.0000     0.0000     0.0000 </r>
        <r>     2.2005     0.0000     0.0000     0.0000     0.0000     0.0000     0.0000     0.0000     0.0000     0.0000 </r>
        <r>     2.3134     0.0000     0.0000     0.0000     0.0000     0.0001     0.0001     0.0000     0.0001     0.0000 </r>
        <r>     2.4262     0.0000     0.0000     0.0000     0.0000     0.0870     0.0871     0.0000     0.0871     0.0000 </r>
        <r>     2.5391     0.0000     0.0000     0.0000     0.0000     0.0932     0.0925     0.0000     0.0928     0.0000 </r>
        <r>     2.6519     0.0000     0.0000     0.0000     0.0000     0.0001     0.0001     0.0000     0.0001     0.0000 </r>
        <r>     2.7648     0.0000     0.0000     0.0000     0.0000     0.0000     0.0000     0.0000     0.0000     0.0000 </r>
        <r>     2.8777     0.0000     0.0000     0.0000     0.0000     0.0000     0.0000     0.0037     0.0000     0.0036 </r>
        <r>     2.9905     0.0000     0.0001     0.0000     0.0001     0.0000     0.0000     0.0673     0.0000     0.0672 </r>
        <r>     3.1034     0.0000     0.0006     0.0006     0.0000     0.0001     0.0001     0.0048     0.0000     0.0049 </r>
        <r>     3.2162     0.0000     0.0001     0.0001     0.0000     0.0000     0.0000     0.0000     0.0000     0.0000 </r>
        <r>     3.3291     0.0000     0.0000     0.0000     0.0000     0.0000     0.0000     0.0000     0.0000     0.0000 </r>
        <r>     3.4419     0.0000     0.0003     0.0005     0.0009     0.0000     0.0000     0.0000     0.0000     0.0000 </r>
        <r>     3.5548     0.0174     0.2321     0.2594     0.3084     0.0001     0.0004     0.0004     0.0001     0.0002 </r>
        <r>     3.6676     0.0496     0.2613     0.2274     0.1998     0.0001     0.0003     0.0003     0.0001     0.0002 </r>
        <r>     3.7805     0.2301     0.0224     0.0327     0.0003     0.0000     0.0000     0.0000     0.0000     0.0000 </r>
        <r>     3.8933     0.0060     0.0006     0.0009     0.0000     0.0000     0.0000     0.0000     0.0000     0.0000 </r>
        <r>     4.0062     0.0000     0.0000     0.0000     0.0000     0.0000     0.0000     0.0000     0.0000     0.0000 </r>
        <r>     4.1190     0.0000     0.0001     0.0000     0.0001     0.0055     0.0061     0.0000     0.0054     0.0000 </r>
        <r>     4.2319     0.0001     0.0017     0.0008     0.0011     0.1093     0.1088     0.0004     0.1095     0.0001 </r>
        <r>     4.3447     0.0000     0.0012     0.0003     0.0001     0.0084     0.0076     0.0000     0.0085     0.0029 </r>
        <r>     4.4576     0.0000     0.0007     0.0002     0.0000     0.0000     0.0001     0.0000     0.0000     0.0019 </r>
        <r>     4.5704     0.0000     0.0000     0.0000     0.0000     0.0000     0.0000     0.0000     0.0000     0.0000 </r>
        <r>     4.6833     0.0000     0.0001     0.0000     0.0000     0.0000     0.0000     0.0009     0.0000     0.0011 </r>
        <r>     4.7962     0.0001     0.0221     0.0009     0.0012     0.0000     0.0000     0.2459     0.0000     0.3023 </r>
        <r>     4.9090     0.0006     0.0125     0.0005     0.0008     0.0000     0.0000     0.1392     0.0000     0.1723 </r>
        <r>     5.0219     0.1044     0.0005     0.0031     0.0226     0.0000     0.0000     0.0001     0.0000     0.0003 </r>
        <r>     5.1347     0.0444     0.0002     0.0013     0.0096     0.0000     0.0000     0.0000     0.0000     0.0001 </r>
        <r>     5.2476     0.0000     0.0000     0.0000     0.0000     0.0000     0.0000     0.0000     0.0000     0.0000 </r>
        <r>     5.3604     0.0001     0.0021     0.0018     0.0023     0.0000     0.0108     0.0027     0.0084     0.0001 </r>
        <r>     5.4733     0.0007     0.0149     0.0123     0.0157     0.0000     0.0752     0.0190     0.0582     0.0008 </r>
        <r>     5.5861     0.0000     0.0004     0.0003     0.0004     0.0000     0.0019     0.0005     0.0014     0.0000 </r>
        <r>     5.6990     0.0000     0.0000     0.0000     0.0000     0.0000     0.0000     0.0000     0.0000     0.0000 </r>
        <r>     5.8118     0.0000     0.0000     0.0000     0.0000     0.0000     0.0000     0.0000     0.0000     0.0000 </r>
        <r>     5.9247     0.0000     0.0000     0.0000     0.0000     0.0000     0.0000     0.0000     0.0000     0.0000 </r>
        <r>     6.0375     0.0000     0.0000     0.0000     0.0000     0.0000     0.0000     0.0000     0.0000     0.0000 </r>
        <r>     6.1504     0.0000     0.0000     0.0000     0.0000     0.0000     0.0000     0.0000     0.0000     0.0000 </r>
        <r>     6.2632     0.0000     0.0000     0.0000     0.0000     0.0000     0.0000     0.0000     0.0000     0.0000 </r>
        <r>     6.3761     0.0000     0.0000     0.0000     0.0000     0.0000     0.0000     0.0000     0.0000     0.0000 </r>
        <r>     6.4889     0.0000     0.0000     0.0000     0.0000     0.0000     0.0000     0.0000     0.0000     0.0000 </r>
        <r>     6.6018     0.0000     0.0000     0.0000     0.0000     0.0000     0.0000     0.0000     0.0000     0.0000 </r>
        <r>     6.7147     0.0000     0.0000     0.0000     0.0000     0.0000     0.0000     0.0000     0.0000     0.0000 </r>
        <r>     6.8275     0.0000     0.0000     0.0000     0.0000     0.0000     0.0000     0.0000     0.0000     0.0000 </r>
        <r>     6.9404     0.0000     0.0000     0.0000     0.0000     0.0000     0.0000     0.0000     0.0000     0.0000 </r>
       </set>
      </set>
     </set>
    </array>
   </partial>
  </dos>
  <projected>
   <eigenvalues>
    <array>
     <dimension dim="1">band</dimension>
     <dimension dim="2">kpoint</dimension>
     <dimension dim="3">spin</dimension>
     <field>eigene</field>
     <field>occ</field>
     <set>
      <set comment="spin 1">
       <set comment="kpoint 1">
        <r>  -25.3766    1.0000 </r>
        <r>  -25.3766    1.0000 </r>
        <r>  -25.3765    1.0000 </r>
        <r>  -25.3765    1.0000 </r>
        <r>  -25.3765    1.0000 </r>
        <r>  -10.5979    1.0000 </r>
        <r>   -3.7842    0.6667 </r>
        <r>   -3.7842    0.6667 </r>
        <r>   -3.7842    0.6667 </r>
        <r>   -0.5723    0.0000 </r>
        <r>    0.7138    0.0000 </r>
        <r>    0.7138    0.0000 </r>
        <r>    1.1600    0.0000 </r>
        <r>    1.1603    0.0000 </r>
        <r>    1.1617    0.0000 </r>
        <r>    1.3817    0.0000 </r>
        <r>    1.5091    0.0000 </r>
        <r>    1.5094    0.0000 </r>
        <r>    1.5095    0.0000 </r>
        <r>    2.4304    0.0000 </r>
        <r>    2.4306    0.0000 </r>
        <r>    2.4379    0.0000 </r>
        <r>    2.4401    0.0000 </r>
        <r>    2.4407    0.0000 </r>
        <r>    2.9321    0.0000 </r>
        <r>    2.9339    0.0000 </r>
        <r>    2.9362    0.0000 </r>
        <r>    3.3061    0.0000 </r>
        <r>    3.5366    0.0000 </r>
        <r>    3.6010    0.0000 </r>
        <r>    3.6015    0.0000 </r>
        <r>    3.6020    0.0000 </r>
        <r>    3.9478    0.0000 </r>
        <r>    3.9486    0.0000 </r>
        <r>    4.1710    0.0000 </r>
        <r>    4.3998    0.0000 </r>
       </set>
      </set>
      <set comment="spin 2">
       <set comment="kpoint 1">
        <r>  -25.2091    1.0000 </r>
        <r>  -25.2091    1.0000 </r>
        <r>  -25.2090    1.0000 </r>
        <r>  -25.2090    1.0000 </r>
        <r>  -25.2090    1.0000 </r>
        <r>   -9.4045    1.0000 </r>
        <r>   -2.4861    0.0000 </r>
        <r>   -2.4861    0.0000 </r>
        <r>   -2.4860    0.0000 </r>
        <r>    0.1025    0.0000 </r>
        <r>    1.4261    0.0000 </r>
        <r>    1.4262    0.0000 </r>
        <r>    1.8220    0.0000 </r>
        <r>    1.8224    0.0000 </r>
        <r>    1.8224    0.0000 </r>
        <r>    1.8250    0.0000 </r>
        <r>    2.4275    0.0000 </r>
        <r>    2.4276    0.0000 </r>
        <r>    2.4278    0.0000 </r>
        <r>    2.9364    0.0000 </r>
        <r>    2.9366    0.0000 </r>
        <r>    3.0733    0.0000 </r>
        <r>    3.0734    0.0000 </r>
        <r>    3.0739    0.0000 </r>
        <r>    3.5447    0.0000 </r>
        <r>    3.5515    0.0000 </r>
        <r>    3.5578    0.0000 </r>
        <r>    3.7097    0.0000 </r>
        <r>    4.1766    0.0000 </r>
        <r>    4.1795    0.0000 </r>
        <r>    4.1796    0.0000 </r>
        <r>    4.3353    0.0000 </r>
        <r>    4.7835    0.0000 </r>
        <r>    4.7837    0.0000 </r>
        <r>    5.0030    0.0000 </r>
        <r>    5.4015    0.0000 </r>
       </set>
      </set>
     </set>
    </array>
   </eigenvalues>
   <array>
    <dimension dim="1">ion</dimension>
    <dimension dim="2">band</dimension>
    <dimension dim="3">kpoint</dimension>
    <dimension dim="4">spin</dimension>
    <field>    s</field>
    <field>   py</field>
    <field>   pz</field>
    <field>   px</field>
    <field>  dxy</field>
    <field>  dyz</field>
    <field>  dz2</field>
    <field>  dxz</field>
    <field>x2-y2</field>
    <set>
     <set comment="spin1">
      <set comment="kpoint 1">
       <set comment="band 1">
        <r>  0.0000  0.0000  0.0000  0.0000  0.0000  0.0000  0.1104  0.0000  0.8814 </r>
       </set>
       <set comment="band 2">
        <r>  0.0000  0.0000  0.0000  0.0000  0.0000  0.0000  0.8814  0.0000  0.1104 </r>
       </set>
       <set comment="band 3">
        <r>  0.0000  0.0000  0.0000  0.0000  0.6513  0.2726  0.0000  0.0679  0.0000 </r>
       </set>
       <set comment="band 4">
        <r>  0.0000  0.0000  0.0000  0.0000  0.2494  0.7192  0.0000  0.0232  0.0000 </r>
       </set>
       <set comment="band 5">
        <r>  0.0000  0.0000  0.0000  0.0000  0.0911  0.0001  0.0000  0.9007  0.0000 </r>
       </set>
       <set comment="band 6">
        <r>  0.6683  0.0000  0.0000  0.0000  0.0000  0.0000  0.0000  0.0000  0.0000 </r>
       </set>
       <set comment="band 7">
        <r>  0.0000  0.3014  0.0633  0.0173  0.0000  0.0000  0.0000  0.0000  0.0000 </r>
       </set>
       <set comment="band 8">
        <r>  0.0000  0.0460  0.3083  0.0277  0.0000  0.0000  0.0000  0.0000  0.0000 </r>
       </set>
       <set comment="band 9">
        <r>  0.0000  0.0346  0.0104  0.3369  0.0000  0.0000  0.0000  0.0000  0.0000 </r>
       </set>
       <set comment="band 10">
        <r>  0.0275  0.0000  0.0000  0.0000  0.0000  0.0000  0.0000  0.0000  0.0000 </r>
       </set>
       <set comment="band 11">
        <r>  0.0000  0.0000  0.0000  0.0000  0.0000  0.0000  0.0046  0.0000  0.0051 </r>
       </set>
       <set comment="band 12">
        <r>  0.0000  0.0000  0.0000  0.0000  0.0000  0.0000  0.0050  0.0000  0.0046 </r>
       </set>
       <set comment="band 13">
        <r>  0.0000  0.0110  0.0188  0.0115  0.0000  0.0000  0.0000  0.0000  0.0000 </r>
       </set>
       <set comment="band 14">
        <r>  0.0000  0.0291  0.0105  0.0012  0.0000  0.0000  0.0000  0.0000  0.0000 </r>
       </set>
       <set comment="band 15">
        <r>  0.0001  0.0011  0.0117  0.0284  0.0000  0.0000  0.0000  0.0000  0.0000 </r>
       </set>
       <set comment="band 16">
        <r>  0.0301  0.0000  0.0000  0.0000  0.0000  0.0000  0.0000  0.0000  0.0000 </r>
       </set>
       <set comment="band 17">
        <r>  0.0000  0.0000  0.0000  0.0000  0.0238  0.0016  0.0000  0.0012  0.0000 </r>
       </set>
       <set comment="band 18">
        <r>  0.0000  0.0000  0.0000  0.0000  0.0023  0.0234  0.0000  0.0009  0.0000 </r>
       </set>
       <set comment="band 19">
        <r>  0.0000  0.0000  0.0000  0.0000  0.0006  0.0016  0.0000  0.0246  0.0000 </r>
       </set>
       <set comment="band 20">
        <r>  0.0000  0.0000  0.0000  0.0000  0.0000  0.0000  0.0000  0.0000  0.0122 </r>
       </set>
       <set comment="band 21">
        <r>  0.0000  0.0000  0.0000  0.0000  0.0000  0.0000  0.0120  0.0000  0.0000 </r>
       </set>
       <set comment="band 22">
        <r>  0.0000  0.0000  0.0000  0.0001  0.0000  0.0000  0.0000  0.0000  0.0000 </r>
       </set>
       <set comment="band 23">
        <r>  0.0000  0.0001  0.0002  0.0000  0.0000  0.0000  0.0001  0.0000  0.0000 </r>
       </set>
       <set comment="band 24">
        <r>  0.0000  0.0004  0.0000  0.0001  0.0000  0.0000  0.0001  0.0000  0.0000 </r>
       </set>
       <set comment="band 25">
        <r>  0.0001  0.0393  0.0024  0.0124  0.0000  0.0000  0.0000  0.0000  0.0000 </r>
       </set>
       <set comment="band 26">
        <r>  0.0000  0.0144  0.0125  0.0276  0.0000  0.0000  0.0000  0.0000  0.0001 </r>
       </set>
       <set comment="band 27">
        <r>  0.0001  0.0004  0.0391  0.0148  0.0000  0.0000  0.0000  0.0000  0.0000 </r>
       </set>
       <set comment="band 28">
        <r>  0.0373  0.0002  0.0000  0.0001  0.0000  0.0000  0.0000  0.0000  0.0000 </r>
       </set>
       <set comment="band 29">
        <r>  0.0000  0.0000  0.0001  0.0001  0.0000  0.0000  0.0006  0.0002  0.0001 </r>
       </set>
       <set comment="band 30">
        <r>  0.0000  0.0000  0.0000  0.0000  0.0005  0.0002  0.0000  0.0160  0.0000 </r>
       </set>
       <set comment="band 31">
        <r>  0.0000  0.0000  0.0000  0.0000  0.0014  0.0152  0.0000  0.0004  0.0000 </r>
       </set>
       <set comment="band 32">
        <r>  0.0000  0.0000  0.0000  0.0000  0.0150  0.0016  0.0000  0.0003  0.0000 </r>
       </set>
       <set comment="band 33">
        <r>  0.0000  0.0000  0.0001  0.0001  0.0000  0.0000  0.0043  0.0000  0.0552 </r>
       </set>
       <set comment="band 34">
        <r>  0.0000  0.0001  0.0001  0.0000  0.0000  0.0000  0.0545  0.0000  0.0044 </r>
       </set>
       <set comment="band 35">
        <r>  0.0008  0.0034  0.0027  0.0025  0.0001  0.0000  0.0002  0.0005  0.0001 </r>
       </set>
       <set comment="band 36">
        <r>  0.0105  0.0000  0.0029  0.0001  0.0000  0.0001  0.0000  0.0000  0.0001 </r>
       </set>
      </set>
     </set>
     <set comment="spin2">
      <set comment="kpoint 1">
       <set comment="band 1">
        <r>  0.0000  0.0000  0.0000  0.0000  0.0000  0.0000  0.9267  0.0000  0.0653 </r>
       </set>
       <set comment="band 2">
        <r>  0.0000  0.0000  0.0000  0.0000  0.0000  0.0000  0.0653  0.0000  0.9267 </r>
       </set>
       <set comment="band 3">
        <r>  0.0000  0.0000  0.0000  0.0000  0.5858  0.2728  0.0000  0.1335  0.0000 </r>
       </set>
       <set comment="band 4">
        <r>  0.0000  0.0000  0.0000  0.0000  0.3924  0.2613  0.0000  0.3383  0.0000 </r>
       </set>
       <set comment="band 5">
        <r>  0.0000  0.0000  0.0000  0.0000  0.0138  0.4580  0.0000  0.5202  0.0000 </r>
       </set>
       <set comment="band 6">
        <r>  0.6728  0.0000  0.0000  0.0000  0.0000  0.0000  0.0000  0.0000  0.0000 </r>
       </set>
       <set comment="band 7">
        <r>  0.0000  0.0002  0.3226  0.0477  0.0000  0.0000  0.0000  0.0000  0.0000 </r>
       </set>
       <set comment="band 8">
        <r>  0.0000  0.2093  0.0234  0.1375  0.0000  0.0000  0.0000  0.0000  0.0000 </r>
       </set>
       <set comment="band 9">
        <r>  0.0000  0.1603  0.0245  0.1847  0.0000  0.0000  0.0000  0.0000  0.0000 </r>
       </set>
       <set comment="band 10">
        <r>  0.0201  0.0000  0.0000  0.0000  0.0000  0.0000  0.0000  0.0000  0.0000 </r>
       </set>
       <set comment="band 11">
        <r>  0.0000  0.0000  0.0000  0.0000  0.0000  0.0000  0.0025  0.0000  0.0032 </r>
       </set>
       <set comment="band 12">
        <r>  0.0000  0.0000  0.0000  0.0000  0.0000  0.0000  0.0032  0.0000  0.0025 </r>
       </set>
       <set comment="band 13">
        <r>  0.0000  0.0013  0.0240  0.0082  0.0000  0.0000  0.0000  0.0000  0.0000 </r>
       </set>
       <set comment="band 14">
        <r>  0.0000  0.0209  0.0009  0.0124  0.0000  0.0000  0.0000  0.0000  0.0000 </r>
       </set>
       <set comment="band 15">
        <r>  0.0001  0.0116  0.0085  0.0131  0.0000  0.0000  0.0000  0.0000  0.0000 </r>
       </set>
       <set comment="band 16">
        <r>  0.0288  0.0000  0.0000  0.0002  0.0000  0.0000  0.0000  0.0000  0.0000 </r>
       </set>
       <set comment="band 17">
        <r>  0.0000  0.0000  0.0000  0.0000  0.0025  0.0141  0.0000  0.0037  0.0000 </r>
       </set>
       <set comment="band 18">
        <r>  0.0000  0.0000  0.0000  0.0000  0.0018  0.0058  0.0000  0.0128  0.0000 </r>
       </set>
       <set comment="band 19">
        <r>  0.0000  0.0000  0.0000  0.0000  0.0161  0.0004  0.0000  0.0038  0.0000 </r>
       </set>
       <set comment="band 20">
        <r>  0.0000  0.0000  0.0000  0.0000  0.0000  0.0000  0.0085  0.0000  0.0000 </r>
       </set>
       <set comment="band 21">
        <r>  0.0000  0.0000  0.0000  0.0000  0.0000  0.0000  0.0000  0.0000  0.0085 </r>
       </set>
       <set comment="band 22">
        <r>  0.0000  0.0000  0.0000  0.0000  0.0000  0.0000  0.0000  0.0000  0.0000 </r>
       </set>
       <set comment="band 23">
        <r>  0.0000  0.0001  0.0000  0.0000  0.0000  0.0000  0.0000  0.0000  0.0000 </r>
       </set>
       <set comment="band 24">
        <r>  0.0000  0.0000  0.0001  0.0000  0.0000  0.0000  0.0000  0.0000  0.0000 </r>
       </set>
       <set comment="band 25">
        <r>  0.0001  0.0001  0.0036  0.0539  0.0000  0.0000  0.0000  0.0000  0.0000 </r>
       </set>
       <set comment="band 26">
        <r>  0.0011  0.0053  0.0476  0.0035  0.0000  0.0001  0.0000  0.0000  0.0000 </r>
       </set>
       <set comment="band 27">
        <r>  0.0028  0.0500  0.0033  0.0000  0.0000  0.0000  0.0000  0.0000  0.0000 </r>
       </set>
       <set comment="band 28">
        <r>  0.0302  0.0029  0.0043  0.0000  0.0000  0.0000  0.0000  0.0000  0.0000 </r>
       </set>
       <set comment="band 29">
        <r>  0.0000  0.0002  0.0000  0.0001  0.0019  0.0106  0.0000  0.0013  0.0000 </r>
       </set>
       <set comment="band 30">
        <r>  0.0000  0.0000  0.0001  0.0000  0.0112  0.0025  0.0000  0.0002  0.0000 </r>
       </set>
       <set comment="band 31">
        <r>  0.0000  0.0000  0.0000  0.0000  0.0007  0.0007  0.0000  0.0125  0.0000 </r>
       </set>
       <set comment="band 32">
        <r>  0.0000  0.0002  0.0001  0.0000  0.0000  0.0000  0.0000  0.0000  0.0005 </r>
       </set>
       <set comment="band 33">
        <r>  0.0000  0.0039  0.0001  0.0002  0.0000  0.0000  0.0434  0.0000  0.0000 </r>
       </set>
       <set comment="band 34">
        <r>  0.0000  0.0000  0.0001  0.0000  0.0000  0.0000  0.0002  0.0000  0.0536 </r>
       </set>
       <set comment="band 35">
        <r>  0.0169  0.0001  0.0005  0.0036  0.0000  0.0000  0.0000  0.0000  0.0000 </r>
       </set>
       <set comment="band 36">
        <r>  0.0001  0.0020  0.0016  0.0021  0.0000  0.0099  0.0025  0.0077  0.0001 </r>
       </set>
      </set>
     </set>
    </set>
   </array>
  </projected>
 </calculation>
 <structure name="finalpos" >
  <crystal>
   <varray name="basis" >
    <v>      10.00000000       0.00000000       0.00000000 </v>
    <v>       0.00000000      10.00000000       0.00000000 </v>
    <v>       0.00000000       0.00000000      10.00000000 </v>
   </varray>
   <i name="volume">   1000.00000000 </i>
   <varray name="rec_basis" >
    <v>       0.10000000       0.00000000       0.00000000 </v>
    <v>       0.00000000       0.10000000       0.00000000 </v>
    <v>       0.00000000       0.00000000       0.10000000 </v>
   </varray>
  </crystal>
  <varray name="positions" >
   <v>       0.50000000       0.50000000       0.50000000 </v>
  </varray>
 </structure>
</modeling>
