       N       E                     dE             d eps       ncg     rms          ort
DAV:   1     0.278763462195E+02    0.27876E+02   -0.15160E+03    36   0.107E+02
DAV:   2     0.170709313513E+02   -0.10805E+02   -0.10800E+02    36   0.151E+01
DAV:   3     0.131470376142E+02   -0.39239E+01   -0.38347E+01    36   0.515E+00
DAV:   4     0.577898468977E+01   -0.73681E+01   -0.65111E+01    36   0.887E+00
DAV:   5     0.204039348984E+01   -0.37386E+01   -0.37386E+01    36   0.679E+00
SDA:   6     0.245973332569E+01    0.41934E+00   -0.34063E+01    36   0.852E+01 0.000E+00
DMP:   7     0.332359558237E+00   -0.21274E+01   -0.72930E+00    36   0.104E+01 0.205E+01
DMP:   8     0.138777001816E-01   -0.31848E+00   -0.17716E+00    36   0.617E+00-0.456E+00
DMP:   9    -0.102774923717E+00   -0.11665E+00   -0.14423E+00    36   0.335E+00 0.666E-01
DMP:  10    -0.186523805989E+00   -0.83749E-01   -0.35720E-01    36   0.686E-01 0.543E-01
DMP:  11    -0.206371094893E+00   -0.19847E-01   -0.44385E-01    36   0.935E-01 0.458E-01
DMP:  12    -0.137620131290E+01   -0.11698E+01   -0.35639E+01    36   0.711E+01 0.472E+01
DMP:  13    -0.186824358194E+01   -0.49204E+00   -0.14074E-01    36   0.227E-01 0.328E-01
DMP:  14    -0.187781762092E+01   -0.95740E-02   -0.57532E-02    36   0.951E-02 0.128E-01
DMP:  15    -0.188223172598E+01   -0.44141E-02   -0.33371E-02    36   0.543E-02 0.764E-02
DMP:  16    -0.188484819468E+01   -0.26165E-02   -0.15735E-02    36   0.213E-02 0.473E-02
DMP:  17    -0.188602996142E+01   -0.11818E-02   -0.60978E-03    36   0.768E-03 0.198E-02
DMP:  18    -0.188649511226E+01   -0.46515E-03   -0.25934E-03    36   0.342E-03 0.802E-03
DMP:  19    -0.188669749424E+01   -0.20238E-03   -0.11058E-03    36   0.138E-03 0.362E-03
DMP:  20    -0.188678285253E+01   -0.85358E-04   -0.43098E-04    36   0.510E-04 0.149E-03
DMP:  21    -0.188681631507E+01   -0.33463E-04   -0.17199E-04    36   0.207E-04 0.583E-04
