       N       E                     dE             d eps       ncg     rms          ort
DAV:   1     0.890365002718E+02    0.89037E+02   -0.29527E+03    36   0.172E+02
DAV:   2     0.981488479387E+01   -0.79222E+02   -0.79222E+02    36   0.777E+01
DAV:   3     0.516487033523E+00   -0.92984E+01   -0.92984E+01    36   0.294E+01
DAV:   4     0.149917315720E+00   -0.36657E+00   -0.36657E+00    36   0.666E+00
DAV:   5     0.117541471995E+00   -0.32376E-01   -0.32376E-01    36   0.105E+00
SDA:   6    -0.380345460485E-02   -0.12134E+00   -0.18880E-01    36   0.472E-01 0.000E+00
DMP:   7    -0.138690070230E-01   -0.10066E-01   -0.72065E-02    36   0.171E-01 0.249E-02
DMP:   8    -0.147539230834E-01   -0.88492E-03   -0.62496E-02    36   0.209E-01-0.137E-01
DMP:   9    -0.148367197994E-01   -0.82797E-04   -0.78992E-02    36   0.257E-01-0.155E-01
DMP:  10    -0.153320869567E-01   -0.49537E-03   -0.62158E-02    36   0.221E-01-0.172E-01
DMP:  11    -0.162927351662E-01   -0.96065E-03   -0.25465E-02    36   0.105E-01-0.108E-01
DMP:  12    -0.171272831167E-01   -0.83455E-03   -0.26516E-03    36   0.151E-02-0.221E-02
DMP:  13    -0.172824810124E-01   -0.15520E-03   -0.10278E-03    36   0.215E-03 0.109E-03
DMP:  14    -0.172786977462E-01    0.37833E-05   -0.90372E-04    36   0.332E-03-0.278E-03
DMP:  15    -0.173159270646E-01   -0.37229E-04   -0.46577E-05    36   0.269E-04-0.400E-04
   1 F= -.17315927E-01 E0= -.17315927E-01  d E =-.173159E-01  mag=     0.0000
