<?xml version="1.0" encoding="ISO-8859-1"?>
<modeling>
 <generator>
  <i name="program" type="string">vasp </i>
  <i name="version" type="string">5.4.4.18Apr17-6-g9f103f2a35  </i>
  <i name="subversion" type="string">(build Nov 08 2019 15:19:53) gamma-only         parallel </i>
  <i name="platform" type="string">LinuxIFC </i>
  <i name="date" type="string">2020 11 30 </i>
  <i name="time" type="string">09:30:46 </i>
 </generator>
 <incar>
  <i type="string" name="PREC">accurate</i>
  <i type="string" name="ALGO"> D</i>
  <i type="int" name="ISPIN">     2</i>
  <i type="int" name="NELM">   300</i>
  <i type="int" name="IBRION">     2</i>
  <i name="EDIFF">      0.00005000</i>
  <i type="int" name="NSW">    99</i>
  <i type="int" name="ISIF">     2</i>
  <i name="ENCUT">    520.00000000</i>
  <v name="MAGMOM">      0.60000000</v>
  <i type="string" name="LREAL"> Auto</i>
  <i type="int" name="ISMEAR">     0</i>
  <i name="SIGMA">      0.05000000</i>
  <i type="logical" name="LWAVE"> F  </i>
  <i type="int" name="LORBIT">    11</i>
  <i type="logical" name="LASPH"> T  </i>
  <v type="int" name="KPOINT_BSE">    -1     0     0     0</v>
  <i type="int" name="NELM">   300</i>
  <i type="logical" name="LASPH"> T  </i>
 </incar>
 <structure name="primitive_cell" >
  <crystal>
   <varray name="basis" >
    <v>      10.00000000       0.00000000       0.00000000 </v>
    <v>       0.00000000      10.00000000       0.00000000 </v>
    <v>       0.00000000       0.00000000      10.00000000 </v>
   </varray>
   <i name="volume">   1000.00000000 </i>
   <varray name="rec_basis" >
    <v>       0.10000000       0.00000000       0.00000000 </v>
    <v>       0.00000000       0.10000000       0.00000000 </v>
    <v>       0.00000000       0.00000000       0.10000000 </v>
   </varray>
  </crystal>
  <varray name="positions" >
   <v>      -0.50000000      -0.50000000      -0.50000000 </v>
  </varray>
 </structure>
 <varray name="primitive_index" >
  <v type="int" >        1 </v>
 </varray>
 <kpoints>
  <generation param="Gamma">
   <v type="int" name="divisions">       1        1        1 </v>
   <v name="usershift">      0.00000000       0.00000000       0.00000000 </v>
   <v name="genvec1">      1.00000000       0.00000000       0.00000000 </v>
   <v name="genvec2">      0.00000000       1.00000000       0.00000000 </v>
   <v name="genvec3">      0.00000000       0.00000000       1.00000000 </v>
   <v name="shift">      0.00000000       0.00000000       0.00000000 </v>
  </generation>
  <varray name="kpointlist" >
   <v>       0.00000000       0.00000000       0.00000000 </v>
  </varray>
  <varray name="weights" >
   <v>       1.00000000 </v>
  </varray>
 </kpoints>
 <parameters>
  <separator name="general" >
   <i type="string" name="SYSTEM">unknown system</i>
   <i type="logical" name="LCOMPAT"> F  </i>
  </separator>
  <separator name="electronic" >
   <i type="string" name="PREC">accura</i>
   <i name="ENMAX">    520.00000000</i>
   <i name="ENAUG">    758.78000000</i>
   <i name="EDIFF">      0.00005000</i>
   <i type="int" name="IALGO">    53</i>
   <i type="int" name="IWAVPR">    11</i>
   <i type="int" name="NBANDS">    36</i>
   <i name="NELECT">      8.00000000</i>
   <i type="int" name="TURBO">     0</i>
   <i type="int" name="IRESTART">     0</i>
   <i type="int" name="NREBOOT">     0</i>
   <i type="int" name="NMIN">     0</i>
   <i name="EREF">      0.00000000</i>
   <separator name="electronic smearing" >
    <i type="int" name="ISMEAR">     0</i>
    <i name="SIGMA">      0.05000000</i>
    <i name="KSPACING">      0.50000000</i>
    <i type="logical" name="KGAMMA"> T  </i>
   </separator>
   <separator name="electronic projectors" >
    <i type="logical" name="LREAL"> T  </i>
    <v name="ROPT">     -0.00025000</v>
    <i type="int" name="LMAXPAW">  -100</i>
    <i type="int" name="LMAXMIX">     2</i>
    <i type="logical" name="NLSPLINE"> F  </i>
   </separator>
   <separator name="electronic startup" >
    <i type="int" name="ISTART">     0</i>
    <i type="int" name="ICHARG">     2</i>
    <i type="int" name="INIWAV">     1</i>
   </separator>
   <separator name="electronic spin" >
    <i type="int" name="ISPIN">     2</i>
    <i type="logical" name="LNONCOLLINEAR"> F  </i>
    <v name="MAGMOM">      0.60000000</v>
    <i name="NUPDOWN">     -1.00000000</i>
    <i type="logical" name="LSORBIT"> F  </i>
    <v name="SAXIS">      0.00000000      0.00000000      1.00000000</v>
    <i type="logical" name="LSPIRAL"> F  </i>
    <v name="QSPIRAL">      0.00000000      0.00000000      0.00000000</v>
    <i type="logical" name="LZEROZ"> F  </i>
   </separator>
   <separator name="electronic exchange-correlation" >
    <i type="logical" name="LASPH"> T  </i>
    <i type="logical" name="LMETAGGA"> F  </i>
   </separator>
   <separator name="electronic convergence" >
    <i type="int" name="NELM">   300</i>
    <i type="int" name="NELMDL">    -5</i>
    <i type="int" name="NELMIN">     2</i>
    <i name="ENINI">    520.00000000</i>
    <separator name="electronic convergence detail" >
     <i type="logical" name="LDIAG"> T  </i>
     <i type="logical" name="LSUBROT"> F  </i>
     <i name="WEIMIN">      0.00100000</i>
     <i name="EBREAK">      0.00000035</i>
     <i name="DEPER">      0.30000000</i>
     <i type="int" name="NRMM">     4</i>
     <i name="TIME">      0.40000000</i>
    </separator>
   </separator>
   <separator name="electronic mixer" >
    <i name="AMIX">      0.40000000</i>
    <i name="BMIX">      1.00000000</i>
    <i name="AMIN">      0.10000000</i>
    <i name="AMIX_MAG">      1.60000000</i>
    <i name="BMIX_MAG">      1.00000000</i>
    <separator name="electronic mixer details" >
     <i type="int" name="IMIX">     4</i>
     <i type="logical" name="MIXFIRST"> F  </i>
     <i type="int" name="MAXMIX">   -45</i>
     <i name="WC">    100.00000000</i>
     <i type="int" name="INIMIX">     1</i>
     <i type="int" name="MIXPRE">     1</i>
     <i type="int" name="MREMOVE">     5</i>
    </separator>
   </separator>
   <separator name="electronic dipolcorrection" >
    <i type="logical" name="LDIPOL"> F  </i>
    <i type="logical" name="LMONO"> F  </i>
    <i type="int" name="IDIPOL">     0</i>
    <i name="EPSILON">      1.00000000</i>
    <v name="DIPOL">   -100.00000000   -100.00000000   -100.00000000</v>
    <i name="EFIELD">      0.00000000</i>
   </separator>
  </separator>
  <separator name="grids" >
   <i type="int" name="NGX">    80</i>
   <i type="int" name="NGY">    80</i>
   <i type="int" name="NGZ">    80</i>
   <i type="int" name="NGXF">   160</i>
   <i type="int" name="NGYF">   160</i>
   <i type="int" name="NGZF">   160</i>
   <i type="logical" name="ADDGRID"> F  </i>
  </separator>
  <separator name="ionic" >
   <i type="int" name="NSW">    99</i>
   <i type="int" name="IBRION">     2</i>
   <i type="int" name="MDALGO">     0</i>
   <i type="int" name="ISIF">     2</i>
   <i name="PSTRESS">      0.00000000</i>
   <i name="EDIFFG">      0.00050000</i>
   <i type="int" name="NFREE">     1</i>
   <i name="POTIM">      0.50000000</i>
   <i name="SMASS">     -3.00000000</i>
   <i name="SCALEE">      1.00000000</i>
  </separator>
  <separator name="ionic md" >
   <i name="TEBEG">      0.00010000</i>
   <i name="TEEND">      0.00010000</i>
   <i type="int" name="NBLOCK">     1</i>
   <i type="int" name="KBLOCK">    99</i>
   <i type="int" name="NPACO">   256</i>
   <i name="APACO">     16.00000000</i>
  </separator>
  <separator name="symmetry" >
   <i type="int" name="ISYM">     2</i>
   <i name="SYMPREC">      0.00001000</i>
  </separator>
  <separator name="dos" >
   <i type="int" name="LORBIT">    11</i>
   <v name="RWIGS">     -1.00000000</v>
   <i type="int" name="NEDOS">   301</i>
   <i name="EMIN">     10.00000000</i>
   <i name="EMAX">    -10.00000000</i>
   <i name="EFERMI">      0.00000000</i>
  </separator>
  <separator name="writing" >
   <i type="int" name="NWRITE">     2</i>
   <i type="logical" name="LWAVE"> F  </i>
   <i type="logical" name="LDOWNSAMPLE"> F  </i>
   <i type="logical" name="LCHARG"> T  </i>
   <i type="logical" name="LPARD"> F  </i>
   <i type="logical" name="LVTOT"> F  </i>
   <i type="logical" name="LVHAR"> F  </i>
   <i type="logical" name="LELF"> F  </i>
   <i type="logical" name="LOPTICS"> F  </i>
   <v name="STM">      0.00000000      0.00000000      0.00000000      0.00000000      0.00000000      0.00000000      0.00000000</v>
  </separator>
  <separator name="performance" >
   <i type="int" name="NPAR">    36</i>
   <i type="int" name="NSIM">     4</i>
   <i type="int" name="NBLK">    -1</i>
   <i type="logical" name="LPLANE"> T  </i>
   <i type="logical" name="LSCALAPACK"> T  </i>
   <i type="logical" name="LSCAAWARE"> F  </i>
   <i type="logical" name="LSCALU"> F  </i>
   <i type="logical" name="LASYNC"> F  </i>
   <i type="logical" name="LORBITALREAL"> F  </i>
  </separator>
  <separator name="miscellaneous" >
   <i type="int" name="IDIOT">     3</i>
   <i type="int" name="ISPECIAL">     0</i>
   <i type="logical" name="LMUSIC"> F  </i>
   <v name="POMASS">     24.30500000</v>
   <v name="DARWINR">      0.00000000</v>
   <v name="DARWINV">      1.00000000</v>
   <i type="logical" name="LCORR"> T  </i>
  </separator>
  <i type="logical" name="GGA_COMPAT"> T  </i>
  <i type="logical" name="LBERRY"> F  </i>
  <i type="int" name="ICORELEVEL">     0</i>
  <i type="logical" name="LDAU"> F  </i>
  <i type="int" name="I_CONSTRAINED_M">     0</i>
  <separator name="electronic exchange-correlation" >
   <i type="string" name="GGA">--</i>
   <i type="int" name="VOSKOWN">     0</i>
   <i type="logical" name="LHFCALC"> F  </i>
   <i type="string" name="PRECFOCK"></i>
   <i type="logical" name="LSYMGRAD"> F  </i>
   <i type="logical" name="LHFONE"> F  </i>
   <i type="logical" name="LRHFCALC"> F  </i>
   <i type="logical" name="LTHOMAS"> F  </i>
   <i type="logical" name="LMODELHF"> F  </i>
   <i name="ENCUT4O">     -1.00000000</i>
   <i type="int" name="EXXOEP">     0</i>
   <i type="int" name="FOURORBIT">     0</i>
   <i name="AEXX">      0.00000000</i>
   <i name="HFALPHA">      0.00000000</i>
   <i name="MCALPHA">      0.00000000</i>
   <i name="ALDAX">      1.00000000</i>
   <i name="AGGAX">      1.00000000</i>
   <i name="ALDAC">      1.00000000</i>
   <i name="AGGAC">      1.00000000</i>
   <i type="int" name="NKREDX">     1</i>
   <i type="int" name="NKREDY">     1</i>
   <i type="int" name="NKREDZ">     1</i>
   <i type="logical" name="SHIFTRED"> F  </i>
   <i type="logical" name="ODDONLY"> F  </i>
   <i type="logical" name="EVENONLY"> F  </i>
   <i type="int" name="LMAXFOCK">     0</i>
   <i type="int" name="NMAXFOCKAE">     0</i>
   <i type="logical" name="LFOCKAEDFT"> F  </i>
   <i name="HFSCREEN">      0.00000000</i>
   <i name="HFSCREENC">      0.00000000</i>
   <i type="int" name="NBANDSGWLOW">     0</i>
  </separator>
  <separator name="vdW DFT" >
   <i type="logical" name="LUSE_VDW"> F  </i>
   <i name="Zab_VDW">     -0.84910000</i>
   <i name="PARAM1">      0.12340000</i>
   <i name="PARAM2">      1.00000000</i>
   <i name="PARAM3">      0.00000000</i>
  </separator>
  <separator name="model GW" >
   <i type="int" name="MODEL_GW">     0</i>
   <i name="MODEL_EPS0">    600.00000000</i>
   <i name="MODEL_ALPHA">      1.00000000</i>
  </separator>
  <separator name="linear response parameters" >
   <i type="logical" name="LEPSILON"> F  </i>
   <i type="logical" name="LRPA"> F  </i>
   <i type="logical" name="LNABLA"> F  </i>
   <i type="logical" name="LVEL"> F  </i>
   <i type="int" name="KINTER">     0</i>
   <i name="CSHIFT">      0.10000000</i>
   <i name="OMEGAMAX">     -1.00000000</i>
   <i name="DEG_THRESHOLD">      0.00200000</i>
   <i name="RTIME">     -0.10000000</i>
   <i name="WPLASMAI">      0.00000000</i>
   <v name="DFIELD">      0.00000000      0.00000000      0.00000000</v>
   <v name="WPLASMA">      0.00000000      0.00000000      0.00000000      0.00000000      0.00000000      0.00000000      0.00000000      0.00000000      0.00000000</v>
  </separator>
  <separator name="orbital magnetization" >
   <i type="logical" name="NUCIND"> F  </i>
   <v name="MAGPOS">      0.00000000      0.00000000      0.00000000</v>
   <i type="logical" name="LNICSALL"> T  </i>
   <i type="logical" name="ORBITALMAG"> F  </i>
   <i type="logical" name="LMAGBLOCH"> F  </i>
   <i type="logical" name="LCHIMAG"> F  </i>
   <i type="logical" name="LGAUGE"> T  </i>
   <i type="int" name="MAGATOM">     0</i>
   <v name="MAGDIPOL">      0.00000000      0.00000000      0.00000000</v>
   <v name="AVECCONST">      0.00000000      0.00000000      0.00000000</v>
  </separator>
  <separator name="response functions" >
   <i type="logical" name="LADDER"> F  </i>
   <i type="logical" name="LRPAFORCE"> F  </i>
   <i type="logical" name="LFXC"> F  </i>
   <i type="logical" name="LHARTREE"> T  </i>
   <i type="int" name="IBSE">     0</i>
   <v type="int" name="KPOINT">    -1     0     0     0</v>
   <i type="logical" name="LTCTE"> F  </i>
   <i type="logical" name="LTETE"> F  </i>
   <i type="logical" name="LTRIPLET"> F  </i>
   <i type="logical" name="LFXCEPS"> F  </i>
   <i type="logical" name="LFXHEG"> F  </i>
   <i type="int" name="NATURALO">     2</i>
   <i type="logical" name="L2ORDER"> F  </i>
   <i type="logical" name="LMP2LT"> F  </i>
   <i type="logical" name="LUSEW"> F  </i>
   <i name="ENCUTGW">     -2.00000000</i>
   <i name="ENCUTGWSOFT">     -2.00000000</i>
   <i name="ENCUTLF">     -1.00000000</i>
   <i type="int" name="LMAXMP2">    -1</i>
   <i name="SCISSOR">      0.00000000</i>
   <i type="int" name="NOMEGA">     0</i>
   <i type="int" name="NOMEGAR">     0</i>
   <i type="int" name="NBANDSGW">    -1</i>
   <i type="int" name="NBANDSO">    -1</i>
   <i type="int" name="NBANDSV">    -1</i>
   <i type="int" name="NELM">   300</i>
   <i type="int" name="NELMHF">     1</i>
   <i type="int" name="DIM">     3</i>
   <i type="int" name="ANTIRES">     0</i>
   <i name="OMEGAMAX">    -30.00000000</i>
   <i name="OMEGAMIN">    -30.00000000</i>
   <i name="OMEGATL">   -200.00000000</i>
   <i type="int" name="OMEGAGRID">   140</i>
   <i name="CSHIFT">     -0.10000000</i>
   <i type="logical" name="SELFENERGY"> F  </i>
   <i type="logical" name="LSPECTRAL"> F  </i>
   <i type="logical" name="LSPECTRALGW"> F  </i>
   <i type="logical" name="LSINGLES"> F  </i>
   <i type="logical" name="LFERMIGW"> F  </i>
   <i type="logical" name="ODDONLYGW"> F  </i>
   <i type="logical" name="EVENONLYGW"> F  </i>
   <i type="int" name="NKREDLFX">     1</i>
   <i type="int" name="NKREDLFY">     1</i>
   <i type="int" name="NKREDLFZ">     1</i>
   <i type="int" name="MAXMEM">  2800</i>
   <i type="int" name="TELESCOPE">     0</i>
   <i type="int" name="TAUPAR">     1</i>
   <i type="int" name="OMEGAPAR">    -1</i>
   <i name="LAMBDA">      1.00000000</i>
  </separator>
  <separator name="External order field" >
   <i name="OFIELD_KAPPA">      0.00000000</i>
   <v name="OFIELD_K">      0.00000000      0.00000000      0.00000000</v>
   <i name="OFIELD_Q6_NEAR">      0.00000000</i>
   <i name="OFIELD_Q6_FAR">      0.00000000</i>
   <i name="OFIELD_A">      0.00000000</i>
  </separator>
 </parameters>
 <atominfo>
  <atoms>       1 </atoms>
  <types>       1 </types>
  <array name="atoms" >
   <dimension dim="1">ion</dimension>
   <field type="string">element</field>
   <field type="int">atomtype</field>
   <set>
    <rc><c>Mg</c><c>   1</c></rc>
   </set>
  </array>
  <array name="atomtypes" >
   <dimension dim="1">type</dimension>
   <field type="int">atomspertype</field>
   <field type="string">element</field>
   <field>mass</field>
   <field>valence</field>
   <field type="string">pseudopotential</field>
   <set>
    <rc><c>   1</c><c>Mg</c><c>     24.30500000</c><c>      8.00000000</c><c>  PAW_PBE Mg_pv 13Apr2007               </c></rc>
   </set>
  </array>
 </atominfo>
 <structure name="initialpos" >
  <crystal>
   <varray name="basis" >
    <v>      10.00000000       0.00000000       0.00000000 </v>
    <v>       0.00000000      10.00000000       0.00000000 </v>
    <v>       0.00000000       0.00000000      10.00000000 </v>
   </varray>
   <i name="volume">   1000.00000000 </i>
   <varray name="rec_basis" >
    <v>       0.10000000       0.00000000       0.00000000 </v>
    <v>       0.00000000       0.10000000       0.00000000 </v>
    <v>       0.00000000       0.00000000       0.10000000 </v>
   </varray>
  </crystal>
  <varray name="positions" >
   <v>       0.50000000       0.50000000       0.50000000 </v>
  </varray>
 </structure>
 <calculation>
  <scstep>
   <time name="total">    0.98    0.99</time>
   <energy>
    <i name="alphaZ">      0.55704683 </i>
    <i name="ewald">   -130.74073603 </i>
    <i name="hartreedc">   -546.02410086 </i>
    <i name="XCdc">     25.23648917 </i>
    <i name="pawpsdc">    648.86668837 </i>
    <i name="pawaedc">   -766.82869879 </i>
    <i name="eentropy">     -0.00000000 </i>
    <i name="bandstr">   -198.73056077 </i>
    <i name="atom">   1056.70037234 </i>
    <i name="e_fr_energy">     89.03650027 </i>
    <i name="e_wo_entrp">     89.03650027 </i>
    <i name="e_0_energy">     89.03650027 </i>
   </energy>
  </scstep>
  <scstep>
   <time name="total">    0.30    0.30</time>
   <energy>
    <i name="e_fr_energy">      9.81488479 </i>
    <i name="e_wo_entrp">      9.81488479 </i>
    <i name="e_0_energy">      9.81488479 </i>
   </energy>
  </scstep>
  <scstep>
   <time name="total">    0.39    0.39</time>
   <energy>
    <i name="e_fr_energy">      0.51648703 </i>
    <i name="e_wo_entrp">      0.51648703 </i>
    <i name="e_0_energy">      0.51648703 </i>
   </energy>
  </scstep>
  <scstep>
   <time name="total">    0.39    0.39</time>
   <energy>
    <i name="e_fr_energy">      0.14991732 </i>
    <i name="e_wo_entrp">      0.14991732 </i>
    <i name="e_0_energy">      0.14991732 </i>
   </energy>
  </scstep>
  <scstep>
   <time name="total">    0.61    0.61</time>
   <energy>
    <i name="e_fr_energy">      0.11754147 </i>
    <i name="e_wo_entrp">      0.11754147 </i>
    <i name="e_0_energy">      0.11754147 </i>
   </energy>
  </scstep>
  <scstep>
   <time name="total">    0.95    0.96</time>
   <energy>
    <i name="e_fr_energy">     -0.00380345 </i>
    <i name="e_wo_entrp">     -0.00380345 </i>
    <i name="e_0_energy">     -0.00380345 </i>
   </energy>
  </scstep>
  <scstep>
   <time name="total">    0.91    0.91</time>
   <energy>
    <i name="e_fr_energy">     -0.01386901 </i>
    <i name="e_wo_entrp">     -0.01386901 </i>
    <i name="e_0_energy">     -0.01386901 </i>
   </energy>
  </scstep>
  <scstep>
   <time name="total">    0.91    0.91</time>
   <energy>
    <i name="e_fr_energy">     -0.01475392 </i>
    <i name="e_wo_entrp">     -0.01475392 </i>
    <i name="e_0_energy">     -0.01475392 </i>
   </energy>
  </scstep>
  <scstep>
   <time name="total">    0.93    0.93</time>
   <energy>
    <i name="e_fr_energy">     -0.01483672 </i>
    <i name="e_wo_entrp">     -0.01483672 </i>
    <i name="e_0_energy">     -0.01483672 </i>
   </energy>
  </scstep>
  <scstep>
   <time name="total">    0.90    0.90</time>
   <energy>
    <i name="e_fr_energy">     -0.01533209 </i>
    <i name="e_wo_entrp">     -0.01533209 </i>
    <i name="e_0_energy">     -0.01533209 </i>
   </energy>
  </scstep>
  <scstep>
   <time name="total">    0.92    0.92</time>
   <energy>
    <i name="e_fr_energy">     -0.01629274 </i>
    <i name="e_wo_entrp">     -0.01629274 </i>
    <i name="e_0_energy">     -0.01629274 </i>
   </energy>
  </scstep>
  <scstep>
   <time name="total">    0.91    0.91</time>
   <energy>
    <i name="e_fr_energy">     -0.01712728 </i>
    <i name="e_wo_entrp">     -0.01712728 </i>
    <i name="e_0_energy">     -0.01712728 </i>
   </energy>
  </scstep>
  <scstep>
   <time name="total">    0.97    0.97</time>
   <energy>
    <i name="e_fr_energy">     -0.01728248 </i>
    <i name="e_wo_entrp">     -0.01728248 </i>
    <i name="e_0_energy">     -0.01728248 </i>
   </energy>
  </scstep>
  <scstep>
   <time name="total">    0.92    0.92</time>
   <energy>
    <i name="e_fr_energy">     -0.01727870 </i>
    <i name="e_wo_entrp">     -0.01727870 </i>
    <i name="e_0_energy">     -0.01727870 </i>
   </energy>
  </scstep>
  <scstep>
   <time name="total">    0.96    0.96</time>
   <energy>
    <i name="alphaZ">      0.55704683 </i>
    <i name="ewald">   -130.74073603 </i>
    <i name="hartreedc">   -545.88515198 </i>
    <i name="XCdc">     25.17606325 </i>
    <i name="pawpsdc">    648.33881307 </i>
    <i name="pawaedc">   -766.27361494 </i>
    <i name="eentropy">     -0.00000000 </i>
    <i name="bandstr">   -287.89010847 </i>
    <i name="atom">   1056.70037234 </i>
    <i name="e_fr_energy">     -0.01731593 </i>
    <i name="e_wo_entrp">     -0.01731593 </i>
    <i name="e_0_energy">     -0.01731593 </i>
   </energy>
  </scstep>
  <structure>
   <crystal>
    <varray name="basis" >
     <v>      10.00000000       0.00000000       0.00000000 </v>
     <v>       0.00000000      10.00000000       0.00000000 </v>
     <v>       0.00000000       0.00000000      10.00000000 </v>
    </varray>
    <i name="volume">   1000.00000000 </i>
    <varray name="rec_basis" >
     <v>       0.10000000       0.00000000       0.00000000 </v>
     <v>       0.00000000       0.10000000       0.00000000 </v>
     <v>       0.00000000       0.00000000       0.10000000 </v>
    </varray>
   </crystal>
   <varray name="positions" >
    <v>       0.50000000       0.50000000       0.50000000 </v>
   </varray>
  </structure>
  <varray name="forces" >
   <v>       0.00000000       0.00000000       0.00000000 </v>
  </varray>
  <varray name="stress" >
   <v>      -0.08045059       0.00000000       0.00000000 </v>
   <v>      -0.00000000      -0.08045059      -0.00000000 </v>
   <v>       0.00000000      -0.00000000      -0.08045059 </v>
  </varray>
  <energy>
   <i name="e_fr_energy">     -0.01731593 </i>
   <i name="e_wo_entrp">     -0.01731593 </i>
   <i name="e_0_energy">     -0.00000000 </i>
  </energy>
  <time name="totalsc">   18.62   18.76</time>
  <eigenvalues>
   <array>
    <dimension dim="1">band</dimension>
    <dimension dim="2">kpoint</dimension>
    <dimension dim="3">spin</dimension>
    <field>eigene</field>
    <field>occ</field>
    <set>
     <set comment="spin 1">
      <set comment="kpoint 1">
       <r>  -46.4623    1.0000 </r>
       <r>  -46.4623    1.0000 </r>
       <r>  -46.4623    1.0000 </r>
       <r>   -4.5587    1.0000 </r>
       <r>   -1.1272    0.0000 </r>
       <r>   -1.1242    0.0000 </r>
       <r>   -1.1174    0.0000 </r>
       <r>   -0.2995    0.0000 </r>
       <r>    0.6981    0.0000 </r>
       <r>    0.6982    0.0000 </r>
       <r>    1.4782    0.0000 </r>
       <r>    1.5473    0.0000 </r>
       <r>    1.5631    0.0000 </r>
       <r>    1.6152    0.0000 </r>
       <r>    1.6330    0.0000 </r>
       <r>    1.6408    0.0000 </r>
       <r>    1.6624    0.0000 </r>
       <r>    2.3508    0.0000 </r>
       <r>    2.3515    0.0000 </r>
       <r>    2.3723    0.0000 </r>
       <r>    2.3745    0.0000 </r>
       <r>    2.4087    0.0000 </r>
       <r>    3.4439    0.0000 </r>
       <r>    3.5811    0.0000 </r>
       <r>    3.5825    0.0000 </r>
       <r>    3.5843    0.0000 </r>
       <r>    3.5907    0.0000 </r>
       <r>    3.6417    0.0000 </r>
       <r>    3.7772    0.0000 </r>
       <r>    3.9023    0.0000 </r>
       <r>    3.9035    0.0000 </r>
       <r>    3.9495    0.0000 </r>
       <r>    4.2283    0.0000 </r>
       <r>    4.4572    0.0000 </r>
       <r>    4.9081    0.0000 </r>
       <r>    5.7712    0.0000 </r>
      </set>
     </set>
     <set comment="spin 2">
      <set comment="kpoint 1">
       <r>  -46.4620    1.0000 </r>
       <r>  -46.4620    1.0000 </r>
       <r>  -46.4620    1.0000 </r>
       <r>   -4.5585    1.0000 </r>
       <r>   -1.1268    0.0000 </r>
       <r>   -1.1259    0.0000 </r>
       <r>   -1.1229    0.0000 </r>
       <r>   -0.3009    0.0000 </r>
       <r>    0.6966    0.0000 </r>
       <r>    0.6974    0.0000 </r>
       <r>    1.4684    0.0000 </r>
       <r>    1.4990    0.0000 </r>
       <r>    1.5521    0.0000 </r>
       <r>    1.6006    0.0000 </r>
       <r>    1.6090    0.0000 </r>
       <r>    1.6805    0.0000 </r>
       <r>    1.6856    0.0000 </r>
       <r>    2.3495    0.0000 </r>
       <r>    2.3509    0.0000 </r>
       <r>    2.3756    0.0000 </r>
       <r>    2.3772    0.0000 </r>
       <r>    2.4125    0.0000 </r>
       <r>    3.5350    0.0000 </r>
       <r>    3.5725    0.0000 </r>
       <r>    3.5781    0.0000 </r>
       <r>    3.5787    0.0000 </r>
       <r>    3.6346    0.0000 </r>
       <r>    3.6793    0.0000 </r>
       <r>    3.7128    0.0000 </r>
       <r>    3.7817    0.0000 </r>
       <r>    3.7948    0.0000 </r>
       <r>    3.8542    0.0000 </r>
       <r>    4.3685    0.0000 </r>
       <r>    4.4783    0.0000 </r>
       <r>    4.4960    0.0000 </r>
       <r>    6.2670    0.0000 </r>
      </set>
     </set>
    </set>
   </array>
  </eigenvalues>
  <separator name="orbital magnetization" >
   <v name="MAGDIPOLOUT">      0.00000000      0.00000000      0.00000000</v>
  </separator>
  <dos>
   <i name="efermi">     -4.21954556 </i>
   <total>
    <array>
     <dimension dim="1">gridpoints</dimension>
     <dimension dim="2">spin</dimension>
     <field>energy</field>
     <field>total</field>
     <field>integrated</field>
     <set>
      <set comment="spin 1">
       <r>   -49.0988     0.0000     0.0000 </r>
       <r>   -48.9054     0.0000     0.0000 </r>
       <r>   -48.7121     0.0000     0.0000 </r>
       <r>   -48.5187     0.0000     0.0000 </r>
       <r>   -48.3254     0.0000     0.0000 </r>
       <r>   -48.1321     0.0000     0.0000 </r>
       <r>   -47.9387     0.0000     0.0000 </r>
       <r>   -47.7454     0.0000     0.0000 </r>
       <r>   -47.5520     0.0000     0.0000 </r>
       <r>   -47.3587     0.0000     0.0000 </r>
       <r>   -47.1653     0.0000     0.0000 </r>
       <r>   -46.9720     0.0000     0.0000 </r>
       <r>   -46.7787     0.0000     0.0000 </r>
       <r>   -46.5853     0.0039     0.0008 </r>
       <r>   -46.3920    15.1500     2.9299 </r>
       <r>   -46.1986     0.3627     3.0000 </r>
       <r>   -46.0053     0.0000     3.0000 </r>
       <r>   -45.8120     0.0000     3.0000 </r>
       <r>   -45.6186     0.0000     3.0000 </r>
       <r>   -45.4253     0.0000     3.0000 </r>
       <r>   -45.2319     0.0000     3.0000 </r>
       <r>   -45.0386     0.0000     3.0000 </r>
       <r>   -44.8453     0.0000     3.0000 </r>
       <r>   -44.6519     0.0000     3.0000 </r>
       <r>   -44.4586     0.0000     3.0000 </r>
       <r>   -44.2652     0.0000     3.0000 </r>
       <r>   -44.0719     0.0000     3.0000 </r>
       <r>   -43.8786     0.0000     3.0000 </r>
       <r>   -43.6852     0.0000     3.0000 </r>
       <r>   -43.4919     0.0000     3.0000 </r>
       <r>   -43.2985     0.0000     3.0000 </r>
       <r>   -43.1052     0.0000     3.0000 </r>
       <r>   -42.9119     0.0000     3.0000 </r>
       <r>   -42.7185     0.0000     3.0000 </r>
       <r>   -42.5252     0.0000     3.0000 </r>
       <r>   -42.3318     0.0000     3.0000 </r>
       <r>   -42.1385     0.0000     3.0000 </r>
       <r>   -41.9451     0.0000     3.0000 </r>
       <r>   -41.7518     0.0000     3.0000 </r>
       <r>   -41.5585     0.0000     3.0000 </r>
       <r>   -41.3651     0.0000     3.0000 </r>
       <r>   -41.1718     0.0000     3.0000 </r>
       <r>   -40.9784     0.0000     3.0000 </r>
       <r>   -40.7851     0.0000     3.0000 </r>
       <r>   -40.5918     0.0000     3.0000 </r>
       <r>   -40.3984     0.0000     3.0000 </r>
       <r>   -40.2051     0.0000     3.0000 </r>
       <r>   -40.0117     0.0000     3.0000 </r>
       <r>   -39.8184     0.0000     3.0000 </r>
       <r>   -39.6251     0.0000     3.0000 </r>
       <r>   -39.4317     0.0000     3.0000 </r>
       <r>   -39.2384     0.0000     3.0000 </r>
       <r>   -39.0450     0.0000     3.0000 </r>
       <r>   -38.8517     0.0000     3.0000 </r>
       <r>   -38.6584     0.0000     3.0000 </r>
       <r>   -38.4650     0.0000     3.0000 </r>
       <r>   -38.2717     0.0000     3.0000 </r>
       <r>   -38.0783     0.0000     3.0000 </r>
       <r>   -37.8850     0.0000     3.0000 </r>
       <r>   -37.6917     0.0000     3.0000 </r>
       <r>   -37.4983     0.0000     3.0000 </r>
       <r>   -37.3050     0.0000     3.0000 </r>
       <r>   -37.1116     0.0000     3.0000 </r>
       <r>   -36.9183     0.0000     3.0000 </r>
       <r>   -36.7249     0.0000     3.0000 </r>
       <r>   -36.5316     0.0000     3.0000 </r>
       <r>   -36.3383     0.0000     3.0000 </r>
       <r>   -36.1449     0.0000     3.0000 </r>
       <r>   -35.9516     0.0000     3.0000 </r>
       <r>   -35.7582     0.0000     3.0000 </r>
       <r>   -35.5649     0.0000     3.0000 </r>
       <r>   -35.3716     0.0000     3.0000 </r>
       <r>   -35.1782     0.0000     3.0000 </r>
       <r>   -34.9849     0.0000     3.0000 </r>
       <r>   -34.7915     0.0000     3.0000 </r>
       <r>   -34.5982     0.0000     3.0000 </r>
       <r>   -34.4049     0.0000     3.0000 </r>
       <r>   -34.2115     0.0000     3.0000 </r>
       <r>   -34.0182     0.0000     3.0000 </r>
       <r>   -33.8248     0.0000     3.0000 </r>
       <r>   -33.6315     0.0000     3.0000 </r>
       <r>   -33.4382     0.0000     3.0000 </r>
       <r>   -33.2448     0.0000     3.0000 </r>
       <r>   -33.0515     0.0000     3.0000 </r>
       <r>   -32.8581     0.0000     3.0000 </r>
       <r>   -32.6648     0.0000     3.0000 </r>
       <r>   -32.4715     0.0000     3.0000 </r>
       <r>   -32.2781     0.0000     3.0000 </r>
       <r>   -32.0848     0.0000     3.0000 </r>
       <r>   -31.8914     0.0000     3.0000 </r>
       <r>   -31.6981     0.0000     3.0000 </r>
       <r>   -31.5048     0.0000     3.0000 </r>
       <r>   -31.3114     0.0000     3.0000 </r>
       <r>   -31.1181     0.0000     3.0000 </r>
       <r>   -30.9247     0.0000     3.0000 </r>
       <r>   -30.7314     0.0000     3.0000 </r>
       <r>   -30.5380     0.0000     3.0000 </r>
       <r>   -30.3447     0.0000     3.0000 </r>
       <r>   -30.1514     0.0000     3.0000 </r>
       <r>   -29.9580     0.0000     3.0000 </r>
       <r>   -29.7647     0.0000     3.0000 </r>
       <r>   -29.5713     0.0000     3.0000 </r>
       <r>   -29.3780     0.0000     3.0000 </r>
       <r>   -29.1847     0.0000     3.0000 </r>
       <r>   -28.9913     0.0000     3.0000 </r>
       <r>   -28.7980     0.0000     3.0000 </r>
       <r>   -28.6046     0.0000     3.0000 </r>
       <r>   -28.4113     0.0000     3.0000 </r>
       <r>   -28.2180     0.0000     3.0000 </r>
       <r>   -28.0246     0.0000     3.0000 </r>
       <r>   -27.8313     0.0000     3.0000 </r>
       <r>   -27.6379     0.0000     3.0000 </r>
       <r>   -27.4446     0.0000     3.0000 </r>
       <r>   -27.2513     0.0000     3.0000 </r>
       <r>   -27.0579     0.0000     3.0000 </r>
       <r>   -26.8646     0.0000     3.0000 </r>
       <r>   -26.6712     0.0000     3.0000 </r>
       <r>   -26.4779     0.0000     3.0000 </r>
       <r>   -26.2846     0.0000     3.0000 </r>
       <r>   -26.0912     0.0000     3.0000 </r>
       <r>   -25.8979     0.0000     3.0000 </r>
       <r>   -25.7045     0.0000     3.0000 </r>
       <r>   -25.5112     0.0000     3.0000 </r>
       <r>   -25.3178     0.0000     3.0000 </r>
       <r>   -25.1245     0.0000     3.0000 </r>
       <r>   -24.9312     0.0000     3.0000 </r>
       <r>   -24.7378     0.0000     3.0000 </r>
       <r>   -24.5445     0.0000     3.0000 </r>
       <r>   -24.3511     0.0000     3.0000 </r>
       <r>   -24.1578     0.0000     3.0000 </r>
       <r>   -23.9645     0.0000     3.0000 </r>
       <r>   -23.7711     0.0000     3.0000 </r>
       <r>   -23.5778     0.0000     3.0000 </r>
       <r>   -23.3844     0.0000     3.0000 </r>
       <r>   -23.1911     0.0000     3.0000 </r>
       <r>   -22.9978     0.0000     3.0000 </r>
       <r>   -22.8044     0.0000     3.0000 </r>
       <r>   -22.6111     0.0000     3.0000 </r>
       <r>   -22.4177     0.0000     3.0000 </r>
       <r>   -22.2244     0.0000     3.0000 </r>
       <r>   -22.0311     0.0000     3.0000 </r>
       <r>   -21.8377     0.0000     3.0000 </r>
       <r>   -21.6444     0.0000     3.0000 </r>
       <r>   -21.4510     0.0000     3.0000 </r>
       <r>   -21.2577     0.0000     3.0000 </r>
       <r>   -21.0644     0.0000     3.0000 </r>
       <r>   -20.8710     0.0000     3.0000 </r>
       <r>   -20.6777     0.0000     3.0000 </r>
       <r>   -20.4843     0.0000     3.0000 </r>
       <r>   -20.2910     0.0000     3.0000 </r>
       <r>   -20.0976     0.0000     3.0000 </r>
       <r>   -19.9043     0.0000     3.0000 </r>
       <r>   -19.7110     0.0000     3.0000 </r>
       <r>   -19.5176     0.0000     3.0000 </r>
       <r>   -19.3243     0.0000     3.0000 </r>
       <r>   -19.1309     0.0000     3.0000 </r>
       <r>   -18.9376     0.0000     3.0000 </r>
       <r>   -18.7443     0.0000     3.0000 </r>
       <r>   -18.5509     0.0000     3.0000 </r>
       <r>   -18.3576     0.0000     3.0000 </r>
       <r>   -18.1642     0.0000     3.0000 </r>
       <r>   -17.9709     0.0000     3.0000 </r>
       <r>   -17.7776     0.0000     3.0000 </r>
       <r>   -17.5842     0.0000     3.0000 </r>
       <r>   -17.3909     0.0000     3.0000 </r>
       <r>   -17.1975     0.0000     3.0000 </r>
       <r>   -17.0042     0.0000     3.0000 </r>
       <r>   -16.8109     0.0000     3.0000 </r>
       <r>   -16.6175     0.0000     3.0000 </r>
       <r>   -16.4242     0.0000     3.0000 </r>
       <r>   -16.2308     0.0000     3.0000 </r>
       <r>   -16.0375     0.0000     3.0000 </r>
       <r>   -15.8442     0.0000     3.0000 </r>
       <r>   -15.6508     0.0000     3.0000 </r>
       <r>   -15.4575     0.0000     3.0000 </r>
       <r>   -15.2641     0.0000     3.0000 </r>
       <r>   -15.0708     0.0000     3.0000 </r>
       <r>   -14.8775     0.0000     3.0000 </r>
       <r>   -14.6841     0.0000     3.0000 </r>
       <r>   -14.4908     0.0000     3.0000 </r>
       <r>   -14.2974     0.0000     3.0000 </r>
       <r>   -14.1041     0.0000     3.0000 </r>
       <r>   -13.9107     0.0000     3.0000 </r>
       <r>   -13.7174     0.0000     3.0000 </r>
       <r>   -13.5241     0.0000     3.0000 </r>
       <r>   -13.3307     0.0000     3.0000 </r>
       <r>   -13.1374     0.0000     3.0000 </r>
       <r>   -12.9440     0.0000     3.0000 </r>
       <r>   -12.7507     0.0000     3.0000 </r>
       <r>   -12.5574     0.0000     3.0000 </r>
       <r>   -12.3640     0.0000     3.0000 </r>
       <r>   -12.1707     0.0000     3.0000 </r>
       <r>   -11.9773     0.0000     3.0000 </r>
       <r>   -11.7840     0.0000     3.0000 </r>
       <r>   -11.5907     0.0000     3.0000 </r>
       <r>   -11.3973     0.0000     3.0000 </r>
       <r>   -11.2040     0.0000     3.0000 </r>
       <r>   -11.0106     0.0000     3.0000 </r>
       <r>   -10.8173     0.0000     3.0000 </r>
       <r>   -10.6240     0.0000     3.0000 </r>
       <r>   -10.4306     0.0000     3.0000 </r>
       <r>   -10.2373     0.0000     3.0000 </r>
       <r>   -10.0439     0.0000     3.0000 </r>
       <r>    -9.8506     0.0000     3.0000 </r>
       <r>    -9.6573     0.0000     3.0000 </r>
       <r>    -9.4639     0.0000     3.0000 </r>
       <r>    -9.2706     0.0000     3.0000 </r>
       <r>    -9.0772     0.0000     3.0000 </r>
       <r>    -8.8839     0.0000     3.0000 </r>
       <r>    -8.6905     0.0000     3.0000 </r>
       <r>    -8.4972     0.0000     3.0000 </r>
       <r>    -8.3039     0.0000     3.0000 </r>
       <r>    -8.1105     0.0000     3.0000 </r>
       <r>    -7.9172     0.0000     3.0000 </r>
       <r>    -7.7238     0.0000     3.0000 </r>
       <r>    -7.5305     0.0000     3.0000 </r>
       <r>    -7.3372     0.0000     3.0000 </r>
       <r>    -7.1438     0.0000     3.0000 </r>
       <r>    -6.9505     0.0000     3.0000 </r>
       <r>    -6.7571     0.0000     3.0000 </r>
       <r>    -6.5638     0.0000     3.0000 </r>
       <r>    -6.3705     0.0000     3.0000 </r>
       <r>    -6.1771     0.0000     3.0000 </r>
       <r>    -5.9838     0.0000     3.0000 </r>
       <r>    -5.7904     0.0000     3.0000 </r>
       <r>    -5.5971     0.0000     3.0000 </r>
       <r>    -5.4038     0.0000     3.0000 </r>
       <r>    -5.2104     0.0000     3.0000 </r>
       <r>    -5.0171     0.0000     3.0000 </r>
       <r>    -4.8237     0.0000     3.0000 </r>
       <r>    -4.6304     0.1102     3.0213 </r>
       <r>    -4.4371     5.0605     3.9997 </r>
       <r>    -4.2437     0.0015     4.0000 </r>
       <r>    -4.0504     0.0000     4.0000 </r>
       <r>    -3.8570     0.0000     4.0000 </r>
       <r>    -3.6637     0.0000     4.0000 </r>
       <r>    -3.4704     0.0000     4.0000 </r>
       <r>    -3.2770     0.0000     4.0000 </r>
       <r>    -3.0837     0.0000     4.0000 </r>
       <r>    -2.8903     0.0000     4.0000 </r>
       <r>    -2.6970     0.0000     4.0000 </r>
       <r>    -2.5036     0.0000     4.0000 </r>
       <r>    -2.3103     0.0000     4.0000 </r>
       <r>    -2.1170     0.0000     4.0000 </r>
       <r>    -1.9236     0.0000     4.0000 </r>
       <r>    -1.7303     0.0000     4.0000 </r>
       <r>    -1.5369     0.0000     4.0000 </r>
       <r>    -1.3436     0.0000     4.0000 </r>
       <r>    -1.1503     3.4356     4.6642 </r>
       <r>    -0.9569    12.0810     7.0000 </r>
       <r>    -0.7636     0.0000     7.0000 </r>
       <r>    -0.5702     0.0000     7.0000 </r>
       <r>    -0.3769     0.0739     7.0143 </r>
       <r>    -0.1836     5.0956     7.9995 </r>
       <r>     0.0098     0.0027     8.0000 </r>
       <r>     0.2031     0.0000     8.0000 </r>
       <r>     0.3965     0.0000     8.0000 </r>
       <r>     0.5898     0.0112     8.0022 </r>
       <r>     0.7831    10.2490     9.9837 </r>
       <r>     0.9765     0.0842    10.0000 </r>
       <r>     1.1698     0.0000    10.0000 </r>
       <r>     1.3632     0.0030    10.0006 </r>
       <r>     1.5565    10.8017    12.0890 </r>
       <r>     1.7498    25.3582    16.9917 </r>
       <r>     1.9432     0.0427    17.0000 </r>
       <r>     2.1365     0.0000    17.0000 </r>
       <r>     2.3299     4.0251    17.7782 </r>
       <r>     2.5232    21.8327    21.9994 </r>
       <r>     2.7166     0.0032    22.0000 </r>
       <r>     2.9099     0.0000    22.0000 </r>
       <r>     3.1032     0.0000    22.0000 </r>
       <r>     3.2966     0.0001    22.0000 </r>
       <r>     3.4899     4.7532    22.9190 </r>
       <r>     3.6833    25.6233    27.8730 </r>
       <r>     3.8766     8.2805    29.4740 </r>
       <r>     4.0699    13.0634    31.9997 </r>
       <r>     4.2633     4.3384    32.8385 </r>
       <r>     4.4566     3.3895    33.4938 </r>
       <r>     4.6500     2.6182    34.0000 </r>
       <r>     4.8433     0.1726    34.0334 </r>
       <r>     5.0366     4.9989    34.9999 </r>
       <r>     5.2300     0.0007    35.0000 </r>
       <r>     5.4233     0.0000    35.0000 </r>
       <r>     5.6167     0.0000    35.0000 </r>
       <r>     5.8100     4.4690    35.8640 </r>
       <r>     6.0033     0.7032    36.0000 </r>
       <r>     6.1967     0.0000    36.0000 </r>
       <r>     6.3900     0.0000    36.0000 </r>
       <r>     6.5834     0.0000    36.0000 </r>
       <r>     6.7767     0.0000    36.0000 </r>
       <r>     6.9700     0.0000    36.0000 </r>
       <r>     7.1634     0.0000    36.0000 </r>
       <r>     7.3567     0.0000    36.0000 </r>
       <r>     7.5501     0.0000    36.0000 </r>
       <r>     7.7434     0.0000    36.0000 </r>
       <r>     7.9368     0.0000    36.0000 </r>
       <r>     8.1301     0.0000    36.0000 </r>
       <r>     8.3234     0.0000    36.0000 </r>
       <r>     8.5168     0.0000    36.0000 </r>
       <r>     8.7101     0.0000    36.0000 </r>
       <r>     8.9035     0.0000    36.0000 </r>
      </set>
      <set comment="spin 2">
       <r>   -49.0988     0.0000     0.0000 </r>
       <r>   -48.9054     0.0000     0.0000 </r>
       <r>   -48.7121     0.0000     0.0000 </r>
       <r>   -48.5187     0.0000     0.0000 </r>
       <r>   -48.3254     0.0000     0.0000 </r>
       <r>   -48.1321     0.0000     0.0000 </r>
       <r>   -47.9387     0.0000     0.0000 </r>
       <r>   -47.7454     0.0000     0.0000 </r>
       <r>   -47.5520     0.0000     0.0000 </r>
       <r>   -47.3587     0.0000     0.0000 </r>
       <r>   -47.1653     0.0000     0.0000 </r>
       <r>   -46.9720     0.0000     0.0000 </r>
       <r>   -46.7787     0.0000     0.0000 </r>
       <r>   -46.5853     0.0038     0.0007 </r>
       <r>   -46.3920    15.1432     2.9285 </r>
       <r>   -46.1986     0.3697     3.0000 </r>
       <r>   -46.0053     0.0000     3.0000 </r>
       <r>   -45.8120     0.0000     3.0000 </r>
       <r>   -45.6186     0.0000     3.0000 </r>
       <r>   -45.4253     0.0000     3.0000 </r>
       <r>   -45.2319     0.0000     3.0000 </r>
       <r>   -45.0386     0.0000     3.0000 </r>
       <r>   -44.8453     0.0000     3.0000 </r>
       <r>   -44.6519     0.0000     3.0000 </r>
       <r>   -44.4586     0.0000     3.0000 </r>
       <r>   -44.2652     0.0000     3.0000 </r>
       <r>   -44.0719     0.0000     3.0000 </r>
       <r>   -43.8786     0.0000     3.0000 </r>
       <r>   -43.6852     0.0000     3.0000 </r>
       <r>   -43.4919     0.0000     3.0000 </r>
       <r>   -43.2985     0.0000     3.0000 </r>
       <r>   -43.1052     0.0000     3.0000 </r>
       <r>   -42.9119     0.0000     3.0000 </r>
       <r>   -42.7185     0.0000     3.0000 </r>
       <r>   -42.5252     0.0000     3.0000 </r>
       <r>   -42.3318     0.0000     3.0000 </r>
       <r>   -42.1385     0.0000     3.0000 </r>
       <r>   -41.9451     0.0000     3.0000 </r>
       <r>   -41.7518     0.0000     3.0000 </r>
       <r>   -41.5585     0.0000     3.0000 </r>
       <r>   -41.3651     0.0000     3.0000 </r>
       <r>   -41.1718     0.0000     3.0000 </r>
       <r>   -40.9784     0.0000     3.0000 </r>
       <r>   -40.7851     0.0000     3.0000 </r>
       <r>   -40.5918     0.0000     3.0000 </r>
       <r>   -40.3984     0.0000     3.0000 </r>
       <r>   -40.2051     0.0000     3.0000 </r>
       <r>   -40.0117     0.0000     3.0000 </r>
       <r>   -39.8184     0.0000     3.0000 </r>
       <r>   -39.6251     0.0000     3.0000 </r>
       <r>   -39.4317     0.0000     3.0000 </r>
       <r>   -39.2384     0.0000     3.0000 </r>
       <r>   -39.0450     0.0000     3.0000 </r>
       <r>   -38.8517     0.0000     3.0000 </r>
       <r>   -38.6584     0.0000     3.0000 </r>
       <r>   -38.4650     0.0000     3.0000 </r>
       <r>   -38.2717     0.0000     3.0000 </r>
       <r>   -38.0783     0.0000     3.0000 </r>
       <r>   -37.8850     0.0000     3.0000 </r>
       <r>   -37.6917     0.0000     3.0000 </r>
       <r>   -37.4983     0.0000     3.0000 </r>
       <r>   -37.3050     0.0000     3.0000 </r>
       <r>   -37.1116     0.0000     3.0000 </r>
       <r>   -36.9183     0.0000     3.0000 </r>
       <r>   -36.7249     0.0000     3.0000 </r>
       <r>   -36.5316     0.0000     3.0000 </r>
       <r>   -36.3383     0.0000     3.0000 </r>
       <r>   -36.1449     0.0000     3.0000 </r>
       <r>   -35.9516     0.0000     3.0000 </r>
       <r>   -35.7582     0.0000     3.0000 </r>
       <r>   -35.5649     0.0000     3.0000 </r>
       <r>   -35.3716     0.0000     3.0000 </r>
       <r>   -35.1782     0.0000     3.0000 </r>
       <r>   -34.9849     0.0000     3.0000 </r>
       <r>   -34.7915     0.0000     3.0000 </r>
       <r>   -34.5982     0.0000     3.0000 </r>
       <r>   -34.4049     0.0000     3.0000 </r>
       <r>   -34.2115     0.0000     3.0000 </r>
       <r>   -34.0182     0.0000     3.0000 </r>
       <r>   -33.8248     0.0000     3.0000 </r>
       <r>   -33.6315     0.0000     3.0000 </r>
       <r>   -33.4382     0.0000     3.0000 </r>
       <r>   -33.2448     0.0000     3.0000 </r>
       <r>   -33.0515     0.0000     3.0000 </r>
       <r>   -32.8581     0.0000     3.0000 </r>
       <r>   -32.6648     0.0000     3.0000 </r>
       <r>   -32.4715     0.0000     3.0000 </r>
       <r>   -32.2781     0.0000     3.0000 </r>
       <r>   -32.0848     0.0000     3.0000 </r>
       <r>   -31.8914     0.0000     3.0000 </r>
       <r>   -31.6981     0.0000     3.0000 </r>
       <r>   -31.5048     0.0000     3.0000 </r>
       <r>   -31.3114     0.0000     3.0000 </r>
       <r>   -31.1181     0.0000     3.0000 </r>
       <r>   -30.9247     0.0000     3.0000 </r>
       <r>   -30.7314     0.0000     3.0000 </r>
       <r>   -30.5380     0.0000     3.0000 </r>
       <r>   -30.3447     0.0000     3.0000 </r>
       <r>   -30.1514     0.0000     3.0000 </r>
       <r>   -29.9580     0.0000     3.0000 </r>
       <r>   -29.7647     0.0000     3.0000 </r>
       <r>   -29.5713     0.0000     3.0000 </r>
       <r>   -29.3780     0.0000     3.0000 </r>
       <r>   -29.1847     0.0000     3.0000 </r>
       <r>   -28.9913     0.0000     3.0000 </r>
       <r>   -28.7980     0.0000     3.0000 </r>
       <r>   -28.6046     0.0000     3.0000 </r>
       <r>   -28.4113     0.0000     3.0000 </r>
       <r>   -28.2180     0.0000     3.0000 </r>
       <r>   -28.0246     0.0000     3.0000 </r>
       <r>   -27.8313     0.0000     3.0000 </r>
       <r>   -27.6379     0.0000     3.0000 </r>
       <r>   -27.4446     0.0000     3.0000 </r>
       <r>   -27.2513     0.0000     3.0000 </r>
       <r>   -27.0579     0.0000     3.0000 </r>
       <r>   -26.8646     0.0000     3.0000 </r>
       <r>   -26.6712     0.0000     3.0000 </r>
       <r>   -26.4779     0.0000     3.0000 </r>
       <r>   -26.2846     0.0000     3.0000 </r>
       <r>   -26.0912     0.0000     3.0000 </r>
       <r>   -25.8979     0.0000     3.0000 </r>
       <r>   -25.7045     0.0000     3.0000 </r>
       <r>   -25.5112     0.0000     3.0000 </r>
       <r>   -25.3178     0.0000     3.0000 </r>
       <r>   -25.1245     0.0000     3.0000 </r>
       <r>   -24.9312     0.0000     3.0000 </r>
       <r>   -24.7378     0.0000     3.0000 </r>
       <r>   -24.5445     0.0000     3.0000 </r>
       <r>   -24.3511     0.0000     3.0000 </r>
       <r>   -24.1578     0.0000     3.0000 </r>
       <r>   -23.9645     0.0000     3.0000 </r>
       <r>   -23.7711     0.0000     3.0000 </r>
       <r>   -23.5778     0.0000     3.0000 </r>
       <r>   -23.3844     0.0000     3.0000 </r>
       <r>   -23.1911     0.0000     3.0000 </r>
       <r>   -22.9978     0.0000     3.0000 </r>
       <r>   -22.8044     0.0000     3.0000 </r>
       <r>   -22.6111     0.0000     3.0000 </r>
       <r>   -22.4177     0.0000     3.0000 </r>
       <r>   -22.2244     0.0000     3.0000 </r>
       <r>   -22.0311     0.0000     3.0000 </r>
       <r>   -21.8377     0.0000     3.0000 </r>
       <r>   -21.6444     0.0000     3.0000 </r>
       <r>   -21.4510     0.0000     3.0000 </r>
       <r>   -21.2577     0.0000     3.0000 </r>
       <r>   -21.0644     0.0000     3.0000 </r>
       <r>   -20.8710     0.0000     3.0000 </r>
       <r>   -20.6777     0.0000     3.0000 </r>
       <r>   -20.4843     0.0000     3.0000 </r>
       <r>   -20.2910     0.0000     3.0000 </r>
       <r>   -20.0976     0.0000     3.0000 </r>
       <r>   -19.9043     0.0000     3.0000 </r>
       <r>   -19.7110     0.0000     3.0000 </r>
       <r>   -19.5176     0.0000     3.0000 </r>
       <r>   -19.3243     0.0000     3.0000 </r>
       <r>   -19.1309     0.0000     3.0000 </r>
       <r>   -18.9376     0.0000     3.0000 </r>
       <r>   -18.7443     0.0000     3.0000 </r>
       <r>   -18.5509     0.0000     3.0000 </r>
       <r>   -18.3576     0.0000     3.0000 </r>
       <r>   -18.1642     0.0000     3.0000 </r>
       <r>   -17.9709     0.0000     3.0000 </r>
       <r>   -17.7776     0.0000     3.0000 </r>
       <r>   -17.5842     0.0000     3.0000 </r>
       <r>   -17.3909     0.0000     3.0000 </r>
       <r>   -17.1975     0.0000     3.0000 </r>
       <r>   -17.0042     0.0000     3.0000 </r>
       <r>   -16.8109     0.0000     3.0000 </r>
       <r>   -16.6175     0.0000     3.0000 </r>
       <r>   -16.4242     0.0000     3.0000 </r>
       <r>   -16.2308     0.0000     3.0000 </r>
       <r>   -16.0375     0.0000     3.0000 </r>
       <r>   -15.8442     0.0000     3.0000 </r>
       <r>   -15.6508     0.0000     3.0000 </r>
       <r>   -15.4575     0.0000     3.0000 </r>
       <r>   -15.2641     0.0000     3.0000 </r>
       <r>   -15.0708     0.0000     3.0000 </r>
       <r>   -14.8775     0.0000     3.0000 </r>
       <r>   -14.6841     0.0000     3.0000 </r>
       <r>   -14.4908     0.0000     3.0000 </r>
       <r>   -14.2974     0.0000     3.0000 </r>
       <r>   -14.1041     0.0000     3.0000 </r>
       <r>   -13.9107     0.0000     3.0000 </r>
       <r>   -13.7174     0.0000     3.0000 </r>
       <r>   -13.5241     0.0000     3.0000 </r>
       <r>   -13.3307     0.0000     3.0000 </r>
       <r>   -13.1374     0.0000     3.0000 </r>
       <r>   -12.9440     0.0000     3.0000 </r>
       <r>   -12.7507     0.0000     3.0000 </r>
       <r>   -12.5574     0.0000     3.0000 </r>
       <r>   -12.3640     0.0000     3.0000 </r>
       <r>   -12.1707     0.0000     3.0000 </r>
       <r>   -11.9773     0.0000     3.0000 </r>
       <r>   -11.7840     0.0000     3.0000 </r>
       <r>   -11.5907     0.0000     3.0000 </r>
       <r>   -11.3973     0.0000     3.0000 </r>
       <r>   -11.2040     0.0000     3.0000 </r>
       <r>   -11.0106     0.0000     3.0000 </r>
       <r>   -10.8173     0.0000     3.0000 </r>
       <r>   -10.6240     0.0000     3.0000 </r>
       <r>   -10.4306     0.0000     3.0000 </r>
       <r>   -10.2373     0.0000     3.0000 </r>
       <r>   -10.0439     0.0000     3.0000 </r>
       <r>    -9.8506     0.0000     3.0000 </r>
       <r>    -9.6573     0.0000     3.0000 </r>
       <r>    -9.4639     0.0000     3.0000 </r>
       <r>    -9.2706     0.0000     3.0000 </r>
       <r>    -9.0772     0.0000     3.0000 </r>
       <r>    -8.8839     0.0000     3.0000 </r>
       <r>    -8.6905     0.0000     3.0000 </r>
       <r>    -8.4972     0.0000     3.0000 </r>
       <r>    -8.3039     0.0000     3.0000 </r>
       <r>    -8.1105     0.0000     3.0000 </r>
       <r>    -7.9172     0.0000     3.0000 </r>
       <r>    -7.7238     0.0000     3.0000 </r>
       <r>    -7.5305     0.0000     3.0000 </r>
       <r>    -7.3372     0.0000     3.0000 </r>
       <r>    -7.1438     0.0000     3.0000 </r>
       <r>    -6.9505     0.0000     3.0000 </r>
       <r>    -6.7571     0.0000     3.0000 </r>
       <r>    -6.5638     0.0000     3.0000 </r>
       <r>    -6.3705     0.0000     3.0000 </r>
       <r>    -6.1771     0.0000     3.0000 </r>
       <r>    -5.9838     0.0000     3.0000 </r>
       <r>    -5.7904     0.0000     3.0000 </r>
       <r>    -5.5971     0.0000     3.0000 </r>
       <r>    -5.4038     0.0000     3.0000 </r>
       <r>    -5.2104     0.0000     3.0000 </r>
       <r>    -5.0171     0.0000     3.0000 </r>
       <r>    -4.8237     0.0000     3.0000 </r>
       <r>    -4.6304     0.1087     3.0210 </r>
       <r>    -4.4371     5.0620     3.9997 </r>
       <r>    -4.2437     0.0015     4.0000 </r>
       <r>    -4.0504     0.0000     4.0000 </r>
       <r>    -3.8570     0.0000     4.0000 </r>
       <r>    -3.6637     0.0000     4.0000 </r>
       <r>    -3.4704     0.0000     4.0000 </r>
       <r>    -3.2770     0.0000     4.0000 </r>
       <r>    -3.0837     0.0000     4.0000 </r>
       <r>    -2.8903     0.0000     4.0000 </r>
       <r>    -2.6970     0.0000     4.0000 </r>
       <r>    -2.5036     0.0000     4.0000 </r>
       <r>    -2.3103     0.0000     4.0000 </r>
       <r>    -2.1170     0.0000     4.0000 </r>
       <r>    -1.9236     0.0000     4.0000 </r>
       <r>    -1.7303     0.0000     4.0000 </r>
       <r>    -1.5369     0.0000     4.0000 </r>
       <r>    -1.3436     0.0000     4.0000 </r>
       <r>    -1.1503     3.7160     4.7184 </r>
       <r>    -0.9569    11.8007     7.0000 </r>
       <r>    -0.7636     0.0000     7.0000 </r>
       <r>    -0.5702     0.0000     7.0000 </r>
       <r>    -0.3769     0.0815     7.0157 </r>
       <r>    -0.1836     5.0884     7.9995 </r>
       <r>     0.0098     0.0023     8.0000 </r>
       <r>     0.2031     0.0000     8.0000 </r>
       <r>     0.3965     0.0000     8.0000 </r>
       <r>     0.5898     0.0126     8.0024 </r>
       <r>     0.7831    10.2551     9.9852 </r>
       <r>     0.9765     0.0768    10.0000 </r>
       <r>     1.1698     0.0000    10.0000 </r>
       <r>     1.3632     0.0079    10.0015 </r>
       <r>     1.5565    13.7840    12.6665 </r>
       <r>     1.7498    22.1055    16.9404 </r>
       <r>     1.9432     0.3081    17.0000 </r>
       <r>     2.1365     0.0000    17.0000 </r>
       <r>     2.3299     3.9477    17.7632 </r>
       <r>     2.5232    21.9087    21.9991 </r>
       <r>     2.7166     0.0047    22.0000 </r>
       <r>     2.9099     0.0000    22.0000 </r>
       <r>     3.1032     0.0000    22.0000 </r>
       <r>     3.2966     0.0000    22.0000 </r>
       <r>     3.4899     0.6375    22.1233 </r>
       <r>     3.6833    28.6421    27.6609 </r>
       <r>     3.8766    21.0099    31.7230 </r>
       <r>     4.0699     1.4326    32.0000 </r>
       <r>     4.2633     0.0076    32.0015 </r>
       <r>     4.4566     7.2129    33.3960 </r>
       <r>     4.6500     8.2961    35.0000 </r>
       <r>     4.8433     0.0000    35.0000 </r>
       <r>     5.0366     0.0000    35.0000 </r>
       <r>     5.2300     0.0000    35.0000 </r>
       <r>     5.4233     0.0000    35.0000 </r>
       <r>     5.6167     0.0000    35.0000 </r>
       <r>     5.8100     0.0000    35.0000 </r>
       <r>     6.0033     0.0000    35.0000 </r>
       <r>     6.1967     0.1209    35.0234 </r>
       <r>     6.3900     5.0500    35.9997 </r>
       <r>     6.5834     0.0013    36.0000 </r>
       <r>     6.7767     0.0000    36.0000 </r>
       <r>     6.9700     0.0000    36.0000 </r>
       <r>     7.1634     0.0000    36.0000 </r>
       <r>     7.3567     0.0000    36.0000 </r>
       <r>     7.5501     0.0000    36.0000 </r>
       <r>     7.7434     0.0000    36.0000 </r>
       <r>     7.9368     0.0000    36.0000 </r>
       <r>     8.1301     0.0000    36.0000 </r>
       <r>     8.3234     0.0000    36.0000 </r>
       <r>     8.5168     0.0000    36.0000 </r>
       <r>     8.7101     0.0000    36.0000 </r>
       <r>     8.9035     0.0000    36.0000 </r>
      </set>
     </set>
    </array>
   </total>
   <partial>
    <array>
     <dimension dim="1">gridpoints</dimension>
     <dimension dim="2">spin</dimension>
     <dimension dim="3">ion</dimension>
     <field>energy</field>
     <field>    s</field>
     <field>   py</field>
     <field>   pz</field>
     <field>   px</field>
     <field>  dxy</field>
     <field>  dyz</field>
     <field>  dz2</field>
     <field>  dxz</field>
     <field>x2-y2</field>
     <set>
      <set comment="ion 1">
       <set comment="spin 1">
        <r>   -49.0988     0.0000     0.0000     0.0000     0.0000     0.0000     0.0000     0.0000     0.0000     0.0000 </r>
        <r>   -48.9054     0.0000     0.0000     0.0000     0.0000     0.0000     0.0000     0.0000     0.0000     0.0000 </r>
        <r>   -48.7121     0.0000     0.0000     0.0000     0.0000     0.0000     0.0000     0.0000     0.0000     0.0000 </r>
        <r>   -48.5187     0.0000     0.0000     0.0000     0.0000     0.0000     0.0000     0.0000     0.0000     0.0000 </r>
        <r>   -48.3254     0.0000     0.0000     0.0000     0.0000     0.0000     0.0000     0.0000     0.0000     0.0000 </r>
        <r>   -48.1321     0.0000     0.0000     0.0000     0.0000     0.0000     0.0000     0.0000     0.0000     0.0000 </r>
        <r>   -47.9387     0.0000     0.0000     0.0000     0.0000     0.0000     0.0000     0.0000     0.0000     0.0000 </r>
        <r>   -47.7454     0.0000     0.0000     0.0000     0.0000     0.0000     0.0000     0.0000     0.0000     0.0000 </r>
        <r>   -47.5520     0.0000     0.0000     0.0000     0.0000     0.0000     0.0000     0.0000     0.0000     0.0000 </r>
        <r>   -47.3587     0.0000     0.0000     0.0000     0.0000     0.0000     0.0000     0.0000     0.0000     0.0000 </r>
        <r>   -47.1653     0.0000     0.0000     0.0000     0.0000     0.0000     0.0000     0.0000     0.0000     0.0000 </r>
        <r>   -46.9720     0.0000     0.0000     0.0000     0.0000     0.0000     0.0000     0.0000     0.0000     0.0000 </r>
        <r>   -46.7787     0.0000     0.0000     0.0000     0.0000     0.0000     0.0000     0.0000     0.0000     0.0000 </r>
        <r>   -46.5853     0.0000     0.0013     0.0013     0.0013     0.0000     0.0000     0.0000     0.0000     0.0000 </r>
        <r>   -46.3920     0.0000     5.0200     5.0200     5.0200     0.0000     0.0000     0.0000     0.0000     0.0000 </r>
        <r>   -46.1986     0.0000     0.1202     0.1202     0.1202     0.0000     0.0000     0.0000     0.0000     0.0000 </r>
        <r>   -46.0053     0.0000     0.0000     0.0000     0.0000     0.0000     0.0000     0.0000     0.0000     0.0000 </r>
        <r>   -45.8120     0.0000     0.0000     0.0000     0.0000     0.0000     0.0000     0.0000     0.0000     0.0000 </r>
        <r>   -45.6186     0.0000     0.0000     0.0000     0.0000     0.0000     0.0000     0.0000     0.0000     0.0000 </r>
        <r>   -45.4253     0.0000     0.0000     0.0000     0.0000     0.0000     0.0000     0.0000     0.0000     0.0000 </r>
        <r>   -45.2319     0.0000     0.0000     0.0000     0.0000     0.0000     0.0000     0.0000     0.0000     0.0000 </r>
        <r>   -45.0386     0.0000     0.0000     0.0000     0.0000     0.0000     0.0000     0.0000     0.0000     0.0000 </r>
        <r>   -44.8453     0.0000     0.0000     0.0000     0.0000     0.0000     0.0000     0.0000     0.0000     0.0000 </r>
        <r>   -44.6519     0.0000     0.0000     0.0000     0.0000     0.0000     0.0000     0.0000     0.0000     0.0000 </r>
        <r>   -44.4586     0.0000     0.0000     0.0000     0.0000     0.0000     0.0000     0.0000     0.0000     0.0000 </r>
        <r>   -44.2652     0.0000     0.0000     0.0000     0.0000     0.0000     0.0000     0.0000     0.0000     0.0000 </r>
        <r>   -44.0719     0.0000     0.0000     0.0000     0.0000     0.0000     0.0000     0.0000     0.0000     0.0000 </r>
        <r>   -43.8786     0.0000     0.0000     0.0000     0.0000     0.0000     0.0000     0.0000     0.0000     0.0000 </r>
        <r>   -43.6852     0.0000     0.0000     0.0000     0.0000     0.0000     0.0000     0.0000     0.0000     0.0000 </r>
        <r>   -43.4919     0.0000     0.0000     0.0000     0.0000     0.0000     0.0000     0.0000     0.0000     0.0000 </r>
        <r>   -43.2985     0.0000     0.0000     0.0000     0.0000     0.0000     0.0000     0.0000     0.0000     0.0000 </r>
        <r>   -43.1052     0.0000     0.0000     0.0000     0.0000     0.0000     0.0000     0.0000     0.0000     0.0000 </r>
        <r>   -42.9119     0.0000     0.0000     0.0000     0.0000     0.0000     0.0000     0.0000     0.0000     0.0000 </r>
        <r>   -42.7185     0.0000     0.0000     0.0000     0.0000     0.0000     0.0000     0.0000     0.0000     0.0000 </r>
        <r>   -42.5252     0.0000     0.0000     0.0000     0.0000     0.0000     0.0000     0.0000     0.0000     0.0000 </r>
        <r>   -42.3318     0.0000     0.0000     0.0000     0.0000     0.0000     0.0000     0.0000     0.0000     0.0000 </r>
        <r>   -42.1385     0.0000     0.0000     0.0000     0.0000     0.0000     0.0000     0.0000     0.0000     0.0000 </r>
        <r>   -41.9451     0.0000     0.0000     0.0000     0.0000     0.0000     0.0000     0.0000     0.0000     0.0000 </r>
        <r>   -41.7518     0.0000     0.0000     0.0000     0.0000     0.0000     0.0000     0.0000     0.0000     0.0000 </r>
        <r>   -41.5585     0.0000     0.0000     0.0000     0.0000     0.0000     0.0000     0.0000     0.0000     0.0000 </r>
        <r>   -41.3651     0.0000     0.0000     0.0000     0.0000     0.0000     0.0000     0.0000     0.0000     0.0000 </r>
        <r>   -41.1718     0.0000     0.0000     0.0000     0.0000     0.0000     0.0000     0.0000     0.0000     0.0000 </r>
        <r>   -40.9784     0.0000     0.0000     0.0000     0.0000     0.0000     0.0000     0.0000     0.0000     0.0000 </r>
        <r>   -40.7851     0.0000     0.0000     0.0000     0.0000     0.0000     0.0000     0.0000     0.0000     0.0000 </r>
        <r>   -40.5918     0.0000     0.0000     0.0000     0.0000     0.0000     0.0000     0.0000     0.0000     0.0000 </r>
        <r>   -40.3984     0.0000     0.0000     0.0000     0.0000     0.0000     0.0000     0.0000     0.0000     0.0000 </r>
        <r>   -40.2051     0.0000     0.0000     0.0000     0.0000     0.0000     0.0000     0.0000     0.0000     0.0000 </r>
        <r>   -40.0117     0.0000     0.0000     0.0000     0.0000     0.0000     0.0000     0.0000     0.0000     0.0000 </r>
        <r>   -39.8184     0.0000     0.0000     0.0000     0.0000     0.0000     0.0000     0.0000     0.0000     0.0000 </r>
        <r>   -39.6251     0.0000     0.0000     0.0000     0.0000     0.0000     0.0000     0.0000     0.0000     0.0000 </r>
        <r>   -39.4317     0.0000     0.0000     0.0000     0.0000     0.0000     0.0000     0.0000     0.0000     0.0000 </r>
        <r>   -39.2384     0.0000     0.0000     0.0000     0.0000     0.0000     0.0000     0.0000     0.0000     0.0000 </r>
        <r>   -39.0450     0.0000     0.0000     0.0000     0.0000     0.0000     0.0000     0.0000     0.0000     0.0000 </r>
        <r>   -38.8517     0.0000     0.0000     0.0000     0.0000     0.0000     0.0000     0.0000     0.0000     0.0000 </r>
        <r>   -38.6584     0.0000     0.0000     0.0000     0.0000     0.0000     0.0000     0.0000     0.0000     0.0000 </r>
        <r>   -38.4650     0.0000     0.0000     0.0000     0.0000     0.0000     0.0000     0.0000     0.0000     0.0000 </r>
        <r>   -38.2717     0.0000     0.0000     0.0000     0.0000     0.0000     0.0000     0.0000     0.0000     0.0000 </r>
        <r>   -38.0783     0.0000     0.0000     0.0000     0.0000     0.0000     0.0000     0.0000     0.0000     0.0000 </r>
        <r>   -37.8850     0.0000     0.0000     0.0000     0.0000     0.0000     0.0000     0.0000     0.0000     0.0000 </r>
        <r>   -37.6917     0.0000     0.0000     0.0000     0.0000     0.0000     0.0000     0.0000     0.0000     0.0000 </r>
        <r>   -37.4983     0.0000     0.0000     0.0000     0.0000     0.0000     0.0000     0.0000     0.0000     0.0000 </r>
        <r>   -37.3050     0.0000     0.0000     0.0000     0.0000     0.0000     0.0000     0.0000     0.0000     0.0000 </r>
        <r>   -37.1116     0.0000     0.0000     0.0000     0.0000     0.0000     0.0000     0.0000     0.0000     0.0000 </r>
        <r>   -36.9183     0.0000     0.0000     0.0000     0.0000     0.0000     0.0000     0.0000     0.0000     0.0000 </r>
        <r>   -36.7249     0.0000     0.0000     0.0000     0.0000     0.0000     0.0000     0.0000     0.0000     0.0000 </r>
        <r>   -36.5316     0.0000     0.0000     0.0000     0.0000     0.0000     0.0000     0.0000     0.0000     0.0000 </r>
        <r>   -36.3383     0.0000     0.0000     0.0000     0.0000     0.0000     0.0000     0.0000     0.0000     0.0000 </r>
        <r>   -36.1449     0.0000     0.0000     0.0000     0.0000     0.0000     0.0000     0.0000     0.0000     0.0000 </r>
        <r>   -35.9516     0.0000     0.0000     0.0000     0.0000     0.0000     0.0000     0.0000     0.0000     0.0000 </r>
        <r>   -35.7582     0.0000     0.0000     0.0000     0.0000     0.0000     0.0000     0.0000     0.0000     0.0000 </r>
        <r>   -35.5649     0.0000     0.0000     0.0000     0.0000     0.0000     0.0000     0.0000     0.0000     0.0000 </r>
        <r>   -35.3716     0.0000     0.0000     0.0000     0.0000     0.0000     0.0000     0.0000     0.0000     0.0000 </r>
        <r>   -35.1782     0.0000     0.0000     0.0000     0.0000     0.0000     0.0000     0.0000     0.0000     0.0000 </r>
        <r>   -34.9849     0.0000     0.0000     0.0000     0.0000     0.0000     0.0000     0.0000     0.0000     0.0000 </r>
        <r>   -34.7915     0.0000     0.0000     0.0000     0.0000     0.0000     0.0000     0.0000     0.0000     0.0000 </r>
        <r>   -34.5982     0.0000     0.0000     0.0000     0.0000     0.0000     0.0000     0.0000     0.0000     0.0000 </r>
        <r>   -34.4049     0.0000     0.0000     0.0000     0.0000     0.0000     0.0000     0.0000     0.0000     0.0000 </r>
        <r>   -34.2115     0.0000     0.0000     0.0000     0.0000     0.0000     0.0000     0.0000     0.0000     0.0000 </r>
        <r>   -34.0182     0.0000     0.0000     0.0000     0.0000     0.0000     0.0000     0.0000     0.0000     0.0000 </r>
        <r>   -33.8248     0.0000     0.0000     0.0000     0.0000     0.0000     0.0000     0.0000     0.0000     0.0000 </r>
        <r>   -33.6315     0.0000     0.0000     0.0000     0.0000     0.0000     0.0000     0.0000     0.0000     0.0000 </r>
        <r>   -33.4382     0.0000     0.0000     0.0000     0.0000     0.0000     0.0000     0.0000     0.0000     0.0000 </r>
        <r>   -33.2448     0.0000     0.0000     0.0000     0.0000     0.0000     0.0000     0.0000     0.0000     0.0000 </r>
        <r>   -33.0515     0.0000     0.0000     0.0000     0.0000     0.0000     0.0000     0.0000     0.0000     0.0000 </r>
        <r>   -32.8581     0.0000     0.0000     0.0000     0.0000     0.0000     0.0000     0.0000     0.0000     0.0000 </r>
        <r>   -32.6648     0.0000     0.0000     0.0000     0.0000     0.0000     0.0000     0.0000     0.0000     0.0000 </r>
        <r>   -32.4715     0.0000     0.0000     0.0000     0.0000     0.0000     0.0000     0.0000     0.0000     0.0000 </r>
        <r>   -32.2781     0.0000     0.0000     0.0000     0.0000     0.0000     0.0000     0.0000     0.0000     0.0000 </r>
        <r>   -32.0848     0.0000     0.0000     0.0000     0.0000     0.0000     0.0000     0.0000     0.0000     0.0000 </r>
        <r>   -31.8914     0.0000     0.0000     0.0000     0.0000     0.0000     0.0000     0.0000     0.0000     0.0000 </r>
        <r>   -31.6981     0.0000     0.0000     0.0000     0.0000     0.0000     0.0000     0.0000     0.0000     0.0000 </r>
        <r>   -31.5048     0.0000     0.0000     0.0000     0.0000     0.0000     0.0000     0.0000     0.0000     0.0000 </r>
        <r>   -31.3114     0.0000     0.0000     0.0000     0.0000     0.0000     0.0000     0.0000     0.0000     0.0000 </r>
        <r>   -31.1181     0.0000     0.0000     0.0000     0.0000     0.0000     0.0000     0.0000     0.0000     0.0000 </r>
        <r>   -30.9247     0.0000     0.0000     0.0000     0.0000     0.0000     0.0000     0.0000     0.0000     0.0000 </r>
        <r>   -30.7314     0.0000     0.0000     0.0000     0.0000     0.0000     0.0000     0.0000     0.0000     0.0000 </r>
        <r>   -30.5380     0.0000     0.0000     0.0000     0.0000     0.0000     0.0000     0.0000     0.0000     0.0000 </r>
        <r>   -30.3447     0.0000     0.0000     0.0000     0.0000     0.0000     0.0000     0.0000     0.0000     0.0000 </r>
        <r>   -30.1514     0.0000     0.0000     0.0000     0.0000     0.0000     0.0000     0.0000     0.0000     0.0000 </r>
        <r>   -29.9580     0.0000     0.0000     0.0000     0.0000     0.0000     0.0000     0.0000     0.0000     0.0000 </r>
        <r>   -29.7647     0.0000     0.0000     0.0000     0.0000     0.0000     0.0000     0.0000     0.0000     0.0000 </r>
        <r>   -29.5713     0.0000     0.0000     0.0000     0.0000     0.0000     0.0000     0.0000     0.0000     0.0000 </r>
        <r>   -29.3780     0.0000     0.0000     0.0000     0.0000     0.0000     0.0000     0.0000     0.0000     0.0000 </r>
        <r>   -29.1847     0.0000     0.0000     0.0000     0.0000     0.0000     0.0000     0.0000     0.0000     0.0000 </r>
        <r>   -28.9913     0.0000     0.0000     0.0000     0.0000     0.0000     0.0000     0.0000     0.0000     0.0000 </r>
        <r>   -28.7980     0.0000     0.0000     0.0000     0.0000     0.0000     0.0000     0.0000     0.0000     0.0000 </r>
        <r>   -28.6046     0.0000     0.0000     0.0000     0.0000     0.0000     0.0000     0.0000     0.0000     0.0000 </r>
        <r>   -28.4113     0.0000     0.0000     0.0000     0.0000     0.0000     0.0000     0.0000     0.0000     0.0000 </r>
        <r>   -28.2180     0.0000     0.0000     0.0000     0.0000     0.0000     0.0000     0.0000     0.0000     0.0000 </r>
        <r>   -28.0246     0.0000     0.0000     0.0000     0.0000     0.0000     0.0000     0.0000     0.0000     0.0000 </r>
        <r>   -27.8313     0.0000     0.0000     0.0000     0.0000     0.0000     0.0000     0.0000     0.0000     0.0000 </r>
        <r>   -27.6379     0.0000     0.0000     0.0000     0.0000     0.0000     0.0000     0.0000     0.0000     0.0000 </r>
        <r>   -27.4446     0.0000     0.0000     0.0000     0.0000     0.0000     0.0000     0.0000     0.0000     0.0000 </r>
        <r>   -27.2513     0.0000     0.0000     0.0000     0.0000     0.0000     0.0000     0.0000     0.0000     0.0000 </r>
        <r>   -27.0579     0.0000     0.0000     0.0000     0.0000     0.0000     0.0000     0.0000     0.0000     0.0000 </r>
        <r>   -26.8646     0.0000     0.0000     0.0000     0.0000     0.0000     0.0000     0.0000     0.0000     0.0000 </r>
        <r>   -26.6712     0.0000     0.0000     0.0000     0.0000     0.0000     0.0000     0.0000     0.0000     0.0000 </r>
        <r>   -26.4779     0.0000     0.0000     0.0000     0.0000     0.0000     0.0000     0.0000     0.0000     0.0000 </r>
        <r>   -26.2846     0.0000     0.0000     0.0000     0.0000     0.0000     0.0000     0.0000     0.0000     0.0000 </r>
        <r>   -26.0912     0.0000     0.0000     0.0000     0.0000     0.0000     0.0000     0.0000     0.0000     0.0000 </r>
        <r>   -25.8979     0.0000     0.0000     0.0000     0.0000     0.0000     0.0000     0.0000     0.0000     0.0000 </r>
        <r>   -25.7045     0.0000     0.0000     0.0000     0.0000     0.0000     0.0000     0.0000     0.0000     0.0000 </r>
        <r>   -25.5112     0.0000     0.0000     0.0000     0.0000     0.0000     0.0000     0.0000     0.0000     0.0000 </r>
        <r>   -25.3178     0.0000     0.0000     0.0000     0.0000     0.0000     0.0000     0.0000     0.0000     0.0000 </r>
        <r>   -25.1245     0.0000     0.0000     0.0000     0.0000     0.0000     0.0000     0.0000     0.0000     0.0000 </r>
        <r>   -24.9312     0.0000     0.0000     0.0000     0.0000     0.0000     0.0000     0.0000     0.0000     0.0000 </r>
        <r>   -24.7378     0.0000     0.0000     0.0000     0.0000     0.0000     0.0000     0.0000     0.0000     0.0000 </r>
        <r>   -24.5445     0.0000     0.0000     0.0000     0.0000     0.0000     0.0000     0.0000     0.0000     0.0000 </r>
        <r>   -24.3511     0.0000     0.0000     0.0000     0.0000     0.0000     0.0000     0.0000     0.0000     0.0000 </r>
        <r>   -24.1578     0.0000     0.0000     0.0000     0.0000     0.0000     0.0000     0.0000     0.0000     0.0000 </r>
        <r>   -23.9645     0.0000     0.0000     0.0000     0.0000     0.0000     0.0000     0.0000     0.0000     0.0000 </r>
        <r>   -23.7711     0.0000     0.0000     0.0000     0.0000     0.0000     0.0000     0.0000     0.0000     0.0000 </r>
        <r>   -23.5778     0.0000     0.0000     0.0000     0.0000     0.0000     0.0000     0.0000     0.0000     0.0000 </r>
        <r>   -23.3844     0.0000     0.0000     0.0000     0.0000     0.0000     0.0000     0.0000     0.0000     0.0000 </r>
        <r>   -23.1911     0.0000     0.0000     0.0000     0.0000     0.0000     0.0000     0.0000     0.0000     0.0000 </r>
        <r>   -22.9978     0.0000     0.0000     0.0000     0.0000     0.0000     0.0000     0.0000     0.0000     0.0000 </r>
        <r>   -22.8044     0.0000     0.0000     0.0000     0.0000     0.0000     0.0000     0.0000     0.0000     0.0000 </r>
        <r>   -22.6111     0.0000     0.0000     0.0000     0.0000     0.0000     0.0000     0.0000     0.0000     0.0000 </r>
        <r>   -22.4177     0.0000     0.0000     0.0000     0.0000     0.0000     0.0000     0.0000     0.0000     0.0000 </r>
        <r>   -22.2244     0.0000     0.0000     0.0000     0.0000     0.0000     0.0000     0.0000     0.0000     0.0000 </r>
        <r>   -22.0311     0.0000     0.0000     0.0000     0.0000     0.0000     0.0000     0.0000     0.0000     0.0000 </r>
        <r>   -21.8377     0.0000     0.0000     0.0000     0.0000     0.0000     0.0000     0.0000     0.0000     0.0000 </r>
        <r>   -21.6444     0.0000     0.0000     0.0000     0.0000     0.0000     0.0000     0.0000     0.0000     0.0000 </r>
        <r>   -21.4510     0.0000     0.0000     0.0000     0.0000     0.0000     0.0000     0.0000     0.0000     0.0000 </r>
        <r>   -21.2577     0.0000     0.0000     0.0000     0.0000     0.0000     0.0000     0.0000     0.0000     0.0000 </r>
        <r>   -21.0644     0.0000     0.0000     0.0000     0.0000     0.0000     0.0000     0.0000     0.0000     0.0000 </r>
        <r>   -20.8710     0.0000     0.0000     0.0000     0.0000     0.0000     0.0000     0.0000     0.0000     0.0000 </r>
        <r>   -20.6777     0.0000     0.0000     0.0000     0.0000     0.0000     0.0000     0.0000     0.0000     0.0000 </r>
        <r>   -20.4843     0.0000     0.0000     0.0000     0.0000     0.0000     0.0000     0.0000     0.0000     0.0000 </r>
        <r>   -20.2910     0.0000     0.0000     0.0000     0.0000     0.0000     0.0000     0.0000     0.0000     0.0000 </r>
        <r>   -20.0976     0.0000     0.0000     0.0000     0.0000     0.0000     0.0000     0.0000     0.0000     0.0000 </r>
        <r>   -19.9043     0.0000     0.0000     0.0000     0.0000     0.0000     0.0000     0.0000     0.0000     0.0000 </r>
        <r>   -19.7110     0.0000     0.0000     0.0000     0.0000     0.0000     0.0000     0.0000     0.0000     0.0000 </r>
        <r>   -19.5176     0.0000     0.0000     0.0000     0.0000     0.0000     0.0000     0.0000     0.0000     0.0000 </r>
        <r>   -19.3243     0.0000     0.0000     0.0000     0.0000     0.0000     0.0000     0.0000     0.0000     0.0000 </r>
        <r>   -19.1309     0.0000     0.0000     0.0000     0.0000     0.0000     0.0000     0.0000     0.0000     0.0000 </r>
        <r>   -18.9376     0.0000     0.0000     0.0000     0.0000     0.0000     0.0000     0.0000     0.0000     0.0000 </r>
        <r>   -18.7443     0.0000     0.0000     0.0000     0.0000     0.0000     0.0000     0.0000     0.0000     0.0000 </r>
        <r>   -18.5509     0.0000     0.0000     0.0000     0.0000     0.0000     0.0000     0.0000     0.0000     0.0000 </r>
        <r>   -18.3576     0.0000     0.0000     0.0000     0.0000     0.0000     0.0000     0.0000     0.0000     0.0000 </r>
        <r>   -18.1642     0.0000     0.0000     0.0000     0.0000     0.0000     0.0000     0.0000     0.0000     0.0000 </r>
        <r>   -17.9709     0.0000     0.0000     0.0000     0.0000     0.0000     0.0000     0.0000     0.0000     0.0000 </r>
        <r>   -17.7776     0.0000     0.0000     0.0000     0.0000     0.0000     0.0000     0.0000     0.0000     0.0000 </r>
        <r>   -17.5842     0.0000     0.0000     0.0000     0.0000     0.0000     0.0000     0.0000     0.0000     0.0000 </r>
        <r>   -17.3909     0.0000     0.0000     0.0000     0.0000     0.0000     0.0000     0.0000     0.0000     0.0000 </r>
        <r>   -17.1975     0.0000     0.0000     0.0000     0.0000     0.0000     0.0000     0.0000     0.0000     0.0000 </r>
        <r>   -17.0042     0.0000     0.0000     0.0000     0.0000     0.0000     0.0000     0.0000     0.0000     0.0000 </r>
        <r>   -16.8109     0.0000     0.0000     0.0000     0.0000     0.0000     0.0000     0.0000     0.0000     0.0000 </r>
        <r>   -16.6175     0.0000     0.0000     0.0000     0.0000     0.0000     0.0000     0.0000     0.0000     0.0000 </r>
        <r>   -16.4242     0.0000     0.0000     0.0000     0.0000     0.0000     0.0000     0.0000     0.0000     0.0000 </r>
        <r>   -16.2308     0.0000     0.0000     0.0000     0.0000     0.0000     0.0000     0.0000     0.0000     0.0000 </r>
        <r>   -16.0375     0.0000     0.0000     0.0000     0.0000     0.0000     0.0000     0.0000     0.0000     0.0000 </r>
        <r>   -15.8442     0.0000     0.0000     0.0000     0.0000     0.0000     0.0000     0.0000     0.0000     0.0000 </r>
        <r>   -15.6508     0.0000     0.0000     0.0000     0.0000     0.0000     0.0000     0.0000     0.0000     0.0000 </r>
        <r>   -15.4575     0.0000     0.0000     0.0000     0.0000     0.0000     0.0000     0.0000     0.0000     0.0000 </r>
        <r>   -15.2641     0.0000     0.0000     0.0000     0.0000     0.0000     0.0000     0.0000     0.0000     0.0000 </r>
        <r>   -15.0708     0.0000     0.0000     0.0000     0.0000     0.0000     0.0000     0.0000     0.0000     0.0000 </r>
        <r>   -14.8775     0.0000     0.0000     0.0000     0.0000     0.0000     0.0000     0.0000     0.0000     0.0000 </r>
        <r>   -14.6841     0.0000     0.0000     0.0000     0.0000     0.0000     0.0000     0.0000     0.0000     0.0000 </r>
        <r>   -14.4908     0.0000     0.0000     0.0000     0.0000     0.0000     0.0000     0.0000     0.0000     0.0000 </r>
        <r>   -14.2974     0.0000     0.0000     0.0000     0.0000     0.0000     0.0000     0.0000     0.0000     0.0000 </r>
        <r>   -14.1041     0.0000     0.0000     0.0000     0.0000     0.0000     0.0000     0.0000     0.0000     0.0000 </r>
        <r>   -13.9107     0.0000     0.0000     0.0000     0.0000     0.0000     0.0000     0.0000     0.0000     0.0000 </r>
        <r>   -13.7174     0.0000     0.0000     0.0000     0.0000     0.0000     0.0000     0.0000     0.0000     0.0000 </r>
        <r>   -13.5241     0.0000     0.0000     0.0000     0.0000     0.0000     0.0000     0.0000     0.0000     0.0000 </r>
        <r>   -13.3307     0.0000     0.0000     0.0000     0.0000     0.0000     0.0000     0.0000     0.0000     0.0000 </r>
        <r>   -13.1374     0.0000     0.0000     0.0000     0.0000     0.0000     0.0000     0.0000     0.0000     0.0000 </r>
        <r>   -12.9440     0.0000     0.0000     0.0000     0.0000     0.0000     0.0000     0.0000     0.0000     0.0000 </r>
        <r>   -12.7507     0.0000     0.0000     0.0000     0.0000     0.0000     0.0000     0.0000     0.0000     0.0000 </r>
        <r>   -12.5574     0.0000     0.0000     0.0000     0.0000     0.0000     0.0000     0.0000     0.0000     0.0000 </r>
        <r>   -12.3640     0.0000     0.0000     0.0000     0.0000     0.0000     0.0000     0.0000     0.0000     0.0000 </r>
[...]
        <r>     0.2031     0.0000     0.0000     0.0000     0.0000     0.0000     0.0000     0.0000     0.0000     0.0000 </r>
        <r>     0.3965     0.0000     0.0000     0.0000     0.0000     0.0000     0.0000     0.0000     0.0000     0.0000 </r>
        <r>     0.5898     0.0000     0.0000     0.0000     0.0000     0.0000     0.0000     0.0000     0.0000     0.0000 </r>
        <r>     0.7831     0.0000     0.0000     0.0000     0.0000     0.0000     0.0000     0.0090     0.0000     0.0088 </r>
        <r>     0.9765     0.0000     0.0000     0.0000     0.0000     0.0000     0.0000     0.0001     0.0000     0.0001 </r>
        <r>     1.1698     0.0000     0.0000     0.0000     0.0000     0.0000     0.0000     0.0000     0.0000     0.0000 </r>
        <r>     1.3632     0.0000     0.0000     0.0001     0.0000     0.0000     0.0000     0.0000     0.0000     0.0000 </r>
        <r>     1.5565     0.0268     0.0417     0.0797     0.0669     0.0000     0.0082     0.0000     0.0011     0.0000 </r>
        <r>     1.7498     0.0846     0.0587     0.0083     0.0157     0.0312     0.0235     0.0000     0.0303     0.0000 </r>
        <r>     1.9432     0.0001     0.0000     0.0000     0.0000     0.0011     0.0001     0.0000     0.0007     0.0000 </r>
        <r>     2.1365     0.0000     0.0000     0.0000     0.0000     0.0000     0.0000     0.0000     0.0000     0.0000 </r>
        <r>     2.3299     0.0000     0.0001     0.0000     0.0000     0.0000     0.0000     0.0035     0.0000     0.0035 </r>
        <r>     2.5232     0.0000     0.0004     0.0011     0.0007     0.0003     0.0003     0.0091     0.0003     0.0087 </r>
        <r>     2.7166     0.0000     0.0000     0.0000     0.0000     0.0000     0.0000     0.0000     0.0000     0.0000 </r>
        <r>     2.9099     0.0000     0.0000     0.0000     0.0000     0.0000     0.0000     0.0000     0.0000     0.0000 </r>
        <r>     3.1032     0.0000     0.0000     0.0000     0.0000     0.0000     0.0000     0.0000     0.0000     0.0000 </r>
        <r>     3.2966     0.0000     0.0000     0.0000     0.0000     0.0000     0.0000     0.0000     0.0000     0.0000 </r>
        <r>     3.4899     0.0004     0.0058     0.0006     0.0009     0.0002     0.0002     0.0010     0.0002     0.0006 </r>
        <r>     3.6833     0.1174     0.0658     0.0119     0.0563     0.0247     0.0247     0.0354     0.0237     0.0158 </r>
        <r>     3.8766     0.0355     0.0392     0.0767     0.0903     0.0002     0.0004     0.0701     0.0014     0.0778 </r>
        <r>     4.0699     0.0004     0.0008     0.0096     0.0012     0.0000     0.0000     0.0023     0.0000     0.0161 </r>
        <r>     4.2633     0.0002     0.0000     0.0000     0.0000     0.0000     0.0000     0.0000     0.0000     0.0000 </r>
        <r>     4.4566     0.1055     0.0138     0.0192     0.0149     0.0012     0.0040     0.0019     0.0009     0.0010 </r>
        <r>     4.6500     0.0048     0.0341     0.0307     0.0456     0.0033     0.0173     0.0030     0.0021     0.0034 </r>
        <r>     4.8433     0.0000     0.0000     0.0000     0.0000     0.0000     0.0000     0.0000     0.0000     0.0000 </r>
        <r>     5.0366     0.0000     0.0000     0.0000     0.0000     0.0000     0.0000     0.0000     0.0000     0.0000 </r>
        <r>     5.2300     0.0000     0.0000     0.0000     0.0000     0.0000     0.0000     0.0000     0.0000     0.0000 </r>
        <r>     5.4233     0.0000     0.0000     0.0000     0.0000     0.0000     0.0000     0.0000     0.0000     0.0000 </r>
        <r>     5.6167     0.0000     0.0000     0.0000     0.0000     0.0000     0.0000     0.0000     0.0000     0.0000 </r>
        <r>     5.8100     0.0000     0.0000     0.0000     0.0000     0.0000     0.0000     0.0000     0.0000     0.0000 </r>
        <r>     6.0033     0.0000     0.0000     0.0000     0.0000     0.0000     0.0000     0.0000     0.0000     0.0000 </r>
        <r>     6.1967     0.0002     0.0001     0.0000     0.0001     0.0001     0.0000     0.0003     0.0004     0.0000 </r>
        <r>     6.3900     0.0064     0.0042     0.0019     0.0022     0.0037     0.0000     0.0107     0.0152     0.0000 </r>
        <r>     6.5834     0.0000     0.0000     0.0000     0.0000     0.0000     0.0000     0.0000     0.0000     0.0000 </r>
        <r>     6.7767     0.0000     0.0000     0.0000     0.0000     0.0000     0.0000     0.0000     0.0000     0.0000 </r>
        <r>     6.9700     0.0000     0.0000     0.0000     0.0000     0.0000     0.0000     0.0000     0.0000     0.0000 </r>
        <r>     7.1634     0.0000     0.0000     0.0000     0.0000     0.0000     0.0000     0.0000     0.0000     0.0000 </r>
        <r>     7.3567     0.0000     0.0000     0.0000     0.0000     0.0000     0.0000     0.0000     0.0000     0.0000 </r>
        <r>     7.5501     0.0000     0.0000     0.0000     0.0000     0.0000     0.0000     0.0000     0.0000     0.0000 </r>
        <r>     7.7434     0.0000     0.0000     0.0000     0.0000     0.0000     0.0000     0.0000     0.0000     0.0000 </r>
        <r>     7.9368     0.0000     0.0000     0.0000     0.0000     0.0000     0.0000     0.0000     0.0000     0.0000 </r>
        <r>     8.1301     0.0000     0.0000     0.0000     0.0000     0.0000     0.0000     0.0000     0.0000     0.0000 </r>
        <r>     8.3234     0.0000     0.0000     0.0000     0.0000     0.0000     0.0000     0.0000     0.0000     0.0000 </r>
        <r>     8.5168     0.0000     0.0000     0.0000     0.0000     0.0000     0.0000     0.0000     0.0000     0.0000 </r>
        <r>     8.7101     0.0000     0.0000     0.0000     0.0000     0.0000     0.0000     0.0000     0.0000     0.0000 </r>
        <r>     8.9035     0.0000     0.0000     0.0000     0.0000     0.0000     0.0000     0.0000     0.0000     0.0000 </r>
       </set>
      </set>
     </set>
    </array>
   </partial>
  </dos>
  <projected>
   <eigenvalues>
    <array>
     <dimension dim="1">band</dimension>
     <dimension dim="2">kpoint</dimension>
     <dimension dim="3">spin</dimension>
     <field>eigene</field>
     <field>occ</field>
     <set>
      <set comment="spin 1">
       <set comment="kpoint 1">
        <r>  -46.4623    1.0000 </r>
        <r>  -46.4623    1.0000 </r>
        <r>  -46.4623    1.0000 </r>
        <r>   -4.5587    1.0000 </r>
        <r>   -1.1272    0.0000 </r>
        <r>   -1.1242    0.0000 </r>
        <r>   -1.1174    0.0000 </r>
        <r>   -0.2995    0.0000 </r>
        <r>    0.6981    0.0000 </r>
        <r>    0.6982    0.0000 </r>
        <r>    1.4782    0.0000 </r>
        <r>    1.5473    0.0000 </r>
        <r>    1.5631    0.0000 </r>
        <r>    1.6152    0.0000 </r>
        <r>    1.6330    0.0000 </r>
        <r>    1.6408    0.0000 </r>
        <r>    1.6624    0.0000 </r>
        <r>    2.3508    0.0000 </r>
        <r>    2.3515    0.0000 </r>
        <r>    2.3723    0.0000 </r>
        <r>    2.3745    0.0000 </r>
        <r>    2.4087    0.0000 </r>
        <r>    3.4439    0.0000 </r>
        <r>    3.5811    0.0000 </r>
        <r>    3.5825    0.0000 </r>
        <r>    3.5843    0.0000 </r>
        <r>    3.5907    0.0000 </r>
        <r>    3.6417    0.0000 </r>
        <r>    3.7772    0.0000 </r>
        <r>    3.9023    0.0000 </r>
        <r>    3.9035    0.0000 </r>
        <r>    3.9495    0.0000 </r>
        <r>    4.2283    0.0000 </r>
        <r>    4.4572    0.0000 </r>
        <r>    4.9081    0.0000 </r>
        <r>    5.7712    0.0000 </r>
       </set>
      </set>
      <set comment="spin 2">
       <set comment="kpoint 1">
        <r>  -46.4620    1.0000 </r>
        <r>  -46.4620    1.0000 </r>
        <r>  -46.4620    1.0000 </r>
        <r>   -4.5585    1.0000 </r>
        <r>   -1.1268    0.0000 </r>
        <r>   -1.1259    0.0000 </r>
        <r>   -1.1229    0.0000 </r>
        <r>   -0.3009    0.0000 </r>
        <r>    0.6966    0.0000 </r>
        <r>    0.6974    0.0000 </r>
        <r>    1.4684    0.0000 </r>
        <r>    1.4990    0.0000 </r>
        <r>    1.5521    0.0000 </r>
        <r>    1.6006    0.0000 </r>
        <r>    1.6090    0.0000 </r>
        <r>    1.6805    0.0000 </r>
        <r>    1.6856    0.0000 </r>
        <r>    2.3495    0.0000 </r>
        <r>    2.3509    0.0000 </r>
        <r>    2.3756    0.0000 </r>
        <r>    2.3772    0.0000 </r>
        <r>    2.4125    0.0000 </r>
        <r>    3.5350    0.0000 </r>
        <r>    3.5725    0.0000 </r>
        <r>    3.5781    0.0000 </r>
        <r>    3.5787    0.0000 </r>
        <r>    3.6346    0.0000 </r>
        <r>    3.6793    0.0000 </r>
        <r>    3.7128    0.0000 </r>
        <r>    3.7817    0.0000 </r>
        <r>    3.7948    0.0000 </r>
        <r>    3.8542    0.0000 </r>
        <r>    4.3685    0.0000 </r>
        <r>    4.4783    0.0000 </r>
        <r>    4.4960    0.0000 </r>
        <r>    6.2670    0.0000 </r>
       </set>
      </set>
     </set>
    </array>
   </eigenvalues>
   <array>
    <dimension dim="1">ion</dimension>
    <dimension dim="2">band</dimension>
    <dimension dim="3">kpoint</dimension>
    <dimension dim="4">spin</dimension>
    <field>    s</field>
    <field>   py</field>
    <field>   pz</field>
    <field>   px</field>
    <field>  dxy</field>
    <field>  dyz</field>
    <field>  dz2</field>
    <field>  dxz</field>
    <field>x2-y2</field>
    <set>
     <set comment="spin1">
      <set comment="kpoint 1">
       <set comment="band 1">
        <r>  0.0000  0.8070  0.1798  0.0072  0.0000  0.0000  0.0000  0.0000  0.0000 </r>
       </set>
       <set comment="band 2">
        <r>  0.0000  0.1258  0.6962  0.1721  0.0000  0.0000  0.0000  0.0000  0.0000 </r>
       </set>
       <set comment="band 3">
        <r>  0.0000  0.0613  0.1180  0.8147  0.0000  0.0000  0.0000  0.0000  0.0000 </r>
       </set>
       <set comment="band 4">
        <r>  0.1791  0.0000  0.0000  0.0000  0.0000  0.0000  0.0000  0.0000  0.0000 </r>
       </set>
       <set comment="band 5">
        <r>  0.0000  0.0448  0.0086  0.0037  0.0000  0.0000  0.0000  0.0000  0.0000 </r>
       </set>
       <set comment="band 6">
        <r>  0.0000  0.0029  0.0394  0.0136  0.0000  0.0000  0.0000  0.0000  0.0000 </r>
       </set>
       <set comment="band 7">
        <r>  0.0000  0.0087  0.0077  0.0375  0.0000  0.0000  0.0000  0.0000  0.0000 </r>
       </set>
       <set comment="band 8">
        <r>  0.0200  0.0000  0.0000  0.0000  0.0000  0.0000  0.0000  0.0000  0.0000 </r>
       </set>
       <set comment="band 9">
        <r>  0.0000  0.0000  0.0000  0.0000  0.0000  0.0000  0.0010  0.0000  0.0008 </r>
       </set>
       <set comment="band 10">
        <r>  0.0000  0.0000  0.0000  0.0000  0.0000  0.0000  0.0008  0.0000  0.0010 </r>
       </set>
       <set comment="band 11">
        <r>  0.0000  0.0110  0.0029  0.0028  0.0000  0.0002  0.0000  0.0001  0.0000 </r>
       </set>
       <set comment="band 12">
        <r>  0.0050  0.0035  0.0033  0.0028  0.0008  0.0003  0.0000  0.0000  0.0000 </r>
       </set>
       <set comment="band 13">
        <r>  0.0002  0.0004  0.0031  0.0100  0.0010  0.0005  0.0000  0.0000  0.0000 </r>
       </set>
       <set comment="band 14">
        <r>  0.0153  0.0013  0.0000  0.0020  0.0007  0.0000  0.0000  0.0001  0.0000 </r>
       </set>
       <set comment="band 15">
        <r>  0.0005  0.0005  0.0033  0.0002  0.0024  0.0000  0.0000  0.0023  0.0000 </r>
       </set>
       <set comment="band 16">
        <r>  0.0001  0.0000  0.0040  0.0000  0.0000  0.0043  0.0000  0.0004  0.0000 </r>
       </set>
       <set comment="band 17">
        <r>  0.0006  0.0002  0.0014  0.0001  0.0013  0.0008  0.0000  0.0035  0.0000 </r>
       </set>
       <set comment="band 18">
        <r>  0.0000  0.0000  0.0000  0.0000  0.0000  0.0000  0.0022  0.0000  0.0000 </r>
       </set>
       <set comment="band 19">
        <r>  0.0000  0.0000  0.0000  0.0000  0.0000  0.0000  0.0000  0.0000  0.0024 </r>
       </set>
       <set comment="band 20">
        <r>  0.0000  0.0000  0.0000  0.0003  0.0000  0.0000  0.0000  0.0000  0.0000 </r>
       </set>
       <set comment="band 21">
        <r>  0.0000  0.0002  0.0007  0.0011  0.0000  0.0000  0.0000  0.0000  0.0000 </r>
       </set>
       <set comment="band 22">
        <r>  0.0000  0.0001  0.0002  0.0001  0.0000  0.0000  0.0001  0.0000  0.0000 </r>
       </set>
       <set comment="band 23">
        <r>  0.0000  0.0019  0.0141  0.0037  0.0000  0.0000  0.0014  0.0000  0.0006 </r>
       </set>
       <set comment="band 24">
        <r>  0.0001  0.0001  0.0001  0.0000  0.0007  0.0004  0.0000  0.0038  0.0001 </r>
       </set>
       <set comment="band 25">
        <r>  0.0002  0.0001  0.0000  0.0001  0.0005  0.0036  0.0000  0.0008  0.0000 </r>
       </set>
       <set comment="band 26">
        <r>  0.0006  0.0000  0.0000  0.0000  0.0036  0.0009  0.0000  0.0002  0.0000 </r>
       </set>
       <set comment="band 27">
        <r>  0.0015  0.0033  0.0012  0.0131  0.0000  0.0000  0.0025  0.0000  0.0038 </r>
       </set>
       <set comment="band 28">
        <r>  0.0204  0.0001  0.0000  0.0014  0.0000  0.0002  0.0000  0.0000  0.0002 </r>
       </set>
       <set comment="band 29">
        <r>  0.0000  0.0004  0.0000  0.0049  0.0000  0.0000  0.0046  0.0001  0.0056 </r>
       </set>
       <set comment="band 30">
        <r>  0.0012  0.0060  0.0010  0.0017  0.0006  0.0013  0.0059  0.0000  0.0000 </r>
       </set>
       <set comment="band 31">
        <r>  0.0133  0.0115  0.0065  0.0011  0.0001  0.0000  0.0000  0.0002  0.0004 </r>
       </set>
       <set comment="band 32">
        <r>  0.0009  0.0057  0.0003  0.0003  0.0000  0.0000  0.0053  0.0001  0.0095 </r>
       </set>
       <set comment="band 33">
        <r>  0.0120  0.0004  0.0102  0.0039  0.0000  0.0009  0.0014  0.0002  0.0006 </r>
       </set>
       <set comment="band 34">
        <r>  0.0004  0.0001  0.0015  0.0039  0.0031  0.0005  0.0002  0.0015  0.0007 </r>
       </set>
       <set comment="band 35">
        <r>  0.0000  0.0072  0.0007  0.0001  0.0090  0.0010  0.0001  0.0001  0.0000 </r>
       </set>
       <set comment="band 36">
        <r>  0.0001  0.0008  0.0008  0.0013  0.0021  0.0062  0.0004  0.0023  0.0000 </r>
       </set>
      </set>
     </set>
     <set comment="spin2">
      <set comment="kpoint 1">
       <set comment="band 1">
        <r>  0.0000  0.7735  0.1229  0.0977  0.0000  0.0000  0.0000  0.0000  0.0000 </r>
       </set>
       <set comment="band 2">
        <r>  0.0000  0.1028  0.8705  0.0207  0.0000  0.0000  0.0000  0.0000  0.0000 </r>
       </set>
       <set comment="band 3">
        <r>  0.0000  0.1177  0.0007  0.8756  0.0000  0.0000  0.0000  0.0000  0.0000 </r>
       </set>
       <set comment="band 4">
        <r>  0.1790  0.0000  0.0000  0.0000  0.0000  0.0000  0.0000  0.0000  0.0000 </r>
       </set>
       <set comment="band 5">
        <r>  0.0000  0.0000  0.0560  0.0008  0.0000  0.0000  0.0000  0.0000  0.0000 </r>
       </set>
       <set comment="band 6">
        <r>  0.0000  0.0025  0.0007  0.0533  0.0000  0.0000  0.0000  0.0000  0.0000 </r>
       </set>
       <set comment="band 7">
        <r>  0.0000  0.0531  0.0000  0.0024  0.0000  0.0000  0.0000  0.0000  0.0000 </r>
       </set>
       <set comment="band 8">
        <r>  0.0198  0.0000  0.0000  0.0000  0.0000  0.0000  0.0000  0.0000  0.0000 </r>
       </set>
       <set comment="band 9">
        <r>  0.0000  0.0000  0.0000  0.0000  0.0000  0.0000  0.0011  0.0000  0.0007 </r>
       </set>
       <set comment="band 10">
        <r>  0.0000  0.0000  0.0000  0.0000  0.0000  0.0000  0.0007  0.0000  0.0010 </r>
       </set>
       <set comment="band 11">
        <r>  0.0001  0.0000  0.0122  0.0042  0.0000  0.0000  0.0000  0.0001  0.0000 </r>
       </set>
       <set comment="band 12">
        <r>  0.0035  0.0037  0.0030  0.0072  0.0000  0.0000  0.0000  0.0001  0.0000 </r>
       </set>
       <set comment="band 13">
        <r>  0.0012  0.0066  0.0008  0.0032  0.0000  0.0021  0.0000  0.0001  0.0000 </r>
       </set>
       <set comment="band 14">
        <r>  0.0000  0.0061  0.0009  0.0005  0.0000  0.0035  0.0000  0.0002  0.0000 </r>
       </set>
       <set comment="band 15">
        <r>  0.0162  0.0029  0.0001  0.0008  0.0000  0.0001  0.0000  0.0001  0.0000 </r>
       </set>
       <set comment="band 16">
        <r>  0.0004  0.0001  0.0001  0.0000  0.0003  0.0004  0.0000  0.0053  0.0000 </r>
       </set>
       <set comment="band 17">
        <r>  0.0002  0.0000  0.0000  0.0000  0.0059  0.0000  0.0000  0.0003  0.0000 </r>
       </set>
       <set comment="band 18">
        <r>  0.0000  0.0001  0.0000  0.0000  0.0000  0.0000  0.0000  0.0000  0.0023 </r>
       </set>
       <set comment="band 19">
        <r>  0.0000  0.0000  0.0000  0.0000  0.0000  0.0000  0.0024  0.0000  0.0000 </r>
       </set>
       <set comment="band 20">
        <r>  0.0000  0.0000  0.0000  0.0000  0.0000  0.0000  0.0000  0.0000  0.0000 </r>
       </set>
       <set comment="band 21">
        <r>  0.0000  0.0000  0.0000  0.0000  0.0000  0.0000  0.0000  0.0000  0.0000 </r>
       </set>
       <set comment="band 22">
        <r>  0.0000  0.0000  0.0002  0.0001  0.0001  0.0001  0.0000  0.0000  0.0000 </r>
       </set>
       <set comment="band 23">
        <r>  0.0005  0.0111  0.0012  0.0017  0.0000  0.0002  0.0018  0.0000  0.0012 </r>
       </set>
       <set comment="band 24">
        <r>  0.0014  0.0001  0.0002  0.0001  0.0007  0.0001  0.0000  0.0034  0.0000 </r>
       </set>
       <set comment="band 25">
        <r>  0.0002  0.0000  0.0002  0.0001  0.0041  0.0001  0.0000  0.0007  0.0000 </r>
       </set>
       <set comment="band 26">
        <r>  0.0017  0.0003  0.0000  0.0005  0.0000  0.0039  0.0001  0.0003  0.0000 </r>
       </set>
       <set comment="band 27">
        <r>  0.0205  0.0001  0.0001  0.0001  0.0000  0.0006  0.0000  0.0002  0.0000 </r>
       </set>
       <set comment="band 28">
        <r>  0.0003  0.0029  0.0010  0.0121  0.0000  0.0000  0.0070  0.0000  0.0021 </r>
       </set>
       <set comment="band 29">
        <r>  0.0007  0.0035  0.0015  0.0097  0.0000  0.0000  0.0063  0.0000  0.0036 </r>
       </set>
       <set comment="band 30">
        <r>  0.0007  0.0022  0.0013  0.0028  0.0000  0.0000  0.0000  0.0002  0.0008 </r>
       </set>
       <set comment="band 31">
        <r>  0.0037  0.0009  0.0070  0.0009  0.0000  0.0000  0.0043  0.0000  0.0018 </r>
       </set>
       <set comment="band 32">
        <r>  0.0002  0.0005  0.0068  0.0008  0.0000  0.0000  0.0015  0.0000  0.0117 </r>
       </set>
       <set comment="band 33">
        <r>  0.0204  0.0005  0.0028  0.0005  0.0000  0.0002  0.0003  0.0000  0.0000 </r>
       </set>
       <set comment="band 34">
        <r>  0.0001  0.0076  0.0000  0.0064  0.0007  0.0005  0.0000  0.0005  0.0005 </r>
       </set>
       <set comment="band 35">
        <r>  0.0008  0.0012  0.0068  0.0047  0.0002  0.0035  0.0006  0.0000  0.0003 </r>
       </set>
       <set comment="band 36">
        <r>  0.0013  0.0008  0.0004  0.0004  0.0007  0.0000  0.0021  0.0030  0.0000 </r>
       </set>
      </set>
     </set>
    </set>
   </array>
  </projected>
 </calculation>
 <structure name="finalpos" >
  <crystal>
   <varray name="basis" >
    <v>      10.00000000       0.00000000       0.00000000 </v>
    <v>       0.00000000      10.00000000       0.00000000 </v>
    <v>       0.00000000       0.00000000      10.00000000 </v>
   </varray>
   <i name="volume">   1000.00000000 </i>
   <varray name="rec_basis" >
    <v>       0.10000000       0.00000000       0.00000000 </v>
    <v>       0.00000000       0.10000000       0.00000000 </v>
    <v>       0.00000000       0.00000000       0.10000000 </v>
   </varray>
  </crystal>
  <varray name="positions" >
   <v>       0.50000000       0.50000000       0.50000000 </v>
  </varray>
 </structure>
</modeling>
