       N       E                     dE             d eps       ncg     rms          ort
DAV:   1     0.107393990372E+03    0.10739E+03   -0.26056E+03    36   0.194E+02
DAV:   2     0.792809090680E+02   -0.28113E+02   -0.28007E+02    36   0.296E+01
DAV:   3     0.484434310994E+02   -0.30837E+02   -0.27882E+02    36   0.175E+01
DAV:   4     0.141620039335E+02   -0.34281E+02   -0.34280E+02    36   0.351E+01
DAV:   5     0.297557675635E+01   -0.11186E+02   -0.11186E+02    36   0.192E+01
SDA:   6     0.352617011767E+01    0.55059E+00   -0.66651E+01    36   0.167E+02 0.000E+00
DMP:   7     0.503229954892E+00   -0.30229E+01   -0.75160E+00    36   0.233E+01-0.119E+01
DMP:   8     0.119075826237E+00   -0.38415E+00   -0.72211E+00    36   0.184E+01-0.974E-01
DMP:   9    -0.213681791380E+00   -0.33276E+00   -0.43984E-01    36   0.169E+00-0.155E+00
DMP:  10    -0.198051395148E+00    0.15630E-01   -0.85819E-01    36   0.291E+00-0.199E+00
DMP:  11    -0.251882154601E+00   -0.53831E-01   -0.28951E-01    36   0.525E-01 0.519E-01
DMP:  12    -0.262887180245E+00   -0.11005E-01   -0.83656E-02    36   0.276E-01-0.176E-01
DMP:  13    -0.268190253305E+00   -0.53031E-02   -0.54442E-02    36   0.115E-01 0.546E-02
DMP:  14    -0.270885881987E+00   -0.26956E-02   -0.70876E-03    36   0.184E-02-0.175E-03
DMP:  15    -0.271085685826E+00   -0.19980E-03   -0.62200E-03    36   0.185E-02-0.784E-03
DMP:  16    -0.271497088709E+00   -0.41140E-03   -0.28425E-03    36   0.521E-03 0.497E-03
DMP:  17    -0.271642512039E+00   -0.14542E-03   -0.58740E-04    36   0.142E-03 0.134E-04
DMP:  18    -0.271674493162E+00   -0.31981E-04   -0.40977E-04    36   0.982E-04 0.110E-04
   1 F= -.27167449E+00 E0= -.27167449E+00  d E =-.271674E+00  mag=     1.0000
