<?xml version="1.0" encoding="ISO-8859-1"?>
<modeling>
 <generator>
  <i name="program" type="string">vasp </i>
  <i name="version" type="string">5.4.4.18Apr17-6-g9f103f2a35  </i>
  <i name="subversion" type="string">(build Nov 08 2019 15:19:53) gamma-only         parallel </i>
  <i name="platform" type="string">LinuxIFC </i>
  <i name="date" type="string">2020 11 30 </i>
  <i name="time" type="string">09:30:46 </i>
 </generator>
 <incar>
  <i type="string" name="PREC">accurate</i>
  <i type="string" name="ALGO"> D</i>
  <i type="int" name="ISPIN">     2</i>
  <i type="int" name="NELM">   300</i>
  <i type="int" name="IBRION">     2</i>
  <i name="EDIFF">      0.00005000</i>
  <i type="int" name="NSW">    99</i>
  <i type="int" name="ISIF">     2</i>
  <i name="ENCUT">    520.00000000</i>
  <v name="MAGMOM">      0.60000000</v>
  <i type="string" name="LREAL"> Auto</i>
  <i type="int" name="ISMEAR">     0</i>
  <i name="SIGMA">      0.05000000</i>
  <i type="logical" name="LWAVE"> F  </i>
  <i type="int" name="LORBIT">    11</i>
  <i type="logical" name="LASPH"> T  </i>
  <v type="int" name="KPOINT_BSE">    -1     0     0     0</v>
  <i type="int" name="NELM">   300</i>
  <i type="logical" name="LASPH"> T  </i>
 </incar>
 <structure name="primitive_cell" >
  <crystal>
   <varray name="basis" >
    <v>      10.00000000       0.00000000       0.00000000 </v>
    <v>       0.00000000      10.00000000       0.00000000 </v>
    <v>       0.00000000       0.00000000      10.00000000 </v>
   </varray>
   <i name="volume">   1000.00000000 </i>
   <varray name="rec_basis" >
    <v>       0.10000000       0.00000000       0.00000000 </v>
    <v>       0.00000000       0.10000000       0.00000000 </v>
    <v>       0.00000000       0.00000000       0.10000000 </v>
   </varray>
  </crystal>
  <varray name="positions" >
   <v>      -0.50000000      -0.50000000      -0.50000000 </v>
  </varray>
 </structure>
 <varray name="primitive_index" >
  <v type="int" >        1 </v>
 </varray>
 <kpoints>
  <generation param="Gamma">
   <v type="int" name="divisions">       1        1        1 </v>
   <v name="usershift">      0.00000000       0.00000000       0.00000000 </v>
   <v name="genvec1">      1.00000000       0.00000000       0.00000000 </v>
   <v name="genvec2">      0.00000000       1.00000000       0.00000000 </v>
   <v name="genvec3">      0.00000000       0.00000000       1.00000000 </v>
   <v name="shift">      0.00000000       0.00000000       0.00000000 </v>
  </generation>
  <varray name="kpointlist" >
   <v>       0.00000000       0.00000000       0.00000000 </v>
  </varray>
  <varray name="weights" >
   <v>       1.00000000 </v>
  </varray>
 </kpoints>
 <parameters>
  <separator name="general" >
   <i type="string" name="SYSTEM">unknown system</i>
   <i type="logical" name="LCOMPAT"> F  </i>
  </separator>
  <separator name="electronic" >
   <i type="string" name="PREC">accura</i>
   <i name="ENMAX">    520.00000000</i>
   <i name="ENAUG">    407.93300000</i>
   <i name="EDIFF">      0.00005000</i>
   <i type="int" name="IALGO">    53</i>
   <i type="int" name="IWAVPR">    11</i>
   <i type="int" name="NBANDS">    36</i>
   <i name="NELECT">      9.00000000</i>
   <i type="int" name="TURBO">     0</i>
   <i type="int" name="IRESTART">     0</i>
   <i type="int" name="NREBOOT">     0</i>
   <i type="int" name="NMIN">     0</i>
   <i name="EREF">      0.00000000</i>
   <separator name="electronic smearing" >
    <i type="int" name="ISMEAR">     0</i>
    <i name="SIGMA">      0.05000000</i>
    <i name="KSPACING">      0.50000000</i>
    <i type="logical" name="KGAMMA"> T  </i>
   </separator>
   <separator name="electronic projectors" >
    <i type="logical" name="LREAL"> T  </i>
    <v name="ROPT">     -0.00025000</v>
    <i type="int" name="LMAXPAW">  -100</i>
    <i type="int" name="LMAXMIX">     2</i>
    <i type="logical" name="NLSPLINE"> F  </i>
   </separator>
   <separator name="electronic startup" >
    <i type="int" name="ISTART">     0</i>
    <i type="int" name="ICHARG">     2</i>
    <i type="int" name="INIWAV">     1</i>
   </separator>
   <separator name="electronic spin" >
    <i type="int" name="ISPIN">     2</i>
    <i type="logical" name="LNONCOLLINEAR"> F  </i>
    <v name="MAGMOM">      0.60000000</v>
    <i name="NUPDOWN">     -1.00000000</i>
    <i type="logical" name="LSORBIT"> F  </i>
    <v name="SAXIS">      0.00000000      0.00000000      1.00000000</v>
    <i type="logical" name="LSPIRAL"> F  </i>
    <v name="QSPIRAL">      0.00000000      0.00000000      0.00000000</v>
    <i type="logical" name="LZEROZ"> F  </i>
   </separator>
   <separator name="electronic exchange-correlation" >
    <i type="logical" name="LASPH"> T  </i>
    <i type="logical" name="LMETAGGA"> F  </i>
   </separator>
   <separator name="electronic convergence" >
    <i type="int" name="NELM">   300</i>
    <i type="int" name="NELMDL">    -5</i>
    <i type="int" name="NELMIN">     2</i>
    <i name="ENINI">    520.00000000</i>
    <separator name="electronic convergence detail" >
     <i type="logical" name="LDIAG"> T  </i>
     <i type="logical" name="LSUBROT"> F  </i>
     <i name="WEIMIN">      0.00100000</i>
     <i name="EBREAK">      0.00000035</i>
     <i name="DEPER">      0.30000000</i>
     <i type="int" name="NRMM">     4</i>
     <i name="TIME">      0.40000000</i>
    </separator>
   </separator>
   <separator name="electronic mixer" >
    <i name="AMIX">      0.40000000</i>
    <i name="BMIX">      1.00000000</i>
    <i name="AMIN">      0.10000000</i>
    <i name="AMIX_MAG">      1.60000000</i>
    <i name="BMIX_MAG">      1.00000000</i>
    <separator name="electronic mixer details" >
     <i type="int" name="IMIX">     4</i>
     <i type="logical" name="MIXFIRST"> F  </i>
     <i type="int" name="MAXMIX">   -45</i>
     <i name="WC">    100.00000000</i>
     <i type="int" name="INIMIX">     1</i>
     <i type="int" name="MIXPRE">     1</i>
     <i type="int" name="MREMOVE">     5</i>
    </separator>
   </separator>
   <separator name="electronic dipolcorrection" >
    <i type="logical" name="LDIPOL"> F  </i>
    <i type="logical" name="LMONO"> F  </i>
    <i type="int" name="IDIPOL">     0</i>
    <i name="EPSILON">      1.00000000</i>
    <v name="DIPOL">   -100.00000000   -100.00000000   -100.00000000</v>
    <i name="EFIELD">      0.00000000</i>
   </separator>
  </separator>
  <separator name="grids" >
   <i type="int" name="NGX">    80</i>
   <i type="int" name="NGY">    80</i>
   <i type="int" name="NGZ">    80</i>
   <i type="int" name="NGXF">   160</i>
   <i type="int" name="NGYF">   160</i>
   <i type="int" name="NGZF">   160</i>
   <i type="logical" name="ADDGRID"> F  </i>
  </separator>
  <separator name="ionic" >
   <i type="int" name="NSW">    99</i>
   <i type="int" name="IBRION">     2</i>
   <i type="int" name="MDALGO">     0</i>
   <i type="int" name="ISIF">     2</i>
   <i name="PSTRESS">      0.00000000</i>
   <i name="EDIFFG">      0.00050000</i>
   <i type="int" name="NFREE">     1</i>
   <i name="POTIM">      0.50000000</i>
   <i name="SMASS">     -3.00000000</i>
   <i name="SCALEE">      1.00000000</i>
  </separator>
  <separator name="ionic md" >
   <i name="TEBEG">      0.00010000</i>
   <i name="TEEND">      0.00010000</i>
   <i type="int" name="NBLOCK">     1</i>
   <i type="int" name="KBLOCK">    99</i>
   <i type="int" name="NPACO">   256</i>
   <i name="APACO">     16.00000000</i>
  </separator>
  <separator name="symmetry" >
   <i type="int" name="ISYM">     2</i>
   <i name="SYMPREC">      0.00001000</i>
  </separator>
  <separator name="dos" >
   <i type="int" name="LORBIT">    11</i>
   <v name="RWIGS">     -1.00000000</v>
   <i type="int" name="NEDOS">   301</i>
   <i name="EMIN">     10.00000000</i>
   <i name="EMAX">    -10.00000000</i>
   <i name="EFERMI">      0.00000000</i>
  </separator>
  <separator name="writing" >
   <i type="int" name="NWRITE">     2</i>
   <i type="logical" name="LWAVE"> F  </i>
   <i type="logical" name="LDOWNSAMPLE"> F  </i>
   <i type="logical" name="LCHARG"> T  </i>
   <i type="logical" name="LPARD"> F  </i>
   <i type="logical" name="LVTOT"> F  </i>
   <i type="logical" name="LVHAR"> F  </i>
   <i type="logical" name="LELF"> F  </i>
   <i type="logical" name="LOPTICS"> F  </i>
   <v name="STM">      0.00000000      0.00000000      0.00000000      0.00000000      0.00000000      0.00000000      0.00000000</v>
  </separator>
  <separator name="performance" >
   <i type="int" name="NPAR">    36</i>
   <i type="int" name="NSIM">     4</i>
   <i type="int" name="NBLK">    -1</i>
   <i type="logical" name="LPLANE"> T  </i>
   <i type="logical" name="LSCALAPACK"> T  </i>
   <i type="logical" name="LSCAAWARE"> F  </i>
   <i type="logical" name="LSCALU"> F  </i>
   <i type="logical" name="LASYNC"> F  </i>
   <i type="logical" name="LORBITALREAL"> F  </i>
  </separator>
  <separator name="miscellaneous" >
   <i type="int" name="IDIOT">     3</i>
   <i type="int" name="ISPECIAL">     0</i>
   <i type="logical" name="LMUSIC"> F  </i>
   <v name="POMASS">    132.90000000</v>
   <v name="DARWINR">      0.00000000</v>
   <v name="DARWINV">      1.00000000</v>
   <i type="logical" name="LCORR"> T  </i>
  </separator>
  <i type="logical" name="GGA_COMPAT"> T  </i>
  <i type="logical" name="LBERRY"> F  </i>
  <i type="int" name="ICORELEVEL">     0</i>
  <i type="logical" name="LDAU"> F  </i>
  <i type="int" name="I_CONSTRAINED_M">     0</i>
  <separator name="electronic exchange-correlation" >
   <i type="string" name="GGA">--</i>
   <i type="int" name="VOSKOWN">     0</i>
   <i type="logical" name="LHFCALC"> F  </i>
   <i type="string" name="PRECFOCK"></i>
   <i type="logical" name="LSYMGRAD"> F  </i>
   <i type="logical" name="LHFONE"> F  </i>
   <i type="logical" name="LRHFCALC"> F  </i>
   <i type="logical" name="LTHOMAS"> F  </i>
   <i type="logical" name="LMODELHF"> F  </i>
   <i name="ENCUT4O">     -1.00000000</i>
   <i type="int" name="EXXOEP">     0</i>
   <i type="int" name="FOURORBIT">     0</i>
   <i name="AEXX">      0.00000000</i>
   <i name="HFALPHA">      0.00000000</i>
   <i name="MCALPHA">      0.00000000</i>
   <i name="ALDAX">      1.00000000</i>
   <i name="AGGAX">      1.00000000</i>
   <i name="ALDAC">      1.00000000</i>
   <i name="AGGAC">      1.00000000</i>
   <i type="int" name="NKREDX">     1</i>
   <i type="int" name="NKREDY">     1</i>
   <i type="int" name="NKREDZ">     1</i>
   <i type="logical" name="SHIFTRED"> F  </i>
   <i type="logical" name="ODDONLY"> F  </i>
   <i type="logical" name="EVENONLY"> F  </i>
   <i type="int" name="LMAXFOCK">     0</i>
   <i type="int" name="NMAXFOCKAE">     0</i>
   <i type="logical" name="LFOCKAEDFT"> F  </i>
   <i name="HFSCREEN">      0.00000000</i>
   <i name="HFSCREENC">      0.00000000</i>
   <i type="int" name="NBANDSGWLOW">     0</i>
  </separator>
  <separator name="vdW DFT" >
   <i type="logical" name="LUSE_VDW"> F  </i>
   <i name="Zab_VDW">     -0.84910000</i>
   <i name="PARAM1">      0.12340000</i>
   <i name="PARAM2">      1.00000000</i>
   <i name="PARAM3">      0.00000000</i>
  </separator>
  <separator name="model GW" >
   <i type="int" name="MODEL_GW">     0</i>
   <i name="MODEL_EPS0">    600.00000000</i>
   <i name="MODEL_ALPHA">      1.00000000</i>
  </separator>
  <separator name="linear response parameters" >
   <i type="logical" name="LEPSILON"> F  </i>
   <i type="logical" name="LRPA"> F  </i>
   <i type="logical" name="LNABLA"> F  </i>
   <i type="logical" name="LVEL"> F  </i>
   <i type="int" name="KINTER">     0</i>
   <i name="CSHIFT">      0.10000000</i>
   <i name="OMEGAMAX">     -1.00000000</i>
   <i name="DEG_THRESHOLD">      0.00200000</i>
   <i name="RTIME">     -0.10000000</i>
   <i name="WPLASMAI">      0.00000000</i>
   <v name="DFIELD">      0.00000000      0.00000000      0.00000000</v>
   <v name="WPLASMA">      0.00000000      0.00000000      0.00000000      0.00000000      0.00000000      0.00000000      0.00000000      0.00000000      0.00000000</v>
  </separator>
  <separator name="orbital magnetization" >
   <i type="logical" name="NUCIND"> F  </i>
   <v name="MAGPOS">      0.00000000      0.00000000      0.00000000</v>
   <i type="logical" name="LNICSALL"> T  </i>
   <i type="logical" name="ORBITALMAG"> F  </i>
   <i type="logical" name="LMAGBLOCH"> F  </i>
   <i type="logical" name="LCHIMAG"> F  </i>
   <i type="logical" name="LGAUGE"> T  </i>
   <i type="int" name="MAGATOM">     0</i>
   <v name="MAGDIPOL">      0.00000000      0.00000000      0.00000000</v>
   <v name="AVECCONST">      0.00000000      0.00000000      0.00000000</v>
  </separator>
  <separator name="response functions" >
   <i type="logical" name="LADDER"> F  </i>
   <i type="logical" name="LRPAFORCE"> F  </i>
   <i type="logical" name="LFXC"> F  </i>
   <i type="logical" name="LHARTREE"> T  </i>
   <i type="int" name="IBSE">     0</i>
   <v type="int" name="KPOINT">    -1     0     0     0</v>
   <i type="logical" name="LTCTE"> F  </i>
   <i type="logical" name="LTETE"> F  </i>
   <i type="logical" name="LTRIPLET"> F  </i>
   <i type="logical" name="LFXCEPS"> F  </i>
   <i type="logical" name="LFXHEG"> F  </i>
   <i type="int" name="NATURALO">     2</i>
   <i type="logical" name="L2ORDER"> F  </i>
   <i type="logical" name="LMP2LT"> F  </i>
   <i type="logical" name="LUSEW"> F  </i>
   <i name="ENCUTGW">     -2.00000000</i>
   <i name="ENCUTGWSOFT">     -2.00000000</i>
   <i name="ENCUTLF">     -1.00000000</i>
   <i type="int" name="LMAXMP2">    -1</i>
   <i name="SCISSOR">      0.00000000</i>
   <i type="int" name="NOMEGA">     0</i>
   <i type="int" name="NOMEGAR">     0</i>
   <i type="int" name="NBANDSGW">    -1</i>
   <i type="int" name="NBANDSO">    -1</i>
   <i type="int" name="NBANDSV">    -1</i>
   <i type="int" name="NELM">   300</i>
   <i type="int" name="NELMHF">     1</i>
   <i type="int" name="DIM">     3</i>
   <i type="int" name="ANTIRES">     0</i>
   <i name="OMEGAMAX">    -30.00000000</i>
   <i name="OMEGAMIN">    -30.00000000</i>
   <i name="OMEGATL">   -200.00000000</i>
   <i type="int" name="OMEGAGRID">   140</i>
   <i name="CSHIFT">     -0.10000000</i>
   <i type="logical" name="SELFENERGY"> F  </i>
   <i type="logical" name="LSPECTRAL"> F  </i>
   <i type="logical" name="LSPECTRALGW"> F  </i>
   <i type="logical" name="LSINGLES"> F  </i>
   <i type="logical" name="LFERMIGW"> F  </i>
   <i type="logical" name="ODDONLYGW"> F  </i>
   <i type="logical" name="EVENONLYGW"> F  </i>
   <i type="int" name="NKREDLFX">     1</i>
   <i type="int" name="NKREDLFY">     1</i>
   <i type="int" name="NKREDLFZ">     1</i>
   <i type="int" name="MAXMEM">  2800</i>
   <i type="int" name="TELESCOPE">     0</i>
   <i type="int" name="TAUPAR">     1</i>
   <i type="int" name="OMEGAPAR">    -1</i>
   <i name="LAMBDA">      1.00000000</i>
  </separator>
  <separator name="External order field" >
   <i name="OFIELD_KAPPA">      0.00000000</i>
   <v name="OFIELD_K">      0.00000000      0.00000000      0.00000000</v>
   <i name="OFIELD_Q6_NEAR">      0.00000000</i>
   <i name="OFIELD_Q6_FAR">      0.00000000</i>
   <i name="OFIELD_A">      0.00000000</i>
  </separator>
 </parameters>
 <atominfo>
  <atoms>       1 </atoms>
  <types>       1 </types>
  <array name="atoms" >
   <dimension dim="1">ion</dimension>
   <field type="string">element</field>
   <field type="int">atomtype</field>
   <set>
    <rc><c>Cs</c><c>   1</c></rc>
   </set>
  </array>
  <array name="atomtypes" >
   <dimension dim="1">type</dimension>
   <field type="int">atomspertype</field>
   <field type="string">element</field>
   <field>mass</field>
   <field>valence</field>
   <field type="string">pseudopotential</field>
   <set>
    <rc><c>   1</c><c>Cs</c><c>    132.90000000</c><c>      9.00000000</c><c>  PAW_PBE Cs_sv 08Apr2002               </c></rc>
   </set>
  </array>
 </atominfo>
 <structure name="initialpos" >
  <crystal>
   <varray name="basis" >
    <v>      10.00000000       0.00000000       0.00000000 </v>
    <v>       0.00000000      10.00000000       0.00000000 </v>
    <v>       0.00000000       0.00000000      10.00000000 </v>
   </varray>
   <i name="volume">   1000.00000000 </i>
   <varray name="rec_basis" >
    <v>       0.10000000       0.00000000       0.00000000 </v>
    <v>       0.00000000       0.10000000       0.00000000 </v>
    <v>       0.00000000       0.00000000       0.10000000 </v>
   </varray>
  </crystal>
  <varray name="positions" >
   <v>       0.50000000       0.50000000       0.50000000 </v>
  </varray>
 </structure>
 <calculation>
  <scstep>
   <time name="total">    0.86    0.87</time>
   <energy>
    <i name="alphaZ">      1.79763480 </i>
    <i name="ewald">   -165.46874404 </i>
    <i name="hartreedc">   -275.79585307 </i>
    <i name="XCdc">      9.62258293 </i>
    <i name="pawpsdc">    424.65672490 </i>
    <i name="pawaedc">   -417.69108266 </i>
    <i name="eentropy">     -0.00000000 </i>
    <i name="bandstr">    -25.40920198 </i>
    <i name="atom">    555.68192948 </i>
    <i name="e_fr_energy">    107.39399037 </i>
    <i name="e_wo_entrp">    107.39399037 </i>
    <i name="e_0_energy">    107.39399037 </i>
   </energy>
  </scstep>
  <scstep>
   <time name="total">    0.40    0.40</time>
   <energy>
    <i name="e_fr_energy">     79.28090907 </i>
    <i name="e_wo_entrp">     79.30222165 </i>
    <i name="e_0_energy">     79.29156536 </i>
   </energy>
  </scstep>
  <scstep>
   <time name="total">    0.40    0.40</time>
   <energy>
    <i name="e_fr_energy">     48.44343110 </i>
    <i name="e_wo_entrp">     48.44820269 </i>
    <i name="e_0_energy">     48.44581689 </i>
   </energy>
  </scstep>
  <scstep>
   <time name="total">    0.40    0.40</time>
   <energy>
    <i name="e_fr_energy">     14.16200393 </i>
    <i name="e_wo_entrp">     14.17438640 </i>
    <i name="e_0_energy">     14.16819516 </i>
   </energy>
  </scstep>
  <scstep>
   <time name="total">    0.62    0.62</time>
   <energy>
    <i name="e_fr_energy">      2.97557676 </i>
    <i name="e_wo_entrp">      2.99166731 </i>
    <i name="e_0_energy">      2.98362203 </i>
   </energy>
  </scstep>
  <scstep>
   <time name="total">    0.93    0.94</time>
   <energy>
    <i name="e_fr_energy">      3.52617012 </i>
    <i name="e_wo_entrp">      3.53579579 </i>
    <i name="e_0_energy">      3.53098296 </i>
   </energy>
  </scstep>
  <scstep>
   <time name="total">    0.88    0.88</time>
   <energy>
    <i name="e_fr_energy">      0.50322995 </i>
    <i name="e_wo_entrp">      0.50668535 </i>
    <i name="e_0_energy">      0.50495765 </i>
   </energy>
  </scstep>
  <scstep>
   <time name="total">    0.91    0.91</time>
   <energy>
    <i name="e_fr_energy">      0.11907583 </i>
    <i name="e_wo_entrp">      0.11946563 </i>
    <i name="e_0_energy">      0.11927073 </i>
   </energy>
  </scstep>
  <scstep>
   <time name="total">    0.92    0.92</time>
   <energy>
    <i name="e_fr_energy">     -0.21368179 </i>
    <i name="e_wo_entrp">     -0.21367846 </i>
    <i name="e_0_energy">     -0.21368012 </i>
   </energy>
  </scstep>
  <scstep>
   <time name="total">    0.89    0.89</time>
   <energy>
    <i name="e_fr_energy">     -0.19805140 </i>
    <i name="e_wo_entrp">     -0.19805139 </i>
    <i name="e_0_energy">     -0.19805139 </i>
   </energy>
  </scstep>
  <scstep>
   <time name="total">    0.92    0.92</time>
   <energy>
    <i name="e_fr_energy">     -0.25188215 </i>
    <i name="e_wo_entrp">     -0.25188215 </i>
    <i name="e_0_energy">     -0.25188215 </i>
   </energy>
  </scstep>
  <scstep>
   <time name="total">    0.89    0.89</time>
   <energy>
    <i name="e_fr_energy">     -0.26288718 </i>
    <i name="e_wo_entrp">     -0.26288718 </i>
    <i name="e_0_energy">     -0.26288718 </i>
   </energy>
  </scstep>
  <scstep>
   <time name="total">    0.86    0.86</time>
   <energy>
    <i name="e_fr_energy">     -0.26819025 </i>
    <i name="e_wo_entrp">     -0.26819025 </i>
    <i name="e_0_energy">     -0.26819025 </i>
   </energy>
  </scstep>
  <scstep>
   <time name="total">    0.85    0.85</time>
   <energy>
    <i name="e_fr_energy">     -0.27088588 </i>
    <i name="e_wo_entrp">     -0.27088588 </i>
    <i name="e_0_energy">     -0.27088588 </i>
   </energy>
  </scstep>
  <scstep>
   <time name="total">    0.85    0.85</time>
   <energy>
    <i name="e_fr_energy">     -0.27108569 </i>
    <i name="e_wo_entrp">     -0.27108569 </i>
    <i name="e_0_energy">     -0.27108569 </i>
   </energy>
  </scstep>
  <scstep>
   <time name="total">    0.92    0.92</time>
   <energy>
    <i name="e_fr_energy">     -0.27149709 </i>
    <i name="e_wo_entrp">     -0.27149709 </i>
    <i name="e_0_energy">     -0.27149709 </i>
   </energy>
  </scstep>
  <scstep>
   <time name="total">    0.88    0.88</time>
   <energy>
    <i name="e_fr_energy">     -0.27164251 </i>
    <i name="e_wo_entrp">     -0.27164251 </i>
    <i name="e_0_energy">     -0.27164251 </i>
   </energy>
  </scstep>
  <scstep>
   <time name="total">    0.92    0.92</time>
   <energy>
    <i name="alphaZ">      1.79763480 </i>
    <i name="ewald">   -165.46874404 </i>
    <i name="hartreedc">   -274.30906511 </i>
    <i name="XCdc">      9.59184950 </i>
    <i name="pawpsdc">    418.38354648 </i>
    <i name="pawaedc">   -411.41100322 </i>
    <i name="eentropy">     -0.00000000 </i>
    <i name="bandstr">   -134.53782239 </i>
    <i name="atom">    555.68192948 </i>
    <i name="e_fr_energy">     -0.27167449 </i>
    <i name="e_wo_entrp">     -0.27167449 </i>
    <i name="e_0_energy">     -0.27167449 </i>
   </energy>
  </scstep>
  <structure>
   <crystal>
    <varray name="basis" >
     <v>      10.00000000       0.00000000       0.00000000 </v>
     <v>       0.00000000      10.00000000       0.00000000 </v>
     <v>       0.00000000       0.00000000      10.00000000 </v>
    </varray>
    <i name="volume">   1000.00000000 </i>
    <varray name="rec_basis" >
     <v>       0.10000000       0.00000000       0.00000000 </v>
     <v>       0.00000000       0.10000000       0.00000000 </v>
     <v>       0.00000000       0.00000000       0.10000000 </v>
    </varray>
   </crystal>
   <varray name="positions" >
    <v>       0.50000000       0.50000000       0.50000000 </v>
   </varray>
  </structure>
  <varray name="forces" >
   <v>       0.00000000       0.00000000       0.00000000 </v>
  </varray>
  <varray name="stress" >
   <v>      -0.48059188       0.00000000       0.00000000 </v>
   <v>       0.00000000      -0.48059188      -0.00000000 </v>
   <v>       0.00000000       0.00000000      -0.48059188 </v>
  </varray>
  <energy>
   <i name="e_fr_energy">     -0.27167449 </i>
   <i name="e_wo_entrp">     -0.27167449 </i>
   <i name="e_0_energy">     -0.00000000 </i>
  </energy>
  <time name="totalsc">   26.99   27.19</time>
  <eigenvalues>
   <array>
    <dimension dim="1">band</dimension>
    <dimension dim="2">kpoint</dimension>
    <dimension dim="3">spin</dimension>
    <field>eigene</field>
    <field>occ</field>
    <set>
     <set comment="spin 1">
      <set comment="kpoint 1">
       <r>  -26.4943    1.0000 </r>
       <r>  -13.2944    1.0000 </r>
       <r>  -13.2944    1.0000 </r>
       <r>  -13.2944    1.0000 </r>
       <r>   -2.0534    1.0000 </r>
       <r>   -0.3922    0.0000 </r>
       <r>   -0.3891    0.0000 </r>
       <r>   -0.1982    0.0000 </r>
       <r>   -0.1941    0.0000 </r>
       <r>   -0.1508    0.0000 </r>
       <r>   -0.0641    0.0000 </r>
       <r>   -0.0401    0.0000 </r>
       <r>   -0.0339    0.0000 </r>
       <r>    0.2217    0.0000 </r>
       <r>    1.3343    0.0000 </r>
       <r>    1.3392    0.0000 </r>
       <r>    1.7546    0.0000 </r>
       <r>    1.7894    0.0000 </r>
       <r>    1.7917    0.0000 </r>
       <r>    1.8681    0.0000 </r>
       <r>    1.9325    0.0000 </r>
       <r>    1.9484    0.0000 </r>
       <r>    2.0636    0.0000 </r>
       <r>    2.2299    0.0000 </r>
       <r>    2.3441    0.0000 </r>
       <r>    2.4698    0.0000 </r>
       <r>    2.5108    0.0000 </r>
       <r>    2.5334    0.0000 </r>
       <r>    2.9989    0.0000 </r>
       <r>    3.5717    0.0000 </r>
       <r>    3.7007    0.0000 </r>
       <r>    3.7586    0.0000 </r>
       <r>    3.8245    0.0000 </r>
       <r>    3.8434    0.0000 </r>
       <r>    4.4382    0.0000 </r>
       <r>    4.4808    0.0000 </r>
      </set>
     </set>
     <set comment="spin 2">
      <set comment="kpoint 1">
       <r>  -26.4560    1.0000 </r>
       <r>  -13.2170    1.0000 </r>
       <r>  -13.2170    1.0000 </r>
       <r>  -13.2170    1.0000 </r>
       <r>   -1.2672    0.0000 </r>
       <r>    0.3805    0.0000 </r>
       <r>    0.3903    0.0000 </r>
       <r>    0.4889    0.0000 </r>
       <r>    0.4928    0.0000 </r>
       <r>    0.4964    0.0000 </r>
       <r>    0.7860    0.0000 </r>
       <r>    0.7884    0.0000 </r>
       <r>    0.8225    0.0000 </r>
       <r>    1.2632    0.0000 </r>
       <r>    2.4654    0.0000 </r>
       <r>    2.4678    0.0000 </r>
       <r>    2.8715    0.0000 </r>
       <r>    2.8724    0.0000 </r>
       <r>    2.9494    0.0000 </r>
       <r>    2.9879    0.0000 </r>
       <r>    3.2562    0.0000 </r>
       <r>    3.2632    0.0000 </r>
       <r>    3.4086    0.0000 </r>
       <r>    3.6367    0.0000 </r>
       <r>    3.6414    0.0000 </r>
       <r>    3.6611    0.0000 </r>
       <r>    3.6675    0.0000 </r>
       <r>    3.7171    0.0000 </r>
       <r>    4.1239    0.0000 </r>
       <r>    4.6850    0.0000 </r>
       <r>    4.7571    0.0000 </r>
       <r>    4.9150    0.0000 </r>
       <r>    4.9670    0.0000 </r>
       <r>    4.9916    0.0000 </r>
       <r>    6.0375    0.0000 </r>
       <r>    6.3208    0.0000 </r>
      </set>
     </set>
    </set>
   </array>
  </eigenvalues>
  <separator name="orbital magnetization" >
   <v name="MAGDIPOLOUT">      0.00000000      0.00000000      0.00000000</v>
  </separator>
  <dos>
   <i name="efermi">     -1.76946789 </i>
   <total>
    <array>
     <dimension dim="1">gridpoints</dimension>
     <dimension dim="2">spin</dimension>
     <field>energy</field>
     <field>total</field>
     <field>integrated</field>
     <set>
      <set comment="spin 1">
       <r>   -28.1350     0.0000     0.0000 </r>
       <r>   -28.0147     0.0000     0.0000 </r>
       <r>   -27.8944     0.0000     0.0000 </r>
       <r>   -27.7741     0.0000     0.0000 </r>
       <r>   -27.6538     0.0000     0.0000 </r>
       <r>   -27.5334     0.0000     0.0000 </r>
       <r>   -27.4131     0.0000     0.0000 </r>
       <r>   -27.2928     0.0000     0.0000 </r>
       <r>   -27.1725     0.0000     0.0000 </r>
       <r>   -27.0521     0.0000     0.0000 </r>
       <r>   -26.9318     0.0000     0.0000 </r>
       <r>   -26.8115     0.0000     0.0000 </r>
       <r>   -26.6912     0.0000     0.0000 </r>
       <r>   -26.5709     0.1261     0.0152 </r>
       <r>   -26.4505     7.2878     0.8921 </r>
       <r>   -26.3302     0.8971     1.0000 </r>
       <r>   -26.2099     0.0000     1.0000 </r>
       <r>   -26.0896     0.0000     1.0000 </r>
       <r>   -25.9692     0.0000     1.0000 </r>
       <r>   -25.8489     0.0000     1.0000 </r>
       <r>   -25.7286     0.0000     1.0000 </r>
       <r>   -25.6083     0.0000     1.0000 </r>
       <r>   -25.4880     0.0000     1.0000 </r>
       <r>   -25.3676     0.0000     1.0000 </r>
       <r>   -25.2473     0.0000     1.0000 </r>
       <r>   -25.1270     0.0000     1.0000 </r>
       <r>   -25.0067     0.0000     1.0000 </r>
       <r>   -24.8863     0.0000     1.0000 </r>
       <r>   -24.7660     0.0000     1.0000 </r>
       <r>   -24.6457     0.0000     1.0000 </r>
       <r>   -24.5254     0.0000     1.0000 </r>
       <r>   -24.4051     0.0000     1.0000 </r>
       <r>   -24.2847     0.0000     1.0000 </r>
       <r>   -24.1644     0.0000     1.0000 </r>
       <r>   -24.0441     0.0000     1.0000 </r>
       <r>   -23.9238     0.0000     1.0000 </r>
       <r>   -23.8035     0.0000     1.0000 </r>
       <r>   -23.6831     0.0000     1.0000 </r>
       <r>   -23.5628     0.0000     1.0000 </r>
       <r>   -23.4425     0.0000     1.0000 </r>
       <r>   -23.3222     0.0000     1.0000 </r>
       <r>   -23.2018     0.0000     1.0000 </r>
       <r>   -23.0815     0.0000     1.0000 </r>
       <r>   -22.9612     0.0000     1.0000 </r>
       <r>   -22.8409     0.0000     1.0000 </r>
       <r>   -22.7206     0.0000     1.0000 </r>
       <r>   -22.6002     0.0000     1.0000 </r>
       <r>   -22.4799     0.0000     1.0000 </r>
       <r>   -22.3596     0.0000     1.0000 </r>
       <r>   -22.2393     0.0000     1.0000 </r>
       <r>   -22.1189     0.0000     1.0000 </r>
       <r>   -21.9986     0.0000     1.0000 </r>
       <r>   -21.8783     0.0000     1.0000 </r>
       <r>   -21.7580     0.0000     1.0000 </r>
       <r>   -21.6377     0.0000     1.0000 </r>
       <r>   -21.5173     0.0000     1.0000 </r>
       <r>   -21.3970     0.0000     1.0000 </r>
       <r>   -21.2767     0.0000     1.0000 </r>
       <r>   -21.1564     0.0000     1.0000 </r>
       <r>   -21.0360     0.0000     1.0000 </r>
       <r>   -20.9157     0.0000     1.0000 </r>
       <r>   -20.7954     0.0000     1.0000 </r>
       <r>   -20.6751     0.0000     1.0000 </r>
       <r>   -20.5548     0.0000     1.0000 </r>
       <r>   -20.4344     0.0000     1.0000 </r>
       <r>   -20.3141     0.0000     1.0000 </r>
       <r>   -20.1938     0.0000     1.0000 </r>
       <r>   -20.0735     0.0000     1.0000 </r>
       <r>   -19.9531     0.0000     1.0000 </r>
       <r>   -19.8328     0.0000     1.0000 </r>
       <r>   -19.7125     0.0000     1.0000 </r>
       <r>   -19.5922     0.0000     1.0000 </r>
       <r>   -19.4719     0.0000     1.0000 </r>
       <r>   -19.3515     0.0000     1.0000 </r>
       <r>   -19.2312     0.0000     1.0000 </r>
       <r>   -19.1109     0.0000     1.0000 </r>
       <r>   -18.9906     0.0000     1.0000 </r>
       <r>   -18.8702     0.0000     1.0000 </r>
       <r>   -18.7499     0.0000     1.0000 </r>
       <r>   -18.6296     0.0000     1.0000 </r>
       <r>   -18.5093     0.0000     1.0000 </r>
       <r>   -18.3890     0.0000     1.0000 </r>
       <r>   -18.2686     0.0000     1.0000 </r>
       <r>   -18.1483     0.0000     1.0000 </r>
       <r>   -18.0280     0.0000     1.0000 </r>
       <r>   -17.9077     0.0000     1.0000 </r>
       <r>   -17.7873     0.0000     1.0000 </r>
       <r>   -17.6670     0.0000     1.0000 </r>
       <r>   -17.5467     0.0000     1.0000 </r>
       <r>   -17.4264     0.0000     1.0000 </r>
       <r>   -17.3061     0.0000     1.0000 </r>
       <r>   -17.1857     0.0000     1.0000 </r>
       <r>   -17.0654     0.0000     1.0000 </r>
       <r>   -16.9451     0.0000     1.0000 </r>
       <r>   -16.8248     0.0000     1.0000 </r>
       <r>   -16.7044     0.0000     1.0000 </r>
       <r>   -16.5841     0.0000     1.0000 </r>
       <r>   -16.4638     0.0000     1.0000 </r>
       <r>   -16.3435     0.0000     1.0000 </r>
       <r>   -16.2232     0.0000     1.0000 </r>
       <r>   -16.1028     0.0000     1.0000 </r>
       <r>   -15.9825     0.0000     1.0000 </r>
       <r>   -15.8622     0.0000     1.0000 </r>
       <r>   -15.7419     0.0000     1.0000 </r>
       <r>   -15.6215     0.0000     1.0000 </r>
       <r>   -15.5012     0.0000     1.0000 </r>
       <r>   -15.3809     0.0000     1.0000 </r>
       <r>   -15.2606     0.0000     1.0000 </r>
       <r>   -15.1403     0.0000     1.0000 </r>
       <r>   -15.0199     0.0000     1.0000 </r>
       <r>   -14.8996     0.0000     1.0000 </r>
       <r>   -14.7793     0.0000     1.0000 </r>
       <r>   -14.6590     0.0000     1.0000 </r>
       <r>   -14.5386     0.0000     1.0000 </r>
       <r>   -14.4183     0.0000     1.0000 </r>
       <r>   -14.2980     0.0000     1.0000 </r>
       <r>   -14.1777     0.0000     1.0000 </r>
       <r>   -14.0574     0.0000     1.0000 </r>
       <r>   -13.9370     0.0000     1.0000 </r>
       <r>   -13.8167     0.0000     1.0000 </r>
       <r>   -13.6964     0.0000     1.0000 </r>
       <r>   -13.5761     0.0000     1.0000 </r>
       <r>   -13.4558     0.0001     1.0000 </r>
       <r>   -13.3354     3.0617     1.3684 </r>
       <r>   -13.2151    21.5602     3.9626 </r>
       <r>   -13.0948     0.3111     4.0000 </r>
       <r>   -12.9745     0.0000     4.0000 </r>
       <r>   -12.8541     0.0000     4.0000 </r>
       <r>   -12.7338     0.0000     4.0000 </r>
       <r>   -12.6135     0.0000     4.0000 </r>
       <r>   -12.4932     0.0000     4.0000 </r>
       <r>   -12.3729     0.0000     4.0000 </r>
       <r>   -12.2525     0.0000     4.0000 </r>
       <r>   -12.1322     0.0000     4.0000 </r>
       <r>   -12.0119     0.0000     4.0000 </r>
       <r>   -11.8916     0.0000     4.0000 </r>
       <r>   -11.7712     0.0000     4.0000 </r>
       <r>   -11.6509     0.0000     4.0000 </r>
       <r>   -11.5306     0.0000     4.0000 </r>
       <r>   -11.4103     0.0000     4.0000 </r>
       <r>   -11.2900     0.0000     4.0000 </r>
       <r>   -11.1696     0.0000     4.0000 </r>
       <r>   -11.0493     0.0000     4.0000 </r>
       <r>   -10.9290     0.0000     4.0000 </r>
       <r>   -10.8087     0.0000     4.0000 </r>
       <r>   -10.6883     0.0000     4.0000 </r>
       <r>   -10.5680     0.0000     4.0000 </r>
       <r>   -10.4477     0.0000     4.0000 </r>
       <r>   -10.3274     0.0000     4.0000 </r>
       <r>   -10.2071     0.0000     4.0000 </r>
       <r>   -10.0867     0.0000     4.0000 </r>
       <r>    -9.9664     0.0000     4.0000 </r>
       <r>    -9.8461     0.0000     4.0000 </r>
       <r>    -9.7258     0.0000     4.0000 </r>
       <r>    -9.6054     0.0000     4.0000 </r>
       <r>    -9.4851     0.0000     4.0000 </r>
       <r>    -9.3648     0.0000     4.0000 </r>
       <r>    -9.2445     0.0000     4.0000 </r>
       <r>    -9.1242     0.0000     4.0000 </r>
       <r>    -9.0038     0.0000     4.0000 </r>
       <r>    -8.8835     0.0000     4.0000 </r>
       <r>    -8.7632     0.0000     4.0000 </r>
       <r>    -8.6429     0.0000     4.0000 </r>
       <r>    -8.5225     0.0000     4.0000 </r>
       <r>    -8.4022     0.0000     4.0000 </r>
       <r>    -8.2819     0.0000     4.0000 </r>
       <r>    -8.1616     0.0000     4.0000 </r>
       <r>    -8.0413     0.0000     4.0000 </r>
       <r>    -7.9209     0.0000     4.0000 </r>
       <r>    -7.8006     0.0000     4.0000 </r>
       <r>    -7.6803     0.0000     4.0000 </r>
       <r>    -7.5600     0.0000     4.0000 </r>
       <r>    -7.4396     0.0000     4.0000 </r>
       <r>    -7.3193     0.0000     4.0000 </r>
       <r>    -7.1990     0.0000     4.0000 </r>
       <r>    -7.0787     0.0000     4.0000 </r>
       <r>    -6.9584     0.0000     4.0000 </r>
       <r>    -6.8380     0.0000     4.0000 </r>
       <r>    -6.7177     0.0000     4.0000 </r>
       <r>    -6.5974     0.0000     4.0000 </r>
       <r>    -6.4771     0.0000     4.0000 </r>
       <r>    -6.3567     0.0000     4.0000 </r>
       <r>    -6.2364     0.0000     4.0000 </r>
       <r>    -6.1161     0.0000     4.0000 </r>
       <r>    -5.9958     0.0000     4.0000 </r>
       <r>    -5.8755     0.0000     4.0000 </r>
       <r>    -5.7551     0.0000     4.0000 </r>
       <r>    -5.6348     0.0000     4.0000 </r>
       <r>    -5.5145     0.0000     4.0000 </r>
       <r>    -5.3942     0.0000     4.0000 </r>
       <r>    -5.2738     0.0000     4.0000 </r>
       <r>    -5.1535     0.0000     4.0000 </r>
       <r>    -5.0332     0.0000     4.0000 </r>
       <r>    -4.9129     0.0000     4.0000 </r>
       <r>    -4.7926     0.0000     4.0000 </r>
       <r>    -4.6722     0.0000     4.0000 </r>
       <r>    -4.5519     0.0000     4.0000 </r>
       <r>    -4.4316     0.0000     4.0000 </r>
       <r>    -4.3113     0.0000     4.0000 </r>
       <r>    -4.1909     0.0000     4.0000 </r>
       <r>    -4.0706     0.0000     4.0000 </r>
       <r>    -3.9503     0.0000     4.0000 </r>
       <r>    -3.8300     0.0000     4.0000 </r>
       <r>    -3.7097     0.0000     4.0000 </r>
       <r>    -3.5893     0.0000     4.0000 </r>
       <r>    -3.4690     0.0000     4.0000 </r>
       <r>    -3.3487     0.0000     4.0000 </r>
       <r>    -3.2284     0.0000     4.0000 </r>
       <r>    -3.1081     0.0000     4.0000 </r>
       <r>    -2.9877     0.0000     4.0000 </r>
       <r>    -2.8674     0.0000     4.0000 </r>
       <r>    -2.7471     0.0000     4.0000 </r>
       <r>    -2.6268     0.0000     4.0000 </r>
       <r>    -2.5064     0.0000     4.0000 </r>
       <r>    -2.3861     0.0000     4.0000 </r>
       <r>    -2.2658     0.0000     4.0000 </r>
       <r>    -2.1455     0.0382     4.0046 </r>
       <r>    -2.0252     6.5084     4.7877 </r>
       <r>    -1.9048     1.7643     5.0000 </r>
       <r>    -1.7845     0.0001     5.0000 </r>
       <r>    -1.6642     0.0000     5.0000 </r>
       <r>    -1.5439     0.0000     5.0000 </r>
       <r>    -1.4235     0.0000     5.0000 </r>
       <r>    -1.3032     0.0000     5.0000 </r>
       <r>    -1.1829     0.0000     5.0000 </r>
       <r>    -1.0626     0.0000     5.0000 </r>
       <r>    -0.9423     0.0000     5.0000 </r>
       <r>    -0.8219     0.0000     5.0000 </r>
       <r>    -0.7016     0.0000     5.0000 </r>
       <r>    -0.5813     0.0000     5.0000 </r>
       <r>    -0.4610     0.3908     5.0470 </r>
       <r>    -0.3406    14.9235     6.8427 </r>
       <r>    -0.2203     5.6278     7.5198 </r>
       <r>    -0.1000    21.8532    10.1492 </r>
       <r>     0.0203    22.7408    12.8854 </r>
       <r>     0.1406     1.0428    13.0109 </r>
       <r>     0.2610     7.1110    13.8665 </r>
       <r>     0.3813     1.1092    14.0000 </r>
       <r>     0.5016     0.0000    14.0000 </r>
       <r>     0.6219     0.0000    14.0000 </r>
       <r>     0.7423     0.0000    14.0000 </r>
       <r>     0.8626     0.0000    14.0000 </r>
       <r>     0.9829     0.0000    14.0000 </r>
       <r>     1.1032     0.0000    14.0000 </r>
       <r>     1.2235     0.0117    14.0014 </r>
       <r>     1.3439     9.6278    15.1598 </r>
       <r>     1.4642     6.9799    15.9997 </r>
       <r>     1.5845     0.0027    16.0000 </r>
       <r>     1.7048     0.7886    16.0949 </r>
       <r>     1.8252    22.1696    18.7624 </r>
       <r>     1.9455    19.3970    21.0963 </r>
       <r>     2.0658    11.8681    22.5243 </r>
       <r>     2.1861     4.8468    23.1074 </r>
       <r>     2.3064     8.4852    24.1284 </r>
       <r>     2.4268     8.1738    25.1119 </r>
       <r>     2.5471    19.7199    27.4846 </r>
       <r>     2.6674     4.2828    27.9999 </r>
       <r>     2.7877     0.0007    28.0000 </r>
       <r>     2.9081     0.0423    28.0051 </r>
       <r>     3.0284     6.5879    28.7978 </r>
       <r>     3.1487     1.6808    29.0000 </r>
       <r>     3.2690     0.0001    29.0000 </r>
       <r>     3.3893     0.0000    29.0000 </r>
       <r>     3.5097     0.3290    29.0396 </r>
       <r>     3.6300     7.7594    29.9732 </r>
       <r>     3.7503    11.4324    31.3488 </r>
       <r>     3.8706    19.3950    33.6824 </r>
       <r>     3.9910     2.6393    34.0000 </r>
       <r>     4.1113     0.0001    34.0000 </r>
       <r>     4.2316     0.0000    34.0000 </r>
       <r>     4.3519     0.0623    34.0075 </r>
       <r>     4.4722    10.2193    35.2371 </r>
       <r>     4.5926     6.3339    35.9992 </r>
       <r>     4.7129     0.0066    36.0000 </r>
       <r>     4.8332     0.0000    36.0000 </r>
       <r>     4.9535     0.0000    36.0000 </r>
       <r>     5.0739     0.0000    36.0000 </r>
       <r>     5.1942     0.0000    36.0000 </r>
       <r>     5.3145     0.0000    36.0000 </r>
       <r>     5.4348     0.0000    36.0000 </r>
       <r>     5.5551     0.0000    36.0000 </r>
       <r>     5.6755     0.0000    36.0000 </r>
       <r>     5.7958     0.0000    36.0000 </r>
       <r>     5.9161     0.0000    36.0000 </r>
       <r>     6.0364     0.0000    36.0000 </r>
       <r>     6.1567     0.0000    36.0000 </r>
       <r>     6.2771     0.0000    36.0000 </r>
       <r>     6.3974     0.0000    36.0000 </r>
       <r>     6.5177     0.0000    36.0000 </r>
       <r>     6.6380     0.0000    36.0000 </r>
       <r>     6.7584     0.0000    36.0000 </r>
       <r>     6.8787     0.0000    36.0000 </r>
       <r>     6.9990     0.0000    36.0000 </r>
       <r>     7.1193     0.0000    36.0000 </r>
       <r>     7.2396     0.0000    36.0000 </r>
       <r>     7.3600     0.0000    36.0000 </r>
       <r>     7.4803     0.0000    36.0000 </r>
       <r>     7.6006     0.0000    36.0000 </r>
       <r>     7.7209     0.0000    36.0000 </r>
       <r>     7.8413     0.0000    36.0000 </r>
       <r>     7.9616     0.0000    36.0000 </r>
      </set>
      <set comment="spin 2">
       <r>   -28.1350     0.0000     0.0000 </r>
       <r>   -28.0147     0.0000     0.0000 </r>
       <r>   -27.8944     0.0000     0.0000 </r>
       <r>   -27.7741     0.0000     0.0000 </r>
       <r>   -27.6538     0.0000     0.0000 </r>
       <r>   -27.5334     0.0000     0.0000 </r>
       <r>   -27.4131     0.0000     0.0000 </r>
       <r>   -27.2928     0.0000     0.0000 </r>
       <r>   -27.1725     0.0000     0.0000 </r>
       <r>   -27.0521     0.0000     0.0000 </r>
       <r>   -26.9318     0.0000     0.0000 </r>
       <r>   -26.8115     0.0000     0.0000 </r>
       <r>   -26.6912     0.0000     0.0000 </r>
       <r>   -26.5709     0.0048     0.0006 </r>
       <r>   -26.4505     4.6645     0.5618 </r>
       <r>   -26.3302     3.6401     0.9998 </r>
       <r>   -26.2099     0.0015     1.0000 </r>
       <r>   -26.0896     0.0000     1.0000 </r>
       <r>   -25.9692     0.0000     1.0000 </r>
       <r>   -25.8489     0.0000     1.0000 </r>
       <r>   -25.7286     0.0000     1.0000 </r>
       <r>   -25.6083     0.0000     1.0000 </r>
       <r>   -25.4880     0.0000     1.0000 </r>
       <r>   -25.3676     0.0000     1.0000 </r>
       <r>   -25.2473     0.0000     1.0000 </r>
       <r>   -25.1270     0.0000     1.0000 </r>
       <r>   -25.0067     0.0000     1.0000 </r>
       <r>   -24.8863     0.0000     1.0000 </r>
       <r>   -24.7660     0.0000     1.0000 </r>
       <r>   -24.6457     0.0000     1.0000 </r>
       <r>   -24.5254     0.0000     1.0000 </r>
       <r>   -24.4051     0.0000     1.0000 </r>
       <r>   -24.2847     0.0000     1.0000 </r>
       <r>   -24.1644     0.0000     1.0000 </r>
       <r>   -24.0441     0.0000     1.0000 </r>
       <r>   -23.9238     0.0000     1.0000 </r>
       <r>   -23.8035     0.0000     1.0000 </r>
       <r>   -23.6831     0.0000     1.0000 </r>
       <r>   -23.5628     0.0000     1.0000 </r>
       <r>   -23.4425     0.0000     1.0000 </r>
       <r>   -23.3222     0.0000     1.0000 </r>
       <r>   -23.2018     0.0000     1.0000 </r>
       <r>   -23.0815     0.0000     1.0000 </r>
       <r>   -22.9612     0.0000     1.0000 </r>
       <r>   -22.8409     0.0000     1.0000 </r>
       <r>   -22.7206     0.0000     1.0000 </r>
       <r>   -22.6002     0.0000     1.0000 </r>
       <r>   -22.4799     0.0000     1.0000 </r>
       <r>   -22.3596     0.0000     1.0000 </r>
       <r>   -22.2393     0.0000     1.0000 </r>
       <r>   -22.1189     0.0000     1.0000 </r>
       <r>   -21.9986     0.0000     1.0000 </r>
       <r>   -21.8783     0.0000     1.0000 </r>
       <r>   -21.7580     0.0000     1.0000 </r>
       <r>   -21.6377     0.0000     1.0000 </r>
       <r>   -21.5173     0.0000     1.0000 </r>
       <r>   -21.3970     0.0000     1.0000 </r>
       <r>   -21.2767     0.0000     1.0000 </r>
       <r>   -21.1564     0.0000     1.0000 </r>
       <r>   -21.0360     0.0000     1.0000 </r>
       <r>   -20.9157     0.0000     1.0000 </r>
       <r>   -20.7954     0.0000     1.0000 </r>
       <r>   -20.6751     0.0000     1.0000 </r>
       <r>   -20.5548     0.0000     1.0000 </r>
       <r>   -20.4344     0.0000     1.0000 </r>
       <r>   -20.3141     0.0000     1.0000 </r>
       <r>   -20.1938     0.0000     1.0000 </r>
       <r>   -20.0735     0.0000     1.0000 </r>
       <r>   -19.9531     0.0000     1.0000 </r>
       <r>   -19.8328     0.0000     1.0000 </r>
       <r>   -19.7125     0.0000     1.0000 </r>
       <r>   -19.5922     0.0000     1.0000 </r>
       <r>   -19.4719     0.0000     1.0000 </r>
       <r>   -19.3515     0.0000     1.0000 </r>
       <r>   -19.2312     0.0000     1.0000 </r>
       <r>   -19.1109     0.0000     1.0000 </r>
       <r>   -18.9906     0.0000     1.0000 </r>
       <r>   -18.8702     0.0000     1.0000 </r>
       <r>   -18.7499     0.0000     1.0000 </r>
       <r>   -18.6296     0.0000     1.0000 </r>
       <r>   -18.5093     0.0000     1.0000 </r>
       <r>   -18.3890     0.0000     1.0000 </r>
       <r>   -18.2686     0.0000     1.0000 </r>
       <r>   -18.1483     0.0000     1.0000 </r>
       <r>   -18.0280     0.0000     1.0000 </r>
       <r>   -17.9077     0.0000     1.0000 </r>
       <r>   -17.7873     0.0000     1.0000 </r>
       <r>   -17.6670     0.0000     1.0000 </r>
       <r>   -17.5467     0.0000     1.0000 </r>
       <r>   -17.4264     0.0000     1.0000 </r>
       <r>   -17.3061     0.0000     1.0000 </r>
       <r>   -17.1857     0.0000     1.0000 </r>
       <r>   -17.0654     0.0000     1.0000 </r>
       <r>   -16.9451     0.0000     1.0000 </r>
       <r>   -16.8248     0.0000     1.0000 </r>
       <r>   -16.7044     0.0000     1.0000 </r>
       <r>   -16.5841     0.0000     1.0000 </r>
       <r>   -16.4638     0.0000     1.0000 </r>
       <r>   -16.3435     0.0000     1.0000 </r>
       <r>   -16.2232     0.0000     1.0000 </r>
       <r>   -16.1028     0.0000     1.0000 </r>
       <r>   -15.9825     0.0000     1.0000 </r>
       <r>   -15.8622     0.0000     1.0000 </r>
       <r>   -15.7419     0.0000     1.0000 </r>
       <r>   -15.6215     0.0000     1.0000 </r>
       <r>   -15.5012     0.0000     1.0000 </r>
       <r>   -15.3809     0.0000     1.0000 </r>
       <r>   -15.2606     0.0000     1.0000 </r>
       <r>   -15.1403     0.0000     1.0000 </r>
       <r>   -15.0199     0.0000     1.0000 </r>
       <r>   -14.8996     0.0000     1.0000 </r>
       <r>   -14.7793     0.0000     1.0000 </r>
       <r>   -14.6590     0.0000     1.0000 </r>
       <r>   -14.5386     0.0000     1.0000 </r>
       <r>   -14.4183     0.0000     1.0000 </r>
       <r>   -14.2980     0.0000     1.0000 </r>
       <r>   -14.1777     0.0000     1.0000 </r>
       <r>   -14.0574     0.0000     1.0000 </r>
       <r>   -13.9370     0.0000     1.0000 </r>
       <r>   -13.8167     0.0000     1.0000 </r>
       <r>   -13.6964     0.0000     1.0000 </r>
       <r>   -13.5761     0.0000     1.0000 </r>
       <r>   -13.4558     0.0000     1.0000 </r>
       <r>   -13.3354     0.0101     1.0012 </r>
       <r>   -13.2151    12.9897     2.5642 </r>
       <r>   -13.0948    11.9265     3.9992 </r>
       <r>   -12.9745     0.0068     4.0000 </r>
       <r>   -12.8541     0.0000     4.0000 </r>
       <r>   -12.7338     0.0000     4.0000 </r>
       <r>   -12.6135     0.0000     4.0000 </r>
       <r>   -12.4932     0.0000     4.0000 </r>
       <r>   -12.3729     0.0000     4.0000 </r>
       <r>   -12.2525     0.0000     4.0000 </r>
       <r>   -12.1322     0.0000     4.0000 </r>
       <r>   -12.0119     0.0000     4.0000 </r>
       <r>   -11.8916     0.0000     4.0000 </r>
       <r>   -11.7712     0.0000     4.0000 </r>
       <r>   -11.6509     0.0000     4.0000 </r>
       <r>   -11.5306     0.0000     4.0000 </r>
       <r>   -11.4103     0.0000     4.0000 </r>
       <r>   -11.2900     0.0000     4.0000 </r>
       <r>   -11.1696     0.0000     4.0000 </r>
       <r>   -11.0493     0.0000     4.0000 </r>
       <r>   -10.9290     0.0000     4.0000 </r>
       <r>   -10.8087     0.0000     4.0000 </r>
       <r>   -10.6883     0.0000     4.0000 </r>
       <r>   -10.5680     0.0000     4.0000 </r>
       <r>   -10.4477     0.0000     4.0000 </r>
       <r>   -10.3274     0.0000     4.0000 </r>
       <r>   -10.2071     0.0000     4.0000 </r>
       <r>   -10.0867     0.0000     4.0000 </r>
       <r>    -9.9664     0.0000     4.0000 </r>
       <r>    -9.8461     0.0000     4.0000 </r>
       <r>    -9.7258     0.0000     4.0000 </r>
       <r>    -9.6054     0.0000     4.0000 </r>
       <r>    -9.4851     0.0000     4.0000 </r>
       <r>    -9.3648     0.0000     4.0000 </r>
       <r>    -9.2445     0.0000     4.0000 </r>
       <r>    -9.1242     0.0000     4.0000 </r>
       <r>    -9.0038     0.0000     4.0000 </r>
       <r>    -8.8835     0.0000     4.0000 </r>
       <r>    -8.7632     0.0000     4.0000 </r>
       <r>    -8.6429     0.0000     4.0000 </r>
       <r>    -8.5225     0.0000     4.0000 </r>
       <r>    -8.4022     0.0000     4.0000 </r>
       <r>    -8.2819     0.0000     4.0000 </r>
       <r>    -8.1616     0.0000     4.0000 </r>
       <r>    -8.0413     0.0000     4.0000 </r>
       <r>    -7.9209     0.0000     4.0000 </r>
       <r>    -7.8006     0.0000     4.0000 </r>
       <r>    -7.6803     0.0000     4.0000 </r>
       <r>    -7.5600     0.0000     4.0000 </r>
       <r>    -7.4396     0.0000     4.0000 </r>
       <r>    -7.3193     0.0000     4.0000 </r>
       <r>    -7.1990     0.0000     4.0000 </r>
       <r>    -7.0787     0.0000     4.0000 </r>
       <r>    -6.9584     0.0000     4.0000 </r>
       <r>    -6.8380     0.0000     4.0000 </r>
       <r>    -6.7177     0.0000     4.0000 </r>
       <r>    -6.5974     0.0000     4.0000 </r>
       <r>    -6.4771     0.0000     4.0000 </r>
       <r>    -6.3567     0.0000     4.0000 </r>
       <r>    -6.2364     0.0000     4.0000 </r>
       <r>    -6.1161     0.0000     4.0000 </r>
       <r>    -5.9958     0.0000     4.0000 </r>
       <r>    -5.8755     0.0000     4.0000 </r>
       <r>    -5.7551     0.0000     4.0000 </r>
       <r>    -5.6348     0.0000     4.0000 </r>
       <r>    -5.5145     0.0000     4.0000 </r>
       <r>    -5.3942     0.0000     4.0000 </r>
       <r>    -5.2738     0.0000     4.0000 </r>
       <r>    -5.1535     0.0000     4.0000 </r>
       <r>    -5.0332     0.0000     4.0000 </r>
       <r>    -4.9129     0.0000     4.0000 </r>
       <r>    -4.7926     0.0000     4.0000 </r>
       <r>    -4.6722     0.0000     4.0000 </r>
       <r>    -4.5519     0.0000     4.0000 </r>
       <r>    -4.4316     0.0000     4.0000 </r>
       <r>    -4.3113     0.0000     4.0000 </r>
       <r>    -4.1909     0.0000     4.0000 </r>
       <r>    -4.0706     0.0000     4.0000 </r>
       <r>    -3.9503     0.0000     4.0000 </r>
       <r>    -3.8300     0.0000     4.0000 </r>
       <r>    -3.7097     0.0000     4.0000 </r>
       <r>    -3.5893     0.0000     4.0000 </r>
       <r>    -3.4690     0.0000     4.0000 </r>
       <r>    -3.3487     0.0000     4.0000 </r>
       <r>    -3.2284     0.0000     4.0000 </r>
       <r>    -3.1081     0.0000     4.0000 </r>
       <r>    -2.9877     0.0000     4.0000 </r>
       <r>    -2.8674     0.0000     4.0000 </r>
       <r>    -2.7471     0.0000     4.0000 </r>
       <r>    -2.6268     0.0000     4.0000 </r>
       <r>    -2.5064     0.0000     4.0000 </r>
       <r>    -2.3861     0.0000     4.0000 </r>
       <r>    -2.2658     0.0000     4.0000 </r>
       <r>    -2.1455     0.0000     4.0000 </r>
       <r>    -2.0252     0.0000     4.0000 </r>
       <r>    -1.9048     0.0000     4.0000 </r>
       <r>    -1.7845     0.0000     4.0000 </r>
       <r>    -1.6642     0.0000     4.0000 </r>
       <r>    -1.5439     0.0000     4.0000 </r>
       <r>    -1.4235     0.0000     4.0000 </r>
       <r>    -1.3032     1.2815     4.1542 </r>
       <r>    -1.1829     6.9584     4.9915 </r>
       <r>    -1.0626     0.0710     5.0000 </r>
       <r>    -0.9423     0.0000     5.0000 </r>
       <r>    -0.8219     0.0000     5.0000 </r>
       <r>    -0.7016     0.0000     5.0000 </r>
       <r>    -0.5813     0.0000     5.0000 </r>
       <r>    -0.4610     0.0000     5.0000 </r>
       <r>    -0.3406     0.0000     5.0000 </r>
       <r>    -0.2203     0.0000     5.0000 </r>
       <r>    -0.1000     0.0000     5.0000 </r>
       <r>     0.0203     0.0000     5.0000 </r>
       <r>     0.1406     0.0000     5.0000 </r>
       <r>     0.2610     0.0040     5.0005 </r>
       <r>     0.3813     7.5613     5.9103 </r>
       <r>     0.5016    23.9856     8.7963 </r>
       <r>     0.6219    10.0008     9.9996 </r>
       <r>     0.7423     1.7964    10.2157 </r>
       <r>     0.8626    21.7981    12.8385 </r>
       <r>     0.9829     1.3419    13.0000 </r>
       <r>     1.1032     0.0000    13.0000 </r>
       <r>     1.2235     1.0905    13.1312 </r>
       <r>     1.3439     7.1272    13.9888 </r>
       <r>     1.4642     0.0933    14.0000 </r>
       <r>     1.5845     0.0000    14.0000 </r>
       <r>     1.7048     0.0000    14.0000 </r>
       <r>     1.8252     0.0000    14.0000 </r>
       <r>     1.9455     0.0000    14.0000 </r>
       <r>     2.0658     0.0000    14.0000 </r>
       <r>     2.1861     0.0000    14.0000 </r>
       <r>     2.3064     0.0000    14.0000 </r>
       <r>     2.4268     2.1600    14.2599 </r>
       <r>     2.5471    14.2714    15.9771 </r>
       <r>     2.6674     0.1906    16.0000 </r>
       <r>     2.7877     0.1433    16.0172 </r>
       <r>     2.9081    15.0316    17.8259 </r>
       <r>     3.0284    16.9169    19.8614 </r>
       <r>     3.1487     1.1670    20.0018 </r>
       <r>     3.2690    10.0134    21.2066 </r>
       <r>     3.3893     9.0228    22.2923 </r>
       <r>     3.5097     5.8666    22.9981 </r>
       <r>     3.6300     9.4822    24.1390 </r>
       <r>     3.7503    30.5046    27.8094 </r>
       <r>     3.8706     1.5838    28.0000 </r>
       <r>     3.9910     0.0008    28.0001 </r>
       <r>     4.1113     2.9936    28.3603 </r>
       <r>     4.2316     5.3071    28.9988 </r>
       <r>     4.3519     0.0097    29.0000 </r>
       <r>     4.4722     0.0000    29.0000 </r>
       <r>     4.5926     0.0371    29.0045 </r>
       <r>     4.7129     7.3601    29.8900 </r>
       <r>     4.8332     9.1806    30.9947 </r>
       <r>     4.9535    11.2990    32.3542 </r>
       <r>     5.0739    13.5851    33.9888 </r>
       <r>     5.1942     0.0933    34.0000 </r>
       <r>     5.3145     0.0000    34.0000 </r>
       <r>     5.4348     0.0000    34.0000 </r>
       <r>     5.5551     0.0000    34.0000 </r>
       <r>     5.6755     0.0000    34.0000 </r>
       <r>     5.7958     0.0000    34.0000 </r>
       <r>     5.9161     0.0025    34.0003 </r>
       <r>     6.0364     4.0507    34.4877 </r>
       <r>     6.1567     4.2548    34.9996 </r>
       <r>     6.2771     0.9002    35.1079 </r>
       <r>     6.3974     7.2878    35.9848 </r>
       <r>     6.5177     0.1261    36.0000 </r>
       <r>     6.6380     0.0000    36.0000 </r>
       <r>     6.7584     0.0000    36.0000 </r>
       <r>     6.8787     0.0000    36.0000 </r>
       <r>     6.9990     0.0000    36.0000 </r>
       <r>     7.1193     0.0000    36.0000 </r>
       <r>     7.2396     0.0000    36.0000 </r>
       <r>     7.3600     0.0000    36.0000 </r>
       <r>     7.4803     0.0000    36.0000 </r>
       <r>     7.6006     0.0000    36.0000 </r>
       <r>     7.7209     0.0000    36.0000 </r>
       <r>     7.8413     0.0000    36.0000 </r>
       <r>     7.9616     0.0000    36.0000 </r>
      </set>
     </set>
    </array>
   </total>
   <partial>
    <array>
     <dimension dim="1">gridpoints</dimension>
     <dimension dim="2">spin</dimension>
     <dimension dim="3">ion</dimension>
     <field>energy</field>
     <field>    s</field>
     <field>   py</field>
     <field>   pz</field>
     <field>   px</field>
     <field>  dxy</field>
     <field>  dyz</field>
     <field>  dz2</field>
     <field>  dxz</field>
     <field>x2-y2</field>
     <set>
      <set comment="ion 1">
       <set comment="spin 1">
        <r>   -28.1350     0.0000     0.0000     0.0000     0.0000     0.0000     0.0000     0.0000     0.0000     0.0000 </r>
        <r>   -28.0147     0.0000     0.0000     0.0000     0.0000     0.0000     0.0000     0.0000     0.0000     0.0000 </r>
        <r>   -27.8944     0.0000     0.0000     0.0000     0.0000     0.0000     0.0000     0.0000     0.0000     0.0000 </r>
        <r>   -27.7741     0.0000     0.0000     0.0000     0.0000     0.0000     0.0000     0.0000     0.0000     0.0000 </r>
        <r>   -27.6538     0.0000     0.0000     0.0000     0.0000     0.0000     0.0000     0.0000     0.0000     0.0000 </r>
        <r>   -27.5334     0.0000     0.0000     0.0000     0.0000     0.0000     0.0000     0.0000     0.0000     0.0000 </r>
        <r>   -27.4131     0.0000     0.0000     0.0000     0.0000     0.0000     0.0000     0.0000     0.0000     0.0000 </r>
        <r>   -27.2928     0.0000     0.0000     0.0000     0.0000     0.0000     0.0000     0.0000     0.0000     0.0000 </r>
        <r>   -27.1725     0.0000     0.0000     0.0000     0.0000     0.0000     0.0000     0.0000     0.0000     0.0000 </r>
        <r>   -27.0521     0.0000     0.0000     0.0000     0.0000     0.0000     0.0000     0.0000     0.0000     0.0000 </r>
        <r>   -26.9318     0.0000     0.0000     0.0000     0.0000     0.0000     0.0000     0.0000     0.0000     0.0000 </r>
        <r>   -26.8115     0.0000     0.0000     0.0000     0.0000     0.0000     0.0000     0.0000     0.0000     0.0000 </r>
        <r>   -26.6912     0.0000     0.0000     0.0000     0.0000     0.0000     0.0000     0.0000     0.0000     0.0000 </r>
        <r>   -26.5709     0.1150     0.0000     0.0000     0.0000     0.0000     0.0000     0.0000     0.0000     0.0000 </r>
        <r>   -26.4505     6.6491     0.0000     0.0000     0.0000     0.0000     0.0000     0.0000     0.0000     0.0000 </r>
        <r>   -26.3302     0.8185     0.0000     0.0000     0.0000     0.0000     0.0000     0.0000     0.0000     0.0000 </r>
        <r>   -26.2099     0.0000     0.0000     0.0000     0.0000     0.0000     0.0000     0.0000     0.0000     0.0000 </r>
        <r>   -26.0896     0.0000     0.0000     0.0000     0.0000     0.0000     0.0000     0.0000     0.0000     0.0000 </r>
        <r>   -25.9692     0.0000     0.0000     0.0000     0.0000     0.0000     0.0000     0.0000     0.0000     0.0000 </r>
        <r>   -25.8489     0.0000     0.0000     0.0000     0.0000     0.0000     0.0000     0.0000     0.0000     0.0000 </r>
        <r>   -25.7286     0.0000     0.0000     0.0000     0.0000     0.0000     0.0000     0.0000     0.0000     0.0000 </r>
        <r>   -25.6083     0.0000     0.0000     0.0000     0.0000     0.0000     0.0000     0.0000     0.0000     0.0000 </r>
        <r>   -25.4880     0.0000     0.0000     0.0000     0.0000     0.0000     0.0000     0.0000     0.0000     0.0000 </r>
        <r>   -25.3676     0.0000     0.0000     0.0000     0.0000     0.0000     0.0000     0.0000     0.0000     0.0000 </r>
        <r>   -25.2473     0.0000     0.0000     0.0000     0.0000     0.0000     0.0000     0.0000     0.0000     0.0000 </r>
        <r>   -25.1270     0.0000     0.0000     0.0000     0.0000     0.0000     0.0000     0.0000     0.0000     0.0000 </r>
        <r>   -25.0067     0.0000     0.0000     0.0000     0.0000     0.0000     0.0000     0.0000     0.0000     0.0000 </r>
        <r>   -24.8863     0.0000     0.0000     0.0000     0.0000     0.0000     0.0000     0.0000     0.0000     0.0000 </r>
        <r>   -24.7660     0.0000     0.0000     0.0000     0.0000     0.0000     0.0000     0.0000     0.0000     0.0000 </r>
        <r>   -24.6457     0.0000     0.0000     0.0000     0.0000     0.0000     0.0000     0.0000     0.0000     0.0000 </r>
        <r>   -24.5254     0.0000     0.0000     0.0000     0.0000     0.0000     0.0000     0.0000     0.0000     0.0000 </r>
        <r>   -24.4051     0.0000     0.0000     0.0000     0.0000     0.0000     0.0000     0.0000     0.0000     0.0000 </r>
        <r>   -24.2847     0.0000     0.0000     0.0000     0.0000     0.0000     0.0000     0.0000     0.0000     0.0000 </r>
        <r>   -24.1644     0.0000     0.0000     0.0000     0.0000     0.0000     0.0000     0.0000     0.0000     0.0000 </r>
        <r>   -24.0441     0.0000     0.0000     0.0000     0.0000     0.0000     0.0000     0.0000     0.0000     0.0000 </r>
        <r>   -23.9238     0.0000     0.0000     0.0000     0.0000     0.0000     0.0000     0.0000     0.0000     0.0000 </r>
        <r>   -23.8035     0.0000     0.0000     0.0000     0.0000     0.0000     0.0000     0.0000     0.0000     0.0000 </r>
        <r>   -23.6831     0.0000     0.0000     0.0000     0.0000     0.0000     0.0000     0.0000     0.0000     0.0000 </r>
        <r>   -23.5628     0.0000     0.0000     0.0000     0.0000     0.0000     0.0000     0.0000     0.0000     0.0000 </r>
        <r>   -23.4425     0.0000     0.0000     0.0000     0.0000     0.0000     0.0000     0.0000     0.0000     0.0000 </r>
        <r>   -23.3222     0.0000     0.0000     0.0000     0.0000     0.0000     0.0000     0.0000     0.0000     0.0000 </r>
        <r>   -23.2018     0.0000     0.0000     0.0000     0.0000     0.0000     0.0000     0.0000     0.0000     0.0000 </r>
        <r>   -23.0815     0.0000     0.0000     0.0000     0.0000     0.0000     0.0000     0.0000     0.0000     0.0000 </r>
        <r>   -22.9612     0.0000     0.0000     0.0000     0.0000     0.0000     0.0000     0.0000     0.0000     0.0000 </r>
        <r>   -22.8409     0.0000     0.0000     0.0000     0.0000     0.0000     0.0000     0.0000     0.0000     0.0000 </r>
        <r>   -22.7206     0.0000     0.0000     0.0000     0.0000     0.0000     0.0000     0.0000     0.0000     0.0000 </r>
        <r>   -22.6002     0.0000     0.0000     0.0000     0.0000     0.0000     0.0000     0.0000     0.0000     0.0000 </r>
        <r>   -22.4799     0.0000     0.0000     0.0000     0.0000     0.0000     0.0000     0.0000     0.0000     0.0000 </r>
        <r>   -22.3596     0.0000     0.0000     0.0000     0.0000     0.0000     0.0000     0.0000     0.0000     0.0000 </r>
        <r>   -22.2393     0.0000     0.0000     0.0000     0.0000     0.0000     0.0000     0.0000     0.0000     0.0000 </r>
        <r>   -22.1189     0.0000     0.0000     0.0000     0.0000     0.0000     0.0000     0.0000     0.0000     0.0000 </r>
        <r>   -21.9986     0.0000     0.0000     0.0000     0.0000     0.0000     0.0000     0.0000     0.0000     0.0000 </r>
        <r>   -21.8783     0.0000     0.0000     0.0000     0.0000     0.0000     0.0000     0.0000     0.0000     0.0000 </r>
        <r>   -21.7580     0.0000     0.0000     0.0000     0.0000     0.0000     0.0000     0.0000     0.0000     0.0000 </r>
        <r>   -21.6377     0.0000     0.0000     0.0000     0.0000     0.0000     0.0000     0.0000     0.0000     0.0000 </r>
        <r>   -21.5173     0.0000     0.0000     0.0000     0.0000     0.0000     0.0000     0.0000     0.0000     0.0000 </r>
        <r>   -21.3970     0.0000     0.0000     0.0000     0.0000     0.0000     0.0000     0.0000     0.0000     0.0000 </r>
        <r>   -21.2767     0.0000     0.0000     0.0000     0.0000     0.0000     0.0000     0.0000     0.0000     0.0000 </r>
        <r>   -21.1564     0.0000     0.0000     0.0000     0.0000     0.0000     0.0000     0.0000     0.0000     0.0000 </r>
        <r>   -21.0360     0.0000     0.0000     0.0000     0.0000     0.0000     0.0000     0.0000     0.0000     0.0000 </r>
        <r>   -20.9157     0.0000     0.0000     0.0000     0.0000     0.0000     0.0000     0.0000     0.0000     0.0000 </r>
        <r>   -20.7954     0.0000     0.0000     0.0000     0.0000     0.0000     0.0000     0.0000     0.0000     0.0000 </r>
        <r>   -20.6751     0.0000     0.0000     0.0000     0.0000     0.0000     0.0000     0.0000     0.0000     0.0000 </r>
        <r>   -20.5548     0.0000     0.0000     0.0000     0.0000     0.0000     0.0000     0.0000     0.0000     0.0000 </r>
        <r>   -20.4344     0.0000     0.0000     0.0000     0.0000     0.0000     0.0000     0.0000     0.0000     0.0000 </r>
        <r>   -20.3141     0.0000     0.0000     0.0000     0.0000     0.0000     0.0000     0.0000     0.0000     0.0000 </r>
        <r>   -20.1938     0.0000     0.0000     0.0000     0.0000     0.0000     0.0000     0.0000     0.0000     0.0000 </r>
        <r>   -20.0735     0.0000     0.0000     0.0000     0.0000     0.0000     0.0000     0.0000     0.0000     0.0000 </r>
        <r>   -19.9531     0.0000     0.0000     0.0000     0.0000     0.0000     0.0000     0.0000     0.0000     0.0000 </r>
        <r>   -19.8328     0.0000     0.0000     0.0000     0.0000     0.0000     0.0000     0.0000     0.0000     0.0000 </r>
        <r>   -19.7125     0.0000     0.0000     0.0000     0.0000     0.0000     0.0000     0.0000     0.0000     0.0000 </r>
        <r>   -19.5922     0.0000     0.0000     0.0000     0.0000     0.0000     0.0000     0.0000     0.0000     0.0000 </r>
        <r>   -19.4719     0.0000     0.0000     0.0000     0.0000     0.0000     0.0000     0.0000     0.0000     0.0000 </r>
        <r>   -19.3515     0.0000     0.0000     0.0000     0.0000     0.0000     0.0000     0.0000     0.0000     0.0000 </r>
        <r>   -19.2312     0.0000     0.0000     0.0000     0.0000     0.0000     0.0000     0.0000     0.0000     0.0000 </r>
        <r>   -19.1109     0.0000     0.0000     0.0000     0.0000     0.0000     0.0000     0.0000     0.0000     0.0000 </r>
        <r>   -18.9906     0.0000     0.0000     0.0000     0.0000     0.0000     0.0000     0.0000     0.0000     0.0000 </r>
        <r>   -18.8702     0.0000     0.0000     0.0000     0.0000     0.0000     0.0000     0.0000     0.0000     0.0000 </r>
        <r>   -18.7499     0.0000     0.0000     0.0000     0.0000     0.0000     0.0000     0.0000     0.0000     0.0000 </r>
        <r>   -18.6296     0.0000     0.0000     0.0000     0.0000     0.0000     0.0000     0.0000     0.0000     0.0000 </r>
        <r>   -18.5093     0.0000     0.0000     0.0000     0.0000     0.0000     0.0000     0.0000     0.0000     0.0000 </r>
        <r>   -18.3890     0.0000     0.0000     0.0000     0.0000     0.0000     0.0000     0.0000     0.0000     0.0000 </r>
        <r>   -18.2686     0.0000     0.0000     0.0000     0.0000     0.0000     0.0000     0.0000     0.0000     0.0000 </r>
        <r>   -18.1483     0.0000     0.0000     0.0000     0.0000     0.0000     0.0000     0.0000     0.0000     0.0000 </r>
        <r>   -18.0280     0.0000     0.0000     0.0000     0.0000     0.0000     0.0000     0.0000     0.0000     0.0000 </r>
        <r>   -17.9077     0.0000     0.0000     0.0000     0.0000     0.0000     0.0000     0.0000     0.0000     0.0000 </r>
        <r>   -17.7873     0.0000     0.0000     0.0000     0.0000     0.0000     0.0000     0.0000     0.0000     0.0000 </r>
        <r>   -17.6670     0.0000     0.0000     0.0000     0.0000     0.0000     0.0000     0.0000     0.0000     0.0000 </r>
        <r>   -17.5467     0.0000     0.0000     0.0000     0.0000     0.0000     0.0000     0.0000     0.0000     0.0000 </r>
        <r>   -17.4264     0.0000     0.0000     0.0000     0.0000     0.0000     0.0000     0.0000     0.0000     0.0000 </r>
        <r>   -17.3061     0.0000     0.0000     0.0000     0.0000     0.0000     0.0000     0.0000     0.0000     0.0000 </r>
        <r>   -17.1857     0.0000     0.0000     0.0000     0.0000     0.0000     0.0000     0.0000     0.0000     0.0000 </r>
        <r>   -17.0654     0.0000     0.0000     0.0000     0.0000     0.0000     0.0000     0.0000     0.0000     0.0000 </r>
        <r>   -16.9451     0.0000     0.0000     0.0000     0.0000     0.0000     0.0000     0.0000     0.0000     0.0000 </r>
        <r>   -16.8248     0.0000     0.0000     0.0000     0.0000     0.0000     0.0000     0.0000     0.0000     0.0000 </r>
        <r>   -16.7044     0.0000     0.0000     0.0000     0.0000     0.0000     0.0000     0.0000     0.0000     0.0000 </r>
        <r>   -16.5841     0.0000     0.0000     0.0000     0.0000     0.0000     0.0000     0.0000     0.0000     0.0000 </r>
        <r>   -16.4638     0.0000     0.0000     0.0000     0.0000     0.0000     0.0000     0.0000     0.0000     0.0000 </r>
        <r>   -16.3435     0.0000     0.0000     0.0000     0.0000     0.0000     0.0000     0.0000     0.0000     0.0000 </r>
        <r>   -16.2232     0.0000     0.0000     0.0000     0.0000     0.0000     0.0000     0.0000     0.0000     0.0000 </r>
        <r>   -16.1028     0.0000     0.0000     0.0000     0.0000     0.0000     0.0000     0.0000     0.0000     0.0000 </r>
        <r>   -15.9825     0.0000     0.0000     0.0000     0.0000     0.0000     0.0000     0.0000     0.0000     0.0000 </r>
        <r>   -15.8622     0.0000     0.0000     0.0000     0.0000     0.0000     0.0000     0.0000     0.0000     0.0000 </r>
        <r>   -15.7419     0.0000     0.0000     0.0000     0.0000     0.0000     0.0000     0.0000     0.0000     0.0000 </r>
        <r>   -15.6215     0.0000     0.0000     0.0000     0.0000     0.0000     0.0000     0.0000     0.0000     0.0000 </r>
        <r>   -15.5012     0.0000     0.0000     0.0000     0.0000     0.0000     0.0000     0.0000     0.0000     0.0000 </r>
        <r>   -15.3809     0.0000     0.0000     0.0000     0.0000     0.0000     0.0000     0.0000     0.0000     0.0000 </r>
        <r>   -15.2606     0.0000     0.0000     0.0000     0.0000     0.0000     0.0000     0.0000     0.0000     0.0000 </r>
        <r>   -15.1403     0.0000     0.0000     0.0000     0.0000     0.0000     0.0000     0.0000     0.0000     0.0000 </r>
        <r>   -15.0199     0.0000     0.0000     0.0000     0.0000     0.0000     0.0000     0.0000     0.0000     0.0000 </r>
        <r>   -14.8996     0.0000     0.0000     0.0000     0.0000     0.0000     0.0000     0.0000     0.0000     0.0000 </r>
        <r>   -14.7793     0.0000     0.0000     0.0000     0.0000     0.0000     0.0000     0.0000     0.0000     0.0000 </r>
        <r>   -14.6590     0.0000     0.0000     0.0000     0.0000     0.0000     0.0000     0.0000     0.0000     0.0000 </r>
        <r>   -14.5386     0.0000     0.0000     0.0000     0.0000     0.0000     0.0000     0.0000     0.0000     0.0000 </r>
        <r>   -14.4183     0.0000     0.0000     0.0000     0.0000     0.0000     0.0000     0.0000     0.0000     0.0000 </r>
        <r>   -14.2980     0.0000     0.0000     0.0000     0.0000     0.0000     0.0000     0.0000     0.0000     0.0000 </r>
        <r>   -14.1777     0.0000     0.0000     0.0000     0.0000     0.0000     0.0000     0.0000     0.0000     0.0000 </r>
        <r>   -14.0574     0.0000     0.0000     0.0000     0.0000     0.0000     0.0000     0.0000     0.0000     0.0000 </r>
        <r>   -13.9370     0.0000     0.0000     0.0000     0.0000     0.0000     0.0000     0.0000     0.0000     0.0000 </r>
        <r>   -13.8167     0.0000     0.0000     0.0000     0.0000     0.0000     0.0000     0.0000     0.0000     0.0000 </r>
        <r>   -13.6964     0.0000     0.0000     0.0000     0.0000     0.0000     0.0000     0.0000     0.0000     0.0000 </r>
        <r>   -13.5761     0.0000     0.0000     0.0000     0.0000     0.0000     0.0000     0.0000     0.0000     0.0000 </r>
        <r>   -13.4558     0.0000     0.0000     0.0000     0.0000     0.0000     0.0000     0.0000     0.0000     0.0000 </r>
        <r>   -13.3354     0.0000     0.7935     0.7935     0.7934     0.0000     0.0000     0.0000     0.0000     0.0000 </r>
        <r>   -13.2151     0.0000     5.5876     5.5875     5.5875     0.0000     0.0000     0.0000     0.0000     0.0000 </r>
        <r>   -13.0948     0.0000     0.0806     0.0806     0.0806     0.0000     0.0000     0.0000     0.0000     0.0000 </r>
        <r>   -12.9745     0.0000     0.0000     0.0000     0.0000     0.0000     0.0000     0.0000     0.0000     0.0000 </r>
        <r>   -12.8541     0.0000     0.0000     0.0000     0.0000     0.0000     0.0000     0.0000     0.0000     0.0000 </r>
        <r>   -12.7338     0.0000     0.0000     0.0000     0.0000     0.0000     0.0000     0.0000     0.0000     0.0000 </r>
        <r>   -12.6135     0.0000     0.0000     0.0000     0.0000     0.0000     0.0000     0.0000     0.0000     0.0000 </r>
        <r>   -12.4932     0.0000     0.0000     0.0000     0.0000     0.0000     0.0000     0.0000     0.0000     0.0000 </r>
        <r>   -12.3729     0.0000     0.0000     0.0000     0.0000     0.0000     0.0000     0.0000     0.0000     0.0000 </r>
        <r>   -12.2525     0.0000     0.0000     0.0000     0.0000     0.0000     0.0000     0.0000     0.0000     0.0000 </r>
        <r>   -12.1322     0.0000     0.0000     0.0000     0.0000     0.0000     0.0000     0.0000     0.0000     0.0000 </r>
        <r>   -12.0119     0.0000     0.0000     0.0000     0.0000     0.0000     0.0000     0.0000     0.0000     0.0000 </r>
        <r>   -11.8916     0.0000     0.0000     0.0000     0.0000     0.0000     0.0000     0.0000     0.0000     0.0000 </r>
        <r>   -11.7712     0.0000     0.0000     0.0000     0.0000     0.0000     0.0000     0.0000     0.0000     0.0000 </r>
        <r>   -11.6509     0.0000     0.0000     0.0000     0.0000     0.0000     0.0000     0.0000     0.0000     0.0000 </r>
        <r>   -11.5306     0.0000     0.0000     0.0000     0.0000     0.0000     0.0000     0.0000     0.0000     0.0000 </r>
        <r>   -11.4103     0.0000     0.0000     0.0000     0.0000     0.0000     0.0000     0.0000     0.0000     0.0000 </r>
        <r>   -11.2900     0.0000     0.0000     0.0000     0.0000     0.0000     0.0000     0.0000     0.0000     0.0000 </r>
        <r>   -11.1696     0.0000     0.0000     0.0000     0.0000     0.0000     0.0000     0.0000     0.0000     0.0000 </r>
        <r>   -11.0493     0.0000     0.0000     0.0000     0.0000     0.0000     0.0000     0.0000     0.0000     0.0000 </r>
        <r>   -10.9290     0.0000     0.0000     0.0000     0.0000     0.0000     0.0000     0.0000     0.0000     0.0000 </r>
        <r>   -10.8087     0.0000     0.0000     0.0000     0.0000     0.0000     0.0000     0.0000     0.0000     0.0000 </r>
        <r>   -10.6883     0.0000     0.0000     0.0000     0.0000     0.0000     0.0000     0.0000     0.0000     0.0000 </r>
        <r>   -10.5680     0.0000     0.0000     0.0000     0.0000     0.0000     0.0000     0.0000     0.0000     0.0000 </r>
        <r>   -10.4477     0.0000     0.0000     0.0000     0.0000     0.0000     0.0000     0.0000     0.0000     0.0000 </r>
        <r>   -10.3274     0.0000     0.0000     0.0000     0.0000     0.0000     0.0000     0.0000     0.0000     0.0000 </r>
        <r>   -10.2071     0.0000     0.0000     0.0000     0.0000     0.0000     0.0000     0.0000     0.0000     0.0000 </r>
        <r>   -10.0867     0.0000     0.0000     0.0000     0.0000     0.0000     0.0000     0.0000     0.0000     0.0000 </r>
        <r>    -9.9664     0.0000     0.0000     0.0000     0.0000     0.0000     0.0000     0.0000     0.0000     0.0000 </r>
        <r>    -9.8461     0.0000     0.0000     0.0000     0.0000     0.0000     0.0000     0.0000     0.0000     0.0000 </r>
        <r>    -9.7258     0.0000     0.0000     0.0000     0.0000     0.0000     0.0000     0.0000     0.0000     0.0000 </r>
        <r>    -9.6054     0.0000     0.0000     0.0000     0.0000     0.0000     0.0000     0.0000     0.0000     0.0000 </r>
        <r>    -9.4851     0.0000     0.0000     0.0000     0.0000     0.0000     0.0000     0.0000     0.0000     0.0000 </r>
        <r>    -9.3648     0.0000     0.0000     0.0000     0.0000     0.0000     0.0000     0.0000     0.0000     0.0000 </r>
        <r>    -9.2445     0.0000     0.0000     0.0000     0.0000     0.0000     0.0000     0.0000     0.0000     0.0000 </r>
        <r>    -9.1242     0.0000     0.0000     0.0000     0.0000     0.0000     0.0000     0.0000     0.0000     0.0000 </r>
        <r>    -9.0038     0.0000     0.0000     0.0000     0.0000     0.0000     0.0000     0.0000     0.0000     0.0000 </r>
        <r>    -8.8835     0.0000     0.0000     0.0000     0.0000     0.0000     0.0000     0.0000     0.0000     0.0000 </r>
        <r>    -8.7632     0.0000     0.0000     0.0000     0.0000     0.0000     0.0000     0.0000     0.0000     0.0000 </r>
        <r>    -8.6429     0.0000     0.0000     0.0000     0.0000     0.0000     0.0000     0.0000     0.0000     0.0000 </r>
        <r>    -8.5225     0.0000     0.0000     0.0000     0.0000     0.0000     0.0000     0.0000     0.0000     0.0000 </r>
        <r>    -8.4022     0.0000     0.0000     0.0000     0.0000     0.0000     0.0000     0.0000     0.0000     0.0000 </r>
        <r>    -8.2819     0.0000     0.0000     0.0000     0.0000     0.0000     0.0000     0.0000     0.0000     0.0000 </r>
        <r>    -8.1616     0.0000     0.0000     0.0000     0.0000     0.0000     0.0000     0.0000     0.0000     0.0000 </r>
        <r>    -8.0413     0.0000     0.0000     0.0000     0.0000     0.0000     0.0000     0.0000     0.0000     0.0000 </r>
        <r>    -7.9209     0.0000     0.0000     0.0000     0.0000     0.0000     0.0000     0.0000     0.0000     0.0000 </r>
        <r>    -7.8006     0.0000     0.0000     0.0000     0.0000     0.0000     0.0000     0.0000     0.0000     0.0000 </r>
        <r>    -7.6803     0.0000     0.0000     0.0000     0.0000     0.0000     0.0000     0.0000     0.0000     0.0000 </r>
        <r>    -7.5600     0.0000     0.0000     0.0000     0.0000     0.0000     0.0000     0.0000     0.0000     0.0000 </r>
        <r>    -7.4396     0.0000     0.0000     0.0000     0.0000     0.0000     0.0000     0.0000     0.0000     0.0000 </r>
        <r>    -7.3193     0.0000     0.0000     0.0000     0.0000     0.0000     0.0000     0.0000     0.0000     0.0000 </r>
        <r>    -7.1990     0.0000     0.0000     0.0000     0.0000     0.0000     0.0000     0.0000     0.0000     0.0000 </r>
        <r>    -7.0787     0.0000     0.0000     0.0000     0.0000     0.0000     0.0000     0.0000     0.0000     0.0000 </r>
        <r>    -6.9584     0.0000     0.0000     0.0000     0.0000     0.0000     0.0000     0.0000     0.0000     0.0000 </r>
        <r>    -6.8380     0.0000     0.0000     0.0000     0.0000     0.0000     0.0000     0.0000     0.0000     0.0000 </r>
        <r>    -6.7177     0.0000     0.0000     0.0000     0.0000     0.0000     0.0000     0.0000     0.0000     0.0000 </r>
        <r>    -6.5974     0.0000     0.0000     0.0000     0.0000     0.0000     0.0000     0.0000     0.0000     0.0000 </r>
        <r>    -6.4771     0.0000     0.0000     0.0000     0.0000     0.0000     0.0000     0.0000     0.0000     0.0000 </r>
        <r>    -6.3567     0.0000     0.0000     0.0000     0.0000     0.0000     0.0000     0.0000     0.0000     0.0000 </r>
        <r>    -6.2364     0.0000     0.0000     0.0000     0.0000     0.0000     0.0000     0.0000     0.0000     0.0000 </r>
        <r>    -6.1161     0.0000     0.0000     0.0000     0.0000     0.0000     0.0000     0.0000     0.0000     0.0000 </r>
        <r>    -5.9958     0.0000     0.0000     0.0000     0.0000     0.0000     0.0000     0.0000     0.0000     0.0000 </r>
        <r>    -5.8755     0.0000     0.0000     0.0000     0.0000     0.0000     0.0000     0.0000     0.0000     0.0000 </r>
[...]
        <r>     2.5471     0.0000     0.0003     0.0002     0.0001     0.0001     0.0000     0.6157     0.0000     0.6223 </r>
        <r>     2.6674     0.0000     0.0000     0.0000     0.0000     0.0000     0.0000     0.0079     0.0000     0.0087 </r>
        <r>     2.7877     0.0001     0.0003     0.0010     0.0010     0.0000     0.0001     0.0000     0.0001     0.0000 </r>
        <r>     2.9081     0.0219     0.0351     0.1057     0.1012     0.0029     0.0061     0.0005     0.0102     0.0006 </r>
        <r>     3.0284     0.1271     0.1031     0.0412     0.0428     0.0034     0.0028     0.0004     0.0019     0.0024 </r>
        <r>     3.1487     0.0109     0.0082     0.0021     0.0004     0.0004     0.0002     0.0000     0.0000     0.0002 </r>
        <r>     3.2690     0.0001     0.0008     0.0066     0.0032     0.0006     0.0030     0.0009     0.0162     0.0024 </r>
        <r>     3.3893     0.0001     0.0007     0.0044     0.0022     0.0006     0.0034     0.0283     0.0231     0.0014 </r>
        <r>     3.5097     0.0001     0.0005     0.0000     0.0000     0.0006     0.0039     0.0668     0.0278     0.0000 </r>
        <r>     3.6300     0.0003     0.0015     0.0039     0.0001     0.1171     0.1988     0.0521     0.1905     0.0419 </r>
        <r>     3.7503     0.0004     0.0028     0.0057     0.0002     0.4849     0.4308     0.3134     0.2798     0.4015 </r>
        <r>     3.8706     0.0000     0.0000     0.0001     0.0000     0.0047     0.0069     0.0225     0.0042     0.0569 </r>
        <r>     3.9910     0.0000     0.0000     0.0000     0.0000     0.0000     0.0000     0.0000     0.0000     0.0000 </r>
        <r>     4.1113     0.0003     0.0002     0.0000     0.0002     0.0094     0.0003     0.0008     0.0028     0.0005 </r>
        <r>     4.2316     0.0005     0.0003     0.0001     0.0004     0.0167     0.0005     0.0014     0.0050     0.0008 </r>
        <r>     4.3519     0.0000     0.0000     0.0000     0.0000     0.0000     0.0000     0.0000     0.0000     0.0000 </r>
        <r>     4.4722     0.0000     0.0000     0.0000     0.0000     0.0000     0.0000     0.0000     0.0000     0.0000 </r>
        <r>     4.5926     0.0000     0.0001     0.0000     0.0000     0.0000     0.0001     0.0000     0.0001     0.0000 </r>
        <r>     4.7129     0.0010     0.0156     0.0026     0.0023     0.0070     0.0206     0.0002     0.0098     0.0000 </r>
        <r>     4.8332     0.0011     0.0048     0.0030     0.0150     0.0188     0.0343     0.0004     0.0082     0.0003 </r>
        <r>     4.9535     0.0211     0.0045     0.0028     0.0017     0.2493     0.0863     0.0000     0.3340     0.0018 </r>
        <r>     5.0739     0.0390     0.0020     0.0020     0.0022     0.0704     0.4567     0.0000     0.0605     0.0006 </r>
        <r>     5.1942     0.0001     0.0000     0.0000     0.0000     0.0003     0.0053     0.0000     0.0000     0.0000 </r>
        <r>     5.3145     0.0000     0.0000     0.0000     0.0000     0.0000     0.0000     0.0000     0.0000     0.0000 </r>
        <r>     5.4348     0.0000     0.0000     0.0000     0.0000     0.0000     0.0000     0.0000     0.0000     0.0000 </r>
        <r>     5.5551     0.0000     0.0000     0.0000     0.0000     0.0000     0.0000     0.0000     0.0000     0.0000 </r>
        <r>     5.6755     0.0000     0.0000     0.0000     0.0000     0.0000     0.0000     0.0000     0.0000     0.0000 </r>
        <r>     5.7958     0.0000     0.0000     0.0000     0.0000     0.0000     0.0000     0.0000     0.0000     0.0000 </r>
        <r>     5.9161     0.0000     0.0000     0.0000     0.0000     0.0000     0.0000     0.0000     0.0000     0.0000 </r>
        <r>     6.0364     0.0050     0.0003     0.0002     0.0001     0.0003     0.0068     0.0364     0.0050     0.0002 </r>
        <r>     6.1567     0.0052     0.0004     0.0003     0.0001     0.0003     0.0071     0.0383     0.0052     0.0002 </r>
        <r>     6.2771     0.0016     0.0001     0.0009     0.0000     0.0018     0.0003     0.0002     0.0017     0.0061 </r>
        <r>     6.3974     0.0126     0.0008     0.0074     0.0001     0.0143     0.0020     0.0015     0.0139     0.0497 </r>
        <r>     6.5177     0.0002     0.0000     0.0001     0.0000     0.0002     0.0000     0.0000     0.0002     0.0009 </r>
        <r>     6.6380     0.0000     0.0000     0.0000     0.0000     0.0000     0.0000     0.0000     0.0000     0.0000 </r>
        <r>     6.7584     0.0000     0.0000     0.0000     0.0000     0.0000     0.0000     0.0000     0.0000     0.0000 </r>
        <r>     6.8787     0.0000     0.0000     0.0000     0.0000     0.0000     0.0000     0.0000     0.0000     0.0000 </r>
        <r>     6.9990     0.0000     0.0000     0.0000     0.0000     0.0000     0.0000     0.0000     0.0000     0.0000 </r>
        <r>     7.1193     0.0000     0.0000     0.0000     0.0000     0.0000     0.0000     0.0000     0.0000     0.0000 </r>
        <r>     7.2396     0.0000     0.0000     0.0000     0.0000     0.0000     0.0000     0.0000     0.0000     0.0000 </r>
        <r>     7.3600     0.0000     0.0000     0.0000     0.0000     0.0000     0.0000     0.0000     0.0000     0.0000 </r>
        <r>     7.4803     0.0000     0.0000     0.0000     0.0000     0.0000     0.0000     0.0000     0.0000     0.0000 </r>
        <r>     7.6006     0.0000     0.0000     0.0000     0.0000     0.0000     0.0000     0.0000     0.0000     0.0000 </r>
        <r>     7.7209     0.0000     0.0000     0.0000     0.0000     0.0000     0.0000     0.0000     0.0000     0.0000 </r>
        <r>     7.8413     0.0000     0.0000     0.0000     0.0000     0.0000     0.0000     0.0000     0.0000     0.0000 </r>
        <r>     7.9616     0.0000     0.0000     0.0000     0.0000     0.0000     0.0000     0.0000     0.0000     0.0000 </r>
       </set>
      </set>
     </set>
    </array>
   </partial>
  </dos>
  <projected>
   <eigenvalues>
    <array>
     <dimension dim="1">band</dimension>
     <dimension dim="2">kpoint</dimension>
     <dimension dim="3">spin</dimension>
     <field>eigene</field>
     <field>occ</field>
     <set>
      <set comment="spin 1">
       <set comment="kpoint 1">
        <r>  -26.4943    1.0000 </r>
        <r>  -13.2944    1.0000 </r>
        <r>  -13.2944    1.0000 </r>
        <r>  -13.2944    1.0000 </r>
        <r>   -2.0534    1.0000 </r>
        <r>   -0.3922    0.0000 </r>
        <r>   -0.3891    0.0000 </r>
        <r>   -0.1982    0.0000 </r>
        <r>   -0.1941    0.0000 </r>
        <r>   -0.1508    0.0000 </r>
        <r>   -0.0641    0.0000 </r>
        <r>   -0.0401    0.0000 </r>
        <r>   -0.0339    0.0000 </r>
        <r>    0.2217    0.0000 </r>
        <r>    1.3343    0.0000 </r>
        <r>    1.3392    0.0000 </r>
        <r>    1.7546    0.0000 </r>
        <r>    1.7894    0.0000 </r>
        <r>    1.7917    0.0000 </r>
        <r>    1.8681    0.0000 </r>
        <r>    1.9325    0.0000 </r>
        <r>    1.9484    0.0000 </r>
        <r>    2.0636    0.0000 </r>
        <r>    2.2299    0.0000 </r>
        <r>    2.3441    0.0000 </r>
        <r>    2.4698    0.0000 </r>
        <r>    2.5108    0.0000 </r>
        <r>    2.5334    0.0000 </r>
        <r>    2.9989    0.0000 </r>
        <r>    3.5717    0.0000 </r>
        <r>    3.7007    0.0000 </r>
        <r>    3.7586    0.0000 </r>
        <r>    3.8245    0.0000 </r>
        <r>    3.8434    0.0000 </r>
        <r>    4.4382    0.0000 </r>
        <r>    4.4808    0.0000 </r>
       </set>
      </set>
      <set comment="spin 2">
       <set comment="kpoint 1">
        <r>  -26.4560    1.0000 </r>
        <r>  -13.2170    1.0000 </r>
        <r>  -13.2170    1.0000 </r>
        <r>  -13.2170    1.0000 </r>
        <r>   -1.2672    0.0000 </r>
        <r>    0.3805    0.0000 </r>
        <r>    0.3903    0.0000 </r>
        <r>    0.4889    0.0000 </r>
        <r>    0.4928    0.0000 </r>
        <r>    0.4964    0.0000 </r>
        <r>    0.7860    0.0000 </r>
        <r>    0.7884    0.0000 </r>
        <r>    0.8225    0.0000 </r>
        <r>    1.2632    0.0000 </r>
        <r>    2.4654    0.0000 </r>
        <r>    2.4678    0.0000 </r>
        <r>    2.8715    0.0000 </r>
        <r>    2.8724    0.0000 </r>
        <r>    2.9494    0.0000 </r>
        <r>    2.9879    0.0000 </r>
        <r>    3.2562    0.0000 </r>
        <r>    3.2632    0.0000 </r>
        <r>    3.4086    0.0000 </r>
        <r>    3.6367    0.0000 </r>
        <r>    3.6414    0.0000 </r>
        <r>    3.6611    0.0000 </r>
        <r>    3.6675    0.0000 </r>
        <r>    3.7171    0.0000 </r>
        <r>    4.1239    0.0000 </r>
        <r>    4.6850    0.0000 </r>
        <r>    4.7571    0.0000 </r>
        <r>    4.9150    0.0000 </r>
        <r>    4.9670    0.0000 </r>
        <r>    4.9916    0.0000 </r>
        <r>    6.0375    0.0000 </r>
        <r>    6.3208    0.0000 </r>
       </set>
      </set>
     </set>
    </array>
   </eigenvalues>
   <array>
    <dimension dim="1">ion</dimension>
    <dimension dim="2">band</dimension>
    <dimension dim="3">kpoint</dimension>
    <dimension dim="4">spin</dimension>
    <field>    s</field>
    <field>   py</field>
    <field>   pz</field>
    <field>   px</field>
    <field>  dxy</field>
    <field>  dyz</field>
    <field>  dz2</field>
    <field>  dxz</field>
    <field>x2-y2</field>
    <set>
     <set comment="spin1">
      <set comment="kpoint 1">
       <set comment="band 1">
        <r>  0.9124  0.0000  0.0000  0.0000  0.0000  0.0000  0.0000  0.0000  0.0000 </r>
       </set>
       <set comment="band 2">
        <r>  0.0000  0.5410  0.2362  0.0003  0.0000  0.0000  0.0000  0.0000  0.0000 </r>
       </set>
       <set comment="band 3">
        <r>  0.0000  0.2254  0.5248  0.0273  0.0000  0.0000  0.0000  0.0000  0.0000 </r>
       </set>
       <set comment="band 4">
        <r>  0.0000  0.0111  0.0165  0.7499  0.0000  0.0000  0.0000  0.0000  0.0000 </r>
       </set>
       <set comment="band 5">
        <r>  0.0322  0.0000  0.0000  0.0000  0.0000  0.0000  0.0000  0.0000  0.0000 </r>
       </set>
       <set comment="band 6">
        <r>  0.0000  0.0000  0.0000  0.0000  0.0000  0.0000  0.0326  0.0000  0.0547 </r>
       </set>
       <set comment="band 7">
        <r>  0.0000  0.0002  0.0001  0.0000  0.0000  0.0000  0.0507  0.0000  0.0306 </r>
       </set>
       <set comment="band 8">
        <r>  0.0000  0.0062  0.0114  0.0098  0.0000  0.0008  0.0000  0.0016  0.0000 </r>
       </set>
       <set comment="band 9">
        <r>  0.0000  0.0089  0.0019  0.0160  0.0063  0.0002  0.0000  0.0001  0.0000 </r>
       </set>
       <set comment="band 10">
        <r>  0.0000  0.0109  0.0087  0.0008  0.0164  0.0263  0.0000  0.0001  0.0001 </r>
       </set>
       <set comment="band 11">
        <r>  0.0000  0.0013  0.0045  0.0006  0.0132  0.0798  0.0000  0.0206  0.0000 </r>
       </set>
       <set comment="band 12">
        <r>  0.0000  0.0006  0.0006  0.0008  0.0099  0.0070  0.0000  0.1239  0.0000 </r>
       </set>
       <set comment="band 13">
        <r>  0.0000  0.0000  0.0003  0.0007  0.1050  0.0371  0.0000  0.0033  0.0000 </r>
       </set>
       <set comment="band 14">
        <r>  0.0209  0.0000  0.0000  0.0001  0.0002  0.0000  0.0000  0.0000  0.0000 </r>
       </set>
       <set comment="band 15">
        <r>  0.0000  0.0000  0.0000  0.0000  0.0000  0.0000  0.0284  0.0000  0.0885 </r>
       </set>
       <set comment="band 16">
        <r>  0.0000  0.0000  0.0000  0.0000  0.0000  0.0000  0.0844  0.0000  0.0272 </r>
       </set>
       <set comment="band 17">
        <r>  0.0000  0.0106  0.0020  0.0012  0.0000  0.0002  0.0001  0.0000  0.0000 </r>
       </set>
       <set comment="band 18">
        <r>  0.0000  0.0000  0.0000  0.0074  0.0001  0.0000  0.0000  0.0000  0.0000 </r>
       </set>
       <set comment="band 19">
        <r>  0.0003  0.0006  0.0070  0.0023  0.0000  0.0006  0.0001  0.0006  0.0001 </r>
       </set>
       <set comment="band 20">
        <r>  0.0004  0.0009  0.0048  0.0017  0.0000  0.0004  0.0024  0.0014  0.0004 </r>
       </set>
       <set comment="band 21">
        <r>  0.0085  0.0020  0.0024  0.0009  0.0002  0.0000  0.0000  0.0002  0.0003 </r>
       </set>
       <set comment="band 22">
        <r>  0.0082  0.0020  0.0001  0.0012  0.0002  0.0003  0.0001  0.0001  0.0003 </r>
       </set>
       <set comment="band 23">
        <r>  0.0001  0.0004  0.0004  0.0023  0.0002  0.0035  0.0081  0.0008  0.0161 </r>
       </set>
       <set comment="band 24">
        <r>  0.0001  0.0010  0.0008  0.0006  0.0001  0.0000  0.0038  0.0053  0.0356 </r>
       </set>
       <set comment="band 25">
        <r>  0.0000  0.0006  0.0002  0.0000  0.0000  0.0103  0.0415  0.0072  0.0007 </r>
       </set>
       <set comment="band 26">
        <r>  0.0000  0.0001  0.0005  0.0002  0.0036  0.0546  0.0062  0.0022  0.0003 </r>
       </set>
       <set comment="band 27">
        <r>  0.0000  0.0003  0.0007  0.0000  0.0016  0.0060  0.0005  0.0546  0.0053 </r>
       </set>
       <set comment="band 28">
        <r>  0.0000  0.0001  0.0002  0.0000  0.0752  0.0019  0.0006  0.0035  0.0001 </r>
       </set>
       <set comment="band 29">
        <r>  0.0000  0.0000  0.0001  0.0001  0.0001  0.0002  0.0001  0.0002  0.0000 </r>
       </set>
       <set comment="band 30">
        <r>  0.0011  0.0005  0.0002  0.0001  0.0001  0.0011  0.0005  0.0008  0.0006 </r>
       </set>
       <set comment="band 31">
        <r>  0.0001  0.0004  0.0005  0.0000  0.0114  0.0000  0.0004  0.0415  0.0000 </r>
       </set>
       <set comment="band 32">
        <r>  0.0022  0.0000  0.0001  0.0001  0.0004  0.0009  0.0000  0.0005  0.0000 </r>
       </set>
       <set comment="band 33">
        <r>  0.0000  0.0000  0.0000  0.0002  0.0009  0.0729  0.0000  0.0014  0.0000 </r>
       </set>
       <set comment="band 34">
        <r>  0.0000  0.0000  0.0000  0.0000  0.0630  0.0020  0.0000  0.0078  0.0000 </r>
       </set>
       <set comment="band 35">
        <r>  0.0014  0.0013  0.0007  0.0003  0.0005  0.0021  0.0003  0.0089  0.0003 </r>
       </set>
       <set comment="band 36">
        <r>  0.0089  0.0001  0.0007  0.0003  0.0007  0.0008  0.0013  0.0039  0.0001 </r>
       </set>
      </set>
     </set>
     <set comment="spin2">
      <set comment="kpoint 1">
       <set comment="band 1">
        <r>  0.9108  0.0000  0.0000  0.0000  0.0000  0.0000  0.0000  0.0000  0.0000 </r>
       </set>
       <set comment="band 2">
        <r>  0.0000  0.0384  0.0826  0.6610  0.0000  0.0000  0.0000  0.0000  0.0000 </r>
       </set>
       <set comment="band 3">
        <r>  0.0000  0.6557  0.0508  0.0755  0.0000  0.0000  0.0000  0.0000  0.0000 </r>
       </set>
       <set comment="band 4">
        <r>  0.0000  0.0879  0.6487  0.0454  0.0000  0.0000  0.0000  0.0000  0.0000 </r>
       </set>
       <set comment="band 5">
        <r>  0.0413  0.0000  0.0000  0.0000  0.0000  0.0000  0.0000  0.0000  0.0000 </r>
       </set>
       <set comment="band 6">
        <r>  0.0000  0.0000  0.0000  0.0000  0.0000  0.0009  0.1006  0.0001  0.0424 </r>
       </set>
       <set comment="band 7">
        <r>  0.0000  0.0000  0.0000  0.0001  0.0022  0.0046  0.0415  0.0000  0.0931 </r>
       </set>
       <set comment="band 8">
        <r>  0.0000  0.0008  0.0000  0.0001  0.1717  0.0070  0.0007  0.0008  0.0019 </r>
       </set>
       <set comment="band 9">
        <r>  0.0000  0.0002  0.0002  0.0003  0.0017  0.0679  0.0000  0.1096  0.0009 </r>
       </set>
       <set comment="band 10">
        <r>  0.0000  0.0003  0.0005  0.0000  0.0067  0.0999  0.0001  0.0669  0.0013 </r>
       </set>
       <set comment="band 11">
        <r>  0.0000  0.0022  0.0118  0.0201  0.0006  0.0000  0.0000  0.0011  0.0000 </r>
       </set>
       <set comment="band 12">
        <r>  0.0001  0.0280  0.0004  0.0047  0.0015  0.0002  0.0000  0.0012  0.0003 </r>
       </set>
       <set comment="band 13">
        <r>  0.0004  0.0026  0.0193  0.0090  0.0013  0.0006  0.0000  0.0011  0.0001 </r>
       </set>
       <set comment="band 14">
        <r>  0.0148  0.0000  0.0004  0.0004  0.0000  0.0000  0.0000  0.0000  0.0000 </r>
       </set>
       <set comment="band 15">
        <r>  0.0000  0.0000  0.0000  0.0000  0.0000  0.0000  0.0659  0.0000  0.0210 </r>
       </set>
       <set comment="band 16">
        <r>  0.0000  0.0000  0.0000  0.0000  0.0000  0.0000  0.0208  0.0000  0.0659 </r>
       </set>
       <set comment="band 17">
        <r>  0.0019  0.0009  0.0007  0.0138  0.0002  0.0000  0.0001  0.0001  0.0000 </r>
       </set>
       <set comment="band 18">
        <r>  0.0000  0.0031  0.0143  0.0002  0.0003  0.0009  0.0000  0.0014  0.0000 </r>
       </set>
       <set comment="band 19">
        <r>  0.0077  0.0065  0.0012  0.0035  0.0000  0.0001  0.0000  0.0000  0.0002 </r>
       </set>
       <set comment="band 20">
        <r>  0.0096  0.0072  0.0018  0.0000  0.0004  0.0002  0.0000  0.0000  0.0001 </r>
       </set>
       <set comment="band 21">
        <r>  0.0000  0.0001  0.0006  0.0003  0.0001  0.0005  0.0001  0.0008  0.0004 </r>
       </set>
       <set comment="band 22">
        <r>  0.0000  0.0001  0.0007  0.0004  0.0000  0.0001  0.0001  0.0026  0.0001 </r>
       </set>
       <set comment="band 23">
        <r>  0.0000  0.0001  0.0000  0.0000  0.0001  0.0007  0.0114  0.0047  0.0000 </r>
       </set>
       <set comment="band 24">
        <r>  0.0001  0.0002  0.0011  0.0000  0.0000  0.0052  0.0002  0.0523  0.0013 </r>
       </set>
       <set comment="band 25">
        <r>  0.0000  0.0002  0.0000  0.0000  0.0148  0.0518  0.0003  0.0018  0.0030 </r>
       </set>
       <set comment="band 26">
        <r>  0.0000  0.0001  0.0000  0.0000  0.0034  0.0005  0.0309  0.0001  0.0138 </r>
       </set>
       <set comment="band 27">
        <r>  0.0000  0.0000  0.0000  0.0000  0.0548  0.0156  0.0009  0.0002  0.0033 </r>
       </set>
       <set comment="band 28">
        <r>  0.0000  0.0000  0.0000  0.0000  0.0000  0.0036  0.0145  0.0027  0.0388 </r>
       </set>
       <set comment="band 29">
        <r>  0.0001  0.0001  0.0000  0.0001  0.0031  0.0001  0.0003  0.0009  0.0002 </r>
       </set>
       <set comment="band 30">
        <r>  0.0001  0.0024  0.0004  0.0001  0.0008  0.0026  0.0000  0.0015  0.0000 </r>
       </set>
       <set comment="band 31">
        <r>  0.0001  0.0001  0.0003  0.0020  0.0020  0.0040  0.0001  0.0002  0.0000 </r>
       </set>
       <set comment="band 32">
        <r>  0.0000  0.0006  0.0003  0.0001  0.0340  0.0014  0.0000  0.0469  0.0003 </r>
       </set>
       <set comment="band 33">
        <r>  0.0072  0.0000  0.0002  0.0002  0.0018  0.0002  0.0000  0.0006  0.0000 </r>
       </set>
       <set comment="band 34">
        <r>  0.0000  0.0002  0.0001  0.0002  0.0031  0.0644  0.0000  0.0005  0.0000 </r>
       </set>
       <set comment="band 35">
        <r>  0.0012  0.0001  0.0001  0.0000  0.0001  0.0017  0.0090  0.0012  0.0000 </r>
       </set>
       <set comment="band 36">
        <r>  0.0017  0.0001  0.0010  0.0000  0.0020  0.0003  0.0002  0.0019  0.0068 </r>
       </set>
      </set>
     </set>
    </set>
   </array>
  </projected>
 </calculation>
 <structure name="finalpos" >
  <crystal>
   <varray name="basis" >
    <v>      10.00000000       0.00000000       0.00000000 </v>
    <v>       0.00000000      10.00000000       0.00000000 </v>
    <v>       0.00000000       0.00000000      10.00000000 </v>
   </varray>
   <i name="volume">   1000.00000000 </i>
   <varray name="rec_basis" >
    <v>       0.10000000       0.00000000       0.00000000 </v>
    <v>       0.00000000       0.10000000       0.00000000 </v>
    <v>       0.00000000       0.00000000       0.10000000 </v>
   </varray>
  </crystal>
  <varray name="positions" >
   <v>       0.50000000       0.50000000       0.50000000 </v>
  </varray>
 </structure>
</modeling>
