       N       E                     dE             d eps       ncg     rms          ort
DAV:   1     0.112680319998E+03    0.11268E+03   -0.49155E+03    36   0.284E+02
DAV:   2     0.163656339194E+02   -0.96315E+02   -0.96060E+02    36   0.692E+01
DAV:   3     0.108099584058E+01   -0.15285E+02   -0.15215E+02    36   0.462E+01
DAV:   4    -0.123197921810E+01   -0.23130E+01   -0.21946E+01    36   0.162E+01
DAV:   5    -0.173930253029E+01   -0.50732E+00   -0.50036E+00    36   0.645E+00
SDA:   6    -0.378852213430E+01   -0.20492E+01   -0.19577E+01    36   0.489E+01 0.000E+00
DMP:   7    -0.226218533523E+01    0.15263E+01   -0.28211E+02    36   0.752E+02-0.123E+02
DMP:   8     0.459439980880E+02    0.48206E+02   -0.72409E+03    36   0.191E+04-0.268E+03
DMP:   9     0.331901026515E+03    0.28596E+03   -0.22857E+03    36   0.104E+04-0.124E+04
DMP:  10     0.127731494108E+03   -0.20417E+03   -0.19092E+03    36   0.555E+03-0.203E+03
DMP:  11     0.100957290674E+03   -0.26774E+02   -0.24151E+03    36   0.690E+03-0.225E+03
DMP:  12     0.985009591658E+02   -0.24563E+01   -0.40882E+03    36   0.113E+04-0.271E+03
DMP:  13     0.138945007779E+03    0.40444E+02   -0.66033E+03    36   0.193E+04-0.724E+03
DMP:  14     0.101749454812E+03   -0.37196E+02   -0.65872E+03    36   0.185E+04-0.535E+03
DMP:  15     0.204613316206E+03    0.10286E+03   -0.56172E+03    36   0.178E+04-0.978E+03
DMP:  16     0.644491241817E+02   -0.14016E+03   -0.15266E+03    36   0.411E+03-0.774E+02
DMP:  17     0.453401727372E+02   -0.19109E+02   -0.19473E+03    36   0.556E+03-0.180E+03
DMP:  18     0.900430690044E+02    0.44703E+02   -0.19431E+03    36   0.694E+03-0.545E+03
DMP:  19     0.306963322959E+02   -0.59347E+02   -0.75243E+02    36   0.226E+03-0.980E+02
DMP:  20     0.343686900069E+02    0.36724E+01   -0.97128E+02    36   0.316E+03-0.191E+03
DMP:  21     0.162746518277E+02   -0.18094E+02   -0.48417E+02    36   0.164E+03-0.113E+03
DMP:  22     0.135499560627E+02   -0.27247E+01   -0.42450E+02    36   0.143E+03-0.971E+02
DMP:  23     0.701136127126E+01   -0.65386E+01   -0.18113E+02    36   0.706E+02-0.662E+02
DMP:  24     0.837188288712E+00   -0.61742E+01   -0.24956E+01    36   0.111E+02-0.127E+02
DMP:  25    -0.299649234238E+00   -0.11368E+01   -0.96881E+00    36   0.260E+01-0.461E+00
DMP:  26    -0.605592271728E+00   -0.30594E+00   -0.61989E+00    36   0.186E+01-0.805E+00
DMP:  27    -0.884661619152E+00   -0.27907E+00   -0.17380E+00    36   0.489E+00-0.142E+00
DMP:  28    -0.997353257874E+00   -0.11269E+00   -0.10783E+00    36   0.209E+00 0.158E+00
DMP:  29    -0.154841999631E+01   -0.55107E+00   -0.18364E+01    36   0.317E+01 0.371E+01
DMP:  30    -0.224282387234E+01   -0.69440E+00   -0.51754E-01    36   0.805E-01 0.128E+00
DMP:  31    -0.301610610967E+01   -0.77328E+00   -0.53493E+01    36   0.972E+01 0.957E+01
DMP:  32    -0.456650329350E+01   -0.15504E+01   -0.27395E-01    36   0.457E-01 0.597E-01
DMP:  33    -0.459031874818E+01   -0.23815E-01   -0.19588E-01    36   0.296E-01 0.508E-01
DMP:  34    -0.460740151447E+01   -0.17083E-01   -0.13050E-01    36   0.187E-01 0.365E-01
DMP:  35    -0.461883208343E+01   -0.11431E-01   -0.85316E-02    36   0.119E-01 0.246E-01
DMP:  36    -0.462630842412E+01   -0.74763E-02   -0.55013E-02    36   0.761E-02 0.161E-01
DMP:  37    -0.463113628138E+01   -0.48279E-02   -0.35596E-02    36   0.493E-02 0.104E-01
DMP:  38    -0.463426019204E+01   -0.31239E-02   -0.23203E-02    36   0.323E-02 0.673E-02
DMP:  39    -0.463629067014E+01   -0.20305E-02   -0.15175E-02    36   0.213E-02 0.436E-02
DMP:  40    -0.463760395058E+01   -0.13133E-02   -0.10091E-02    36   0.146E-02 0.278E-02
DMP:  41    -0.463844619190E+01   -0.84224E-03   -0.68666E-03    36   0.107E-02 0.169E-02
DMP:  42    -0.463898289416E+01   -0.53670E-03   -0.45879E-03    36   0.777E-03 0.969E-03
DMP:  43    -0.463931856734E+01   -0.33567E-03   -0.29656E-03    36   0.538E-03 0.533E-03
DMP:  44    -0.463952214958E+01   -0.20358E-03   -0.19541E-03    36   0.382E-03 0.279E-03
DMP:  45    -0.463964106324E+01   -0.11891E-03   -0.13549E-03    36   0.298E-03 0.107E-03
DMP:  46    -0.463971612204E+01   -0.75059E-04   -0.81204E-04    36   0.188E-03 0.385E-04
DMP:  47    -0.463976371883E+01   -0.47597E-04   -0.43816E-04    36   0.960E-04 0.355E-04
   1 F= -.46397637E+01 E0= -.46397637E+01  d E =-.463976E+01  mag=     5.0000
