<?xml version="1.0" encoding="ISO-8859-1"?>
<modeling>
 <generator>
  <i name="program" type="string">vasp </i>
  <i name="version" type="string">5.4.4.18Apr17-6-g9f103f2a35  </i>
  <i name="subversion" type="string">(build Nov 08 2019 15:19:53) gamma-only         parallel </i>
  <i name="platform" type="string">LinuxIFC </i>
  <i name="date" type="string">2020 11 30 </i>
  <i name="time" type="string">09:30:45 </i>
 </generator>
 <incar>
  <i type="string" name="PREC">accurate</i>
  <i type="string" name="ALGO"> D</i>
  <i type="int" name="ISPIN">     2</i>
  <i type="int" name="NELM">   300</i>
  <i type="int" name="IBRION">     2</i>
  <i name="EDIFF">      0.00005000</i>
  <i type="int" name="NSW">    99</i>
  <i type="int" name="ISIF">     2</i>
  <i name="ENCUT">    520.00000000</i>
  <v name="MAGMOM">      0.60000000</v>
  <i type="string" name="LREAL"> Auto</i>
  <i type="int" name="ISMEAR">     0</i>
  <i name="SIGMA">      0.05000000</i>
  <i type="logical" name="LWAVE"> F  </i>
  <i type="int" name="LORBIT">    11</i>
  <i type="logical" name="LASPH"> T  </i>
  <v type="int" name="KPOINT_BSE">    -1     0     0     0</v>
  <i type="int" name="NELM">   300</i>
  <i type="logical" name="LASPH"> T  </i>
 </incar>
 <structure name="primitive_cell" >
  <crystal>
   <varray name="basis" >
    <v>      10.00000000       0.00000000       0.00000000 </v>
    <v>       0.00000000      10.00000000       0.00000000 </v>
    <v>       0.00000000       0.00000000      10.00000000 </v>
   </varray>
   <i name="volume">   1000.00000000 </i>
   <varray name="rec_basis" >
    <v>       0.10000000       0.00000000       0.00000000 </v>
    <v>       0.00000000       0.10000000       0.00000000 </v>
    <v>       0.00000000       0.00000000       0.10000000 </v>
   </varray>
  </crystal>
  <varray name="positions" >
   <v>      -0.50000000      -0.50000000      -0.50000000 </v>
  </varray>
 </structure>
 <varray name="primitive_index" >
  <v type="int" >        1 </v>
 </varray>
 <kpoints>
  <generation param="Gamma">
   <v type="int" name="divisions">       1        1        1 </v>
   <v name="usershift">      0.00000000       0.00000000       0.00000000 </v>
   <v name="genvec1">      1.00000000       0.00000000       0.00000000 </v>
   <v name="genvec2">      0.00000000       1.00000000       0.00000000 </v>
   <v name="genvec3">      0.00000000       0.00000000       1.00000000 </v>
   <v name="shift">      0.00000000       0.00000000       0.00000000 </v>
  </generation>
  <varray name="kpointlist" >
   <v>       0.00000000       0.00000000       0.00000000 </v>
  </varray>
  <varray name="weights" >
   <v>       1.00000000 </v>
  </varray>
 </kpoints>
 <parameters>
  <separator name="general" >
   <i type="string" name="SYSTEM">unknown system</i>
   <i type="logical" name="LCOMPAT"> F  </i>
  </separator>
  <separator name="electronic" >
   <i type="string" name="PREC">accura</i>
   <i name="ENMAX">    520.00000000</i>
   <i name="ENAUG">    370.28000000</i>
   <i name="EDIFF">      0.00005000</i>
   <i type="int" name="IALGO">    53</i>
   <i type="int" name="IWAVPR">    11</i>
   <i type="int" name="NBANDS">    36</i>
   <i name="NELECT">     13.00000000</i>
   <i type="int" name="TURBO">     0</i>
   <i type="int" name="IRESTART">     0</i>
   <i type="int" name="NREBOOT">     0</i>
   <i type="int" name="NMIN">     0</i>
   <i name="EREF">      0.00000000</i>
   <separator name="electronic smearing" >
    <i type="int" name="ISMEAR">     0</i>
    <i name="SIGMA">      0.05000000</i>
    <i name="KSPACING">      0.50000000</i>
    <i type="logical" name="KGAMMA"> T  </i>
   </separator>
   <separator name="electronic projectors" >
    <i type="logical" name="LREAL"> T  </i>
    <v name="ROPT">     -0.00025000</v>
    <i type="int" name="LMAXPAW">  -100</i>
    <i type="int" name="LMAXMIX">     2</i>
    <i type="logical" name="NLSPLINE"> F  </i>
   </separator>
   <separator name="electronic startup" >
    <i type="int" name="ISTART">     0</i>
    <i type="int" name="ICHARG">     2</i>
    <i type="int" name="INIWAV">     1</i>
   </separator>
   <separator name="electronic spin" >
    <i type="int" name="ISPIN">     2</i>
    <i type="logical" name="LNONCOLLINEAR"> F  </i>
    <v name="MAGMOM">      0.60000000</v>
    <i name="NUPDOWN">     -1.00000000</i>
    <i type="logical" name="LSORBIT"> F  </i>
    <v name="SAXIS">      0.00000000      0.00000000      1.00000000</v>
    <i type="logical" name="LSPIRAL"> F  </i>
    <v name="QSPIRAL">      0.00000000      0.00000000      0.00000000</v>
    <i type="logical" name="LZEROZ"> F  </i>
   </separator>
   <separator name="electronic exchange-correlation" >
    <i type="logical" name="LASPH"> T  </i>
    <i type="logical" name="LMETAGGA"> F  </i>
   </separator>
   <separator name="electronic convergence" >
    <i type="int" name="NELM">   300</i>
    <i type="int" name="NELMDL">    -5</i>
    <i type="int" name="NELMIN">     2</i>
    <i name="ENINI">    520.00000000</i>
    <separator name="electronic convergence detail" >
     <i type="logical" name="LDIAG"> T  </i>
     <i type="logical" name="LSUBROT"> F  </i>
     <i name="WEIMIN">      0.00100000</i>
     <i name="EBREAK">      0.00000035</i>
     <i name="DEPER">      0.30000000</i>
     <i type="int" name="NRMM">     4</i>
     <i name="TIME">      0.40000000</i>
    </separator>
   </separator>
   <separator name="electronic mixer" >
    <i name="AMIX">      0.40000000</i>
    <i name="BMIX">      1.00000000</i>
    <i name="AMIN">      0.10000000</i>
    <i name="AMIX_MAG">      1.60000000</i>
    <i name="BMIX_MAG">      1.00000000</i>
    <separator name="electronic mixer details" >
     <i type="int" name="IMIX">     4</i>
     <i type="logical" name="MIXFIRST"> F  </i>
     <i type="int" name="MAXMIX">   -45</i>
     <i name="WC">    100.00000000</i>
     <i type="int" name="INIMIX">     1</i>
     <i type="int" name="MIXPRE">     1</i>
     <i type="int" name="MREMOVE">     5</i>
    </separator>
   </separator>
   <separator name="electronic dipolcorrection" >
    <i type="logical" name="LDIPOL"> F  </i>
    <i type="logical" name="LMONO"> F  </i>
    <i type="int" name="IDIPOL">     0</i>
    <i name="EPSILON">      1.00000000</i>
    <v name="DIPOL">   -100.00000000   -100.00000000   -100.00000000</v>
    <i name="EFIELD">      0.00000000</i>
   </separator>
  </separator>
  <separator name="grids" >
   <i type="int" name="NGX">    80</i>
   <i type="int" name="NGY">    80</i>
   <i type="int" name="NGZ">    80</i>
   <i type="int" name="NGXF">   160</i>
   <i type="int" name="NGYF">   160</i>
   <i type="int" name="NGZF">   160</i>
   <i type="logical" name="ADDGRID"> F  </i>
  </separator>
  <separator name="ionic" >
   <i type="int" name="NSW">    99</i>
   <i type="int" name="IBRION">     2</i>
   <i type="int" name="MDALGO">     0</i>
   <i type="int" name="ISIF">     2</i>
   <i name="PSTRESS">      0.00000000</i>
   <i name="EDIFFG">      0.00050000</i>
   <i type="int" name="NFREE">     1</i>
   <i name="POTIM">      0.50000000</i>
   <i name="SMASS">     -3.00000000</i>
   <i name="SCALEE">      1.00000000</i>
  </separator>
  <separator name="ionic md" >
   <i name="TEBEG">      0.00010000</i>
   <i name="TEEND">      0.00010000</i>
   <i type="int" name="NBLOCK">     1</i>
   <i type="int" name="KBLOCK">    99</i>
   <i type="int" name="NPACO">   256</i>
   <i name="APACO">     16.00000000</i>
  </separator>
  <separator name="symmetry" >
   <i type="int" name="ISYM">     2</i>
   <i name="SYMPREC">      0.00001000</i>
  </separator>
  <separator name="dos" >
   <i type="int" name="LORBIT">    11</i>
   <v name="RWIGS">     -1.00000000</v>
   <i type="int" name="NEDOS">   301</i>
   <i name="EMIN">     10.00000000</i>
   <i name="EMAX">    -10.00000000</i>
   <i name="EFERMI">      0.00000000</i>
  </separator>
  <separator name="writing" >
   <i type="int" name="NWRITE">     2</i>
   <i type="logical" name="LWAVE"> F  </i>
   <i type="logical" name="LDOWNSAMPLE"> F  </i>
   <i type="logical" name="LCHARG"> T  </i>
   <i type="logical" name="LPARD"> F  </i>
   <i type="logical" name="LVTOT"> F  </i>
   <i type="logical" name="LVHAR"> F  </i>
   <i type="logical" name="LELF"> F  </i>
   <i type="logical" name="LOPTICS"> F  </i>
   <v name="STM">      0.00000000      0.00000000      0.00000000      0.00000000      0.00000000      0.00000000      0.00000000</v>
  </separator>
  <separator name="performance" >
   <i type="int" name="NPAR">    36</i>
   <i type="int" name="NSIM">     4</i>
   <i type="int" name="NBLK">    -1</i>
   <i type="logical" name="LPLANE"> T  </i>
   <i type="logical" name="LSCALAPACK"> T  </i>
   <i type="logical" name="LSCAAWARE"> F  </i>
   <i type="logical" name="LSCALU"> F  </i>
   <i type="logical" name="LASYNC"> F  </i>
   <i type="logical" name="LORBITALREAL"> F  </i>
  </separator>
  <separator name="miscellaneous" >
   <i type="int" name="IDIOT">     3</i>
   <i type="int" name="ISPECIAL">     0</i>
   <i type="logical" name="LMUSIC"> F  </i>
   <v name="POMASS">    186.20700000</v>
   <v name="DARWINR">      0.00000000</v>
   <v name="DARWINV">      1.00000000</v>
   <i type="logical" name="LCORR"> T  </i>
  </separator>
  <i type="logical" name="GGA_COMPAT"> T  </i>
  <i type="logical" name="LBERRY"> F  </i>
  <i type="int" name="ICORELEVEL">     0</i>
  <i type="logical" name="LDAU"> F  </i>
  <i type="int" name="I_CONSTRAINED_M">     0</i>
  <separator name="electronic exchange-correlation" >
   <i type="string" name="GGA">--</i>
   <i type="int" name="VOSKOWN">     0</i>
   <i type="logical" name="LHFCALC"> F  </i>
   <i type="string" name="PRECFOCK"></i>
   <i type="logical" name="LSYMGRAD"> F  </i>
   <i type="logical" name="LHFONE"> F  </i>
   <i type="logical" name="LRHFCALC"> F  </i>
   <i type="logical" name="LTHOMAS"> F  </i>
   <i type="logical" name="LMODELHF"> F  </i>
   <i name="ENCUT4O">     -1.00000000</i>
   <i type="int" name="EXXOEP">     0</i>
   <i type="int" name="FOURORBIT">     0</i>
   <i name="AEXX">      0.00000000</i>
   <i name="HFALPHA">      0.00000000</i>
   <i name="MCALPHA">      0.00000000</i>
   <i name="ALDAX">      1.00000000</i>
   <i name="AGGAX">      1.00000000</i>
   <i name="ALDAC">      1.00000000</i>
   <i name="AGGAC">      1.00000000</i>
   <i type="int" name="NKREDX">     1</i>
   <i type="int" name="NKREDY">     1</i>
   <i type="int" name="NKREDZ">     1</i>
   <i type="logical" name="SHIFTRED"> F  </i>
   <i type="logical" name="ODDONLY"> F  </i>
   <i type="logical" name="EVENONLY"> F  </i>
   <i type="int" name="LMAXFOCK">     0</i>
   <i type="int" name="NMAXFOCKAE">     0</i>
   <i type="logical" name="LFOCKAEDFT"> F  </i>
   <i name="HFSCREEN">      0.00000000</i>
   <i name="HFSCREENC">      0.00000000</i>
   <i type="int" name="NBANDSGWLOW">     0</i>
  </separator>
  <separator name="vdW DFT" >
   <i type="logical" name="LUSE_VDW"> F  </i>
   <i name="Zab_VDW">     -0.84910000</i>
   <i name="PARAM1">      0.12340000</i>
   <i name="PARAM2">      1.00000000</i>
   <i name="PARAM3">      0.00000000</i>
  </separator>
  <separator name="model GW" >
   <i type="int" name="MODEL_GW">     0</i>
   <i name="MODEL_EPS0">    600.00000000</i>
   <i name="MODEL_ALPHA">      1.00000000</i>
  </separator>
  <separator name="linear response parameters" >
   <i type="logical" name="LEPSILON"> F  </i>
   <i type="logical" name="LRPA"> F  </i>
   <i type="logical" name="LNABLA"> F  </i>
   <i type="logical" name="LVEL"> F  </i>
   <i type="int" name="KINTER">     0</i>
   <i name="CSHIFT">      0.10000000</i>
   <i name="OMEGAMAX">     -1.00000000</i>
   <i name="DEG_THRESHOLD">      0.00200000</i>
   <i name="RTIME">     -0.10000000</i>
   <i name="WPLASMAI">      0.00000000</i>
   <v name="DFIELD">      0.00000000      0.00000000      0.00000000</v>
   <v name="WPLASMA">      0.00000000      0.00000000      0.00000000      0.00000000      0.00000000      0.00000000      0.00000000      0.00000000      0.00000000</v>
  </separator>
  <separator name="orbital magnetization" >
   <i type="logical" name="NUCIND"> F  </i>
   <v name="MAGPOS">      0.00000000      0.00000000      0.00000000</v>
   <i type="logical" name="LNICSALL"> T  </i>
   <i type="logical" name="ORBITALMAG"> F  </i>
   <i type="logical" name="LMAGBLOCH"> F  </i>
   <i type="logical" name="LCHIMAG"> F  </i>
   <i type="logical" name="LGAUGE"> T  </i>
   <i type="int" name="MAGATOM">     0</i>
   <v name="MAGDIPOL">      0.00000000      0.00000000      0.00000000</v>
   <v name="AVECCONST">      0.00000000      0.00000000      0.00000000</v>
  </separator>
  <separator name="response functions" >
   <i type="logical" name="LADDER"> F  </i>
   <i type="logical" name="LRPAFORCE"> F  </i>
   <i type="logical" name="LFXC"> F  </i>
   <i type="logical" name="LHARTREE"> T  </i>
   <i type="int" name="IBSE">     0</i>
   <v type="int" name="KPOINT">    -1     0     0     0</v>
   <i type="logical" name="LTCTE"> F  </i>
   <i type="logical" name="LTETE"> F  </i>
   <i type="logical" name="LTRIPLET"> F  </i>
   <i type="logical" name="LFXCEPS"> F  </i>
   <i type="logical" name="LFXHEG"> F  </i>
   <i type="int" name="NATURALO">     2</i>
   <i type="logical" name="L2ORDER"> F  </i>
   <i type="logical" name="LMP2LT"> F  </i>
   <i type="logical" name="LUSEW"> F  </i>
   <i name="ENCUTGW">     -2.00000000</i>
   <i name="ENCUTGWSOFT">     -2.00000000</i>
   <i name="ENCUTLF">     -1.00000000</i>
   <i type="int" name="LMAXMP2">    -1</i>
   <i name="SCISSOR">      0.00000000</i>
   <i type="int" name="NOMEGA">     0</i>
   <i type="int" name="NOMEGAR">     0</i>
   <i type="int" name="NBANDSGW">    -1</i>
   <i type="int" name="NBANDSO">    -1</i>
   <i type="int" name="NBANDSV">    -1</i>
   <i type="int" name="NELM">   300</i>
   <i type="int" name="NELMHF">     1</i>
   <i type="int" name="DIM">     3</i>
   <i type="int" name="ANTIRES">     0</i>
   <i name="OMEGAMAX">    -30.00000000</i>
   <i name="OMEGAMIN">    -30.00000000</i>
   <i name="OMEGATL">   -200.00000000</i>
   <i type="int" name="OMEGAGRID">   140</i>
   <i name="CSHIFT">     -0.10000000</i>
   <i type="logical" name="SELFENERGY"> F  </i>
   <i type="logical" name="LSPECTRAL"> F  </i>
   <i type="logical" name="LSPECTRALGW"> F  </i>
   <i type="logical" name="LSINGLES"> F  </i>
   <i type="logical" name="LFERMIGW"> F  </i>
   <i type="logical" name="ODDONLYGW"> F  </i>
   <i type="logical" name="EVENONLYGW"> F  </i>
   <i type="int" name="NKREDLFX">     1</i>
   <i type="int" name="NKREDLFY">     1</i>
   <i type="int" name="NKREDLFZ">     1</i>
   <i type="int" name="MAXMEM">  2800</i>
   <i type="int" name="TELESCOPE">     0</i>
   <i type="int" name="TAUPAR">     1</i>
   <i type="int" name="OMEGAPAR">    -1</i>
   <i name="LAMBDA">      1.00000000</i>
  </separator>
  <separator name="External order field" >
   <i name="OFIELD_KAPPA">      0.00000000</i>
   <v name="OFIELD_K">      0.00000000      0.00000000      0.00000000</v>
   <i name="OFIELD_Q6_NEAR">      0.00000000</i>
   <i name="OFIELD_Q6_FAR">      0.00000000</i>
   <i name="OFIELD_A">      0.00000000</i>
  </separator>
 </parameters>
 <atominfo>
  <atoms>       1 </atoms>
  <types>       1 </types>
  <array name="atoms" >
   <dimension dim="1">ion</dimension>
   <field type="string">element</field>
   <field type="int">atomtype</field>
   <set>
    <rc><c>Re</c><c>   1</c></rc>
   </set>
  </array>
  <array name="atomtypes" >
   <dimension dim="1">type</dimension>
   <field type="int">atomspertype</field>
   <field type="string">element</field>
   <field>mass</field>
   <field>valence</field>
   <field type="string">pseudopotential</field>
   <set>
    <rc><c>   1</c><c>Re</c><c>    186.20700000</c><c>     13.00000000</c><c>  PAW_PBE Re_pv 06Sep2000               </c></rc>
   </set>
  </array>
 </atominfo>
 <structure name="initialpos" >
  <crystal>
   <varray name="basis" >
    <v>      10.00000000       0.00000000       0.00000000 </v>
    <v>       0.00000000      10.00000000       0.00000000 </v>
    <v>       0.00000000       0.00000000      10.00000000 </v>
   </varray>
   <i name="volume">   1000.00000000 </i>
   <varray name="rec_basis" >
    <v>       0.10000000       0.00000000       0.00000000 </v>
    <v>       0.00000000       0.10000000       0.00000000 </v>
    <v>       0.00000000       0.00000000       0.10000000 </v>
   </varray>
  </crystal>
  <varray name="positions" >
   <v>       0.50000000       0.50000000       0.50000000 </v>
  </varray>
 </structure>
 <calculation>
  <scstep>
   <time name="total">    1.23    1.24</time>
   <energy>
    <i name="alphaZ">      2.90898153 </i>
    <i name="ewald">   -345.23725609 </i>
    <i name="hartreedc">   -916.22470942 </i>
    <i name="XCdc">     38.89009919 </i>
    <i name="pawpsdc">   1216.49885448 </i>
    <i name="pawaedc">  -1205.74223423 </i>
    <i name="eentropy">     -0.00465620 </i>
    <i name="bandstr">   -183.75070541 </i>
    <i name="atom">   1505.34194615 </i>
    <i name="e_fr_energy">    112.68032000 </i>
    <i name="e_wo_entrp">    112.68497620 </i>
    <i name="e_0_energy">    112.68264810 </i>
   </energy>
  </scstep>
  <scstep>
   <time name="total">    0.45    0.45</time>
   <energy>
    <i name="e_fr_energy">     16.36563392 </i>
    <i name="e_wo_entrp">     16.36565633 </i>
    <i name="e_0_energy">     16.36564513 </i>
   </energy>
  </scstep>
  <scstep>
   <time name="total">    0.59    0.59</time>
   <energy>
    <i name="e_fr_energy">      1.08099584 </i>
    <i name="e_wo_entrp">      1.10380303 </i>
    <i name="e_0_energy">      1.09239944 </i>
   </energy>
  </scstep>
  <scstep>
   <time name="total">    0.58    0.58</time>
   <energy>
    <i name="e_fr_energy">     -1.23197922 </i>
    <i name="e_wo_entrp">     -1.21935553 </i>
    <i name="e_0_energy">     -1.22566737 </i>
   </energy>
  </scstep>
  <scstep>
   <time name="total">    0.82    0.82</time>
   <energy>
    <i name="e_fr_energy">     -1.73930253 </i>
    <i name="e_wo_entrp">     -1.73882935 </i>
    <i name="e_0_energy">     -1.73906594 </i>
   </energy>
  </scstep>
  <scstep>
   <time name="total">    1.13    1.14</time>
   <energy>
    <i name="e_fr_energy">     -3.78852213 </i>
    <i name="e_wo_entrp">     -3.78852213 </i>
    <i name="e_0_energy">     -3.78852213 </i>
   </energy>
  </scstep>
  <scstep>
   <time name="total">    1.09    1.10</time>
   <energy>
    <i name="e_fr_energy">     -2.26218534 </i>
    <i name="e_wo_entrp">     -2.26218534 </i>
    <i name="e_0_energy">     -2.26218534 </i>
   </energy>
  </scstep>
  <scstep>
   <time name="total">    1.10    1.10</time>
   <energy>
    <i name="e_fr_energy">     45.94399809 </i>
    <i name="e_wo_entrp">     45.94399809 </i>
    <i name="e_0_energy">     45.94399809 </i>
   </energy>
  </scstep>
  <scstep>
   <time name="total">    1.09    1.09</time>
   <energy>
    <i name="e_fr_energy">    331.90102651 </i>
    <i name="e_wo_entrp">    331.92088055 </i>
    <i name="e_0_energy">    331.91095353 </i>
   </energy>
  </scstep>
  <scstep>
   <time name="total">    1.10    1.10</time>
   <energy>
    <i name="e_fr_energy">    127.73149411 </i>
    <i name="e_wo_entrp">    127.73863644 </i>
    <i name="e_0_energy">    127.73506527 </i>
   </energy>
  </scstep>
  <scstep>
   <time name="total">    1.12    1.12</time>
   <energy>
    <i name="e_fr_energy">    100.95729067 </i>
    <i name="e_wo_entrp">    100.96347604 </i>
    <i name="e_0_energy">    100.96038336 </i>
   </energy>
  </scstep>
  <scstep>
   <time name="total">    1.09    1.09</time>
   <energy>
    <i name="e_fr_energy">     98.50095917 </i>
    <i name="e_wo_entrp">     98.50150081 </i>
    <i name="e_0_energy">     98.50122999 </i>
   </energy>
  </scstep>
  <scstep>
   <time name="total">    1.10    1.10</time>
   <energy>
    <i name="e_fr_energy">    138.94500778 </i>
    <i name="e_wo_entrp">    138.97292590 </i>
    <i name="e_0_energy">    138.95896684 </i>
   </energy>
  </scstep>
  <scstep>
   <time name="total">    1.09    1.09</time>
   <energy>
    <i name="e_fr_energy">    101.74945481 </i>
    <i name="e_wo_entrp">    101.76685223 </i>
    <i name="e_0_energy">    101.75815352 </i>
   </energy>
  </scstep>
  <scstep>
   <time name="total">    1.08    1.08</time>
   <energy>
    <i name="e_fr_energy">    204.61331621 </i>
    <i name="e_wo_entrp">    204.61438874 </i>
    <i name="e_0_energy">    204.61385247 </i>
   </energy>
  </scstep>
  <scstep>
   <time name="total">    1.09    1.09</time>
   <energy>
    <i name="e_fr_energy">     64.44912418 </i>
    <i name="e_wo_entrp">     64.45196589 </i>
    <i name="e_0_energy">     64.45054504 </i>
   </energy>
  </scstep>
  <scstep>
   <time name="total">    1.10    1.10</time>
   <energy>
    <i name="e_fr_energy">     45.34017274 </i>
    <i name="e_wo_entrp">     45.34017274 </i>
    <i name="e_0_energy">     45.34017274 </i>
   </energy>
  </scstep>
  <scstep>
   <time name="total">    1.09    1.09</time>
   <energy>
    <i name="e_fr_energy">     90.04306900 </i>
    <i name="e_wo_entrp">     90.06227781 </i>
    <i name="e_0_energy">     90.05267341 </i>
   </energy>
  </scstep>
  <scstep>
   <time name="total">    1.09    1.09</time>
   <energy>
    <i name="e_fr_energy">     30.69633230 </i>
    <i name="e_wo_entrp">     30.71709017 </i>
    <i name="e_0_energy">     30.70671123 </i>
   </energy>
  </scstep>
  <scstep>
   <time name="total">    1.10    1.10</time>
   <energy>
    <i name="e_fr_energy">     34.36869001 </i>
    <i name="e_wo_entrp">     34.36869001 </i>
    <i name="e_0_energy">     34.36869001 </i>
   </energy>
  </scstep>
  <scstep>
   <time name="total">    1.09    1.10</time>
   <energy>
    <i name="e_fr_energy">     16.27465183 </i>
    <i name="e_wo_entrp">     16.27465183 </i>
    <i name="e_0_energy">     16.27465183 </i>
   </energy>
  </scstep>
  <scstep>
   <time name="total">    1.11    1.11</time>
   <energy>
    <i name="e_fr_energy">     13.54995606 </i>
    <i name="e_wo_entrp">     13.54995606 </i>
    <i name="e_0_energy">     13.54995606 </i>
   </energy>
  </scstep>
  <scstep>
   <time name="total">    1.08    1.09</time>
   <energy>
    <i name="e_fr_energy">      7.01136127 </i>
    <i name="e_wo_entrp">      7.01136127 </i>
    <i name="e_0_energy">      7.01136127 </i>
   </energy>
  </scstep>
  <scstep>
   <time name="total">    1.10    1.11</time>
   <energy>
    <i name="e_fr_energy">      0.83718829 </i>
    <i name="e_wo_entrp">      0.83718829 </i>
    <i name="e_0_energy">      0.83718829 </i>
   </energy>
  </scstep>
  <scstep>
   <time name="total">    1.11    1.11</time>
   <energy>
    <i name="e_fr_energy">     -0.29964923 </i>
    <i name="e_wo_entrp">     -0.29964923 </i>
    <i name="e_0_energy">     -0.29964923 </i>
   </energy>
  </scstep>
  <scstep>
   <time name="total">    1.09    1.09</time>
   <energy>
    <i name="e_fr_energy">     -0.60559227 </i>
    <i name="e_wo_entrp">     -0.60559227 </i>
    <i name="e_0_energy">     -0.60559227 </i>
   </energy>
  </scstep>
  <scstep>
   <time name="total">    1.09    1.09</time>
   <energy>
    <i name="e_fr_energy">     -0.88466162 </i>
    <i name="e_wo_entrp">     -0.88438258 </i>
    <i name="e_0_energy">     -0.88452210 </i>
   </energy>
  </scstep>
  <scstep>
   <time name="total">    1.09    1.09</time>
   <energy>
    <i name="e_fr_energy">     -0.99735326 </i>
    <i name="e_wo_entrp">     -0.96927911 </i>
    <i name="e_0_energy">     -0.98331618 </i>
   </energy>
  </scstep>
  <scstep>
   <time name="total">    1.09    1.09</time>
   <energy>
    <i name="e_fr_energy">     -1.54842000 </i>
    <i name="e_wo_entrp">     -1.54341859 </i>
    <i name="e_0_energy">     -1.54591930 </i>
   </energy>
  </scstep>
  <scstep>
   <time name="total">    1.10    1.10</time>
   <energy>
    <i name="e_fr_energy">     -2.24282387 </i>
    <i name="e_wo_entrp">     -2.21563636 </i>
    <i name="e_0_energy">     -2.22923012 </i>
   </energy>
  </scstep>
  <scstep>
   <time name="total">    1.10    1.10</time>
   <energy>
    <i name="e_fr_energy">     -3.01610611 </i>
    <i name="e_wo_entrp">     -3.01610611 </i>
    <i name="e_0_energy">     -3.01610611 </i>
   </energy>
  </scstep>
  <scstep>
   <time name="total">    1.08    1.08</time>
   <energy>
    <i name="e_fr_energy">     -4.56650329 </i>
    <i name="e_wo_entrp">     -4.56650329 </i>
    <i name="e_0_energy">     -4.56650329 </i>
   </energy>
  </scstep>
  <scstep>
   <time name="total">    1.08    1.08</time>
   <energy>
    <i name="e_fr_energy">     -4.59031875 </i>
    <i name="e_wo_entrp">     -4.59031875 </i>
    <i name="e_0_energy">     -4.59031875 </i>
   </energy>
  </scstep>
  <scstep>
   <time name="total">    1.08    1.08</time>
   <energy>
    <i name="e_fr_energy">     -4.60740151 </i>
    <i name="e_wo_entrp">     -4.60740151 </i>
    <i name="e_0_energy">     -4.60740151 </i>
   </energy>
  </scstep>
  <scstep>
   <time name="total">    1.11    1.11</time>
   <energy>
    <i name="e_fr_energy">     -4.61883208 </i>
    <i name="e_wo_entrp">     -4.61883208 </i>
    <i name="e_0_energy">     -4.61883208 </i>
   </energy>
  </scstep>
  <scstep>
   <time name="total">    1.09    1.09</time>
   <energy>
    <i name="e_fr_energy">     -4.62630842 </i>
    <i name="e_wo_entrp">     -4.62630842 </i>
    <i name="e_0_energy">     -4.62630842 </i>
   </energy>
  </scstep>
  <scstep>
   <time name="total">    1.10    1.10</time>
   <energy>
    <i name="e_fr_energy">     -4.63113628 </i>
    <i name="e_wo_entrp">     -4.63113628 </i>
    <i name="e_0_energy">     -4.63113628 </i>
   </energy>
  </scstep>
  <scstep>
   <time name="total">    1.09    1.09</time>
   <energy>
    <i name="e_fr_energy">     -4.63426019 </i>
    <i name="e_wo_entrp">     -4.63426019 </i>
    <i name="e_0_energy">     -4.63426019 </i>
   </energy>
  </scstep>
  <scstep>
   <time name="total">    1.10    1.10</time>
   <energy>
    <i name="e_fr_energy">     -4.63629067 </i>
    <i name="e_wo_entrp">     -4.63629067 </i>
    <i name="e_0_energy">     -4.63629067 </i>
   </energy>
  </scstep>
  <scstep>
   <time name="total">    1.08    1.08</time>
   <energy>
    <i name="e_fr_energy">     -4.63760395 </i>
    <i name="e_wo_entrp">     -4.63760395 </i>
    <i name="e_0_energy">     -4.63760395 </i>
   </energy>
  </scstep>
  <scstep>
   <time name="total">    1.09    1.09</time>
   <energy>
    <i name="e_fr_energy">     -4.63844619 </i>
    <i name="e_wo_entrp">     -4.63844619 </i>
    <i name="e_0_energy">     -4.63844619 </i>
   </energy>
  </scstep>
  <scstep>
   <time name="total">    1.10    1.10</time>
   <energy>
    <i name="e_fr_energy">     -4.63898289 </i>
    <i name="e_wo_entrp">     -4.63898289 </i>
    <i name="e_0_energy">     -4.63898289 </i>
   </energy>
  </scstep>
  <scstep>
   <time name="total">    1.10    1.11</time>
   <energy>
    <i name="e_fr_energy">     -4.63931857 </i>
    <i name="e_wo_entrp">     -4.63931857 </i>
    <i name="e_0_energy">     -4.63931857 </i>
   </energy>
  </scstep>
  <scstep>
   <time name="total">    1.09    1.09</time>
   <energy>
    <i name="e_fr_energy">     -4.63952215 </i>
    <i name="e_wo_entrp">     -4.63952215 </i>
    <i name="e_0_energy">     -4.63952215 </i>
   </energy>
  </scstep>
  <scstep>
   <time name="total">    1.09    1.09</time>
   <energy>
    <i name="e_fr_energy">     -4.63964106 </i>
    <i name="e_wo_entrp">     -4.63964106 </i>
    <i name="e_0_energy">     -4.63964106 </i>
   </energy>
  </scstep>
  <scstep>
   <time name="total">    1.09    1.09</time>
   <energy>
    <i name="e_fr_energy">     -4.63971612 </i>
    <i name="e_wo_entrp">     -4.63971612 </i>
    <i name="e_0_energy">     -4.63971612 </i>
   </energy>
  </scstep>
  <scstep>
   <time name="total">    1.18    1.18</time>
   <energy>
    <i name="alphaZ">      2.90898153 </i>
    <i name="ewald">   -345.23725609 </i>
    <i name="hartreedc">   -894.27244163 </i>
    <i name="XCdc">     39.64709146 </i>
    <i name="pawpsdc">   1175.41838570 </i>
    <i name="pawaedc">  -1169.00454304 </i>
    <i name="eentropy">     -0.00000000 </i>
    <i name="bandstr">   -319.44192780 </i>
    <i name="atom">   1505.34194615 </i>
    <i name="e_fr_energy">     -4.63976372 </i>
    <i name="e_wo_entrp">     -4.63976372 </i>
    <i name="e_0_energy">     -4.63976372 </i>
   </energy>
  </scstep>
  <structure>
   <crystal>
    <varray name="basis" >
     <v>      10.00000000       0.00000000       0.00000000 </v>
     <v>       0.00000000      10.00000000       0.00000000 </v>
     <v>       0.00000000       0.00000000      10.00000000 </v>
    </varray>
    <i name="volume">   1000.00000000 </i>
    <varray name="rec_basis" >
     <v>       0.10000000       0.00000000       0.00000000 </v>
     <v>       0.00000000       0.10000000       0.00000000 </v>
     <v>       0.00000000       0.00000000       0.10000000 </v>
    </varray>
   </crystal>
   <varray name="positions" >
    <v>       0.50000000       0.50000000       0.50000000 </v>
   </varray>
  </structure>
  <varray name="forces" >
   <v>       0.00000000       0.00000000       0.00000000 </v>
  </varray>
  <varray name="stress" >
   <v>      -0.03879716       0.00000000       0.00000000 </v>
   <v>       0.00000000      -0.03879716       0.00000000 </v>
   <v>      -0.00000000      -0.00000000      -0.03879716 </v>
  </varray>
  <energy>
   <i name="e_fr_energy">     -4.63976372 </i>
   <i name="e_wo_entrp">     -4.63976372 </i>
   <i name="e_0_energy">     -0.00000000 </i>
  </energy>
  <time name="totalsc">   63.24   63.39</time>
  <eigenvalues>
   <array>
    <dimension dim="1">band</dimension>
    <dimension dim="2">kpoint</dimension>
    <dimension dim="3">spin</dimension>
    <field>eigene</field>
    <field>occ</field>
    <set>
     <set comment="spin 1">
      <set comment="kpoint 1">
       <r>  -47.5798    1.0000 </r>
       <r>  -47.5798    1.0000 </r>
       <r>  -47.5798    1.0000 </r>
       <r>   -6.3462    1.0000 </r>
       <r>   -6.1811    1.0000 </r>
       <r>   -6.1811    1.0000 </r>
       <r>   -6.1811    1.0000 </r>
       <r>   -6.1808    1.0000 </r>
       <r>   -6.1808    1.0000 </r>
       <r>   -1.3096    0.0000 </r>
       <r>   -1.3096    0.0000 </r>
       <r>   -1.3096    0.0000 </r>
       <r>   -0.1785    0.0000 </r>
       <r>    0.9942    0.0000 </r>
       <r>    0.9942    0.0000 </r>
       <r>    1.6748    0.0000 </r>
       <r>    1.6749    0.0000 </r>
       <r>    1.6749    0.0000 </r>
       <r>    1.7374    0.0000 </r>
       <r>    2.1108    0.0000 </r>
       <r>    2.1108    0.0000 </r>
       <r>    2.1109    0.0000 </r>
       <r>    2.5703    0.0000 </r>
       <r>    2.5704    0.0000 </r>
       <r>    2.5718    0.0000 </r>
       <r>    2.6407    0.0000 </r>
       <r>    2.6408    0.0000 </r>
       <r>    3.6063    0.0000 </r>
       <r>    3.6490    0.0000 </r>
       <r>    3.7295    0.0000 </r>
       <r>    3.7509    0.0000 </r>
       <r>    3.9357    0.0000 </r>
       <r>    3.9384    0.0000 </r>
       <r>    3.9386    0.0000 </r>
       <r>    4.1958    0.0000 </r>
       <r>    4.5847    0.0000 </r>
      </set>
     </set>
     <set comment="spin 2">
      <set comment="kpoint 1">
       <r>  -44.9529    1.0000 </r>
       <r>  -44.9529    1.0000 </r>
       <r>  -44.9529    1.0000 </r>
       <r>   -4.5929    1.0000 </r>
       <r>   -3.2312    0.0000 </r>
       <r>   -3.2302    0.0000 </r>
       <r>   -3.2300    0.0000 </r>
       <r>   -3.2289    0.0000 </r>
       <r>   -3.2288    0.0000 </r>
       <r>   -0.5873    0.0000 </r>
       <r>   -0.5873    0.0000 </r>
       <r>   -0.5873    0.0000 </r>
       <r>   -0.2043    0.0000 </r>
       <r>    0.9245    0.0000 </r>
       <r>    0.9245    0.0000 </r>
       <r>    1.6818    0.0000 </r>
       <r>    1.6823    0.0000 </r>
       <r>    1.6824    0.0000 </r>
       <r>    1.7597    0.0000 </r>
       <r>    2.1687    0.0000 </r>
       <r>    2.1688    0.0000 </r>
       <r>    2.1688    0.0000 </r>
       <r>    2.4345    0.0000 </r>
       <r>    2.4349    0.0000 </r>
       <r>    2.4355    0.0000 </r>
       <r>    2.5432    0.0000 </r>
       <r>    2.5434    0.0000 </r>
       <r>    3.6517    0.0000 </r>
       <r>    3.6770    0.0000 </r>
       <r>    3.7926    0.0000 </r>
       <r>    3.8635    0.0000 </r>
       <r>    3.8749    0.0000 </r>
       <r>    3.8771    0.0000 </r>
       <r>    3.8827    0.0000 </r>
       <r>    4.8153    0.0000 </r>
       <r>    5.0431    0.0000 </r>
      </set>
     </set>
    </set>
   </array>
  </eigenvalues>
  <separator name="orbital magnetization" >
   <v name="MAGDIPOLOUT">      0.00000000      0.00000000      0.00000000</v>
  </separator>
  <dos>
   <i name="efermi">     -4.26458791 </i>
   <total>
    <array>
     <dimension dim="1">gridpoints</dimension>
     <dimension dim="2">spin</dimension>
     <field>energy</field>
     <field>total</field>
     <field>integrated</field>
     <set>
      <set comment="spin 1">
       <r>   -50.2109     0.0000     0.0000 </r>
       <r>   -50.0180     0.0000     0.0000 </r>
       <r>   -49.8250     0.0000     0.0000 </r>
       <r>   -49.6321     0.0000     0.0000 </r>
       <r>   -49.4391     0.0000     0.0000 </r>
       <r>   -49.2462     0.0000     0.0000 </r>
       <r>   -49.0532     0.0000     0.0000 </r>
       <r>   -48.8603     0.0000     0.0000 </r>
       <r>   -48.6673     0.0000     0.0000 </r>
       <r>   -48.4744     0.0000     0.0000 </r>
       <r>   -48.2814     0.0000     0.0000 </r>
       <r>   -48.0885     0.0000     0.0000 </r>
       <r>   -47.8955     0.0000     0.0000 </r>
       <r>   -47.7026     0.0040     0.0008 </r>
       <r>   -47.5096    15.1771     2.9292 </r>
       <r>   -47.3167     0.3669     3.0000 </r>
       <r>   -47.1237     0.0000     3.0000 </r>
       <r>   -46.9308     0.0000     3.0000 </r>
       <r>   -46.7378     0.0000     3.0000 </r>
       <r>   -46.5449     0.0000     3.0000 </r>
       <r>   -46.3519     0.0000     3.0000 </r>
       <r>   -46.1590     0.0000     3.0000 </r>
       <r>   -45.9660     0.0000     3.0000 </r>
       <r>   -45.7731     0.0000     3.0000 </r>
       <r>   -45.5801     0.0000     3.0000 </r>
       <r>   -45.3872     0.0000     3.0000 </r>
       <r>   -45.1942     0.0000     3.0000 </r>
       <r>   -45.0013     0.0000     3.0000 </r>
       <r>   -44.8083     0.0000     3.0000 </r>
       <r>   -44.6154     0.0000     3.0000 </r>
       <r>   -44.4224     0.0000     3.0000 </r>
       <r>   -44.2295     0.0000     3.0000 </r>
       <r>   -44.0365     0.0000     3.0000 </r>
       <r>   -43.8436     0.0000     3.0000 </r>
       <r>   -43.6506     0.0000     3.0000 </r>
       <r>   -43.4577     0.0000     3.0000 </r>
       <r>   -43.2647     0.0000     3.0000 </r>
       <r>   -43.0718     0.0000     3.0000 </r>
       <r>   -42.8788     0.0000     3.0000 </r>
       <r>   -42.6859     0.0000     3.0000 </r>
       <r>   -42.4929     0.0000     3.0000 </r>
       <r>   -42.3000     0.0000     3.0000 </r>
       <r>   -42.1070     0.0000     3.0000 </r>
       <r>   -41.9140     0.0000     3.0000 </r>
       <r>   -41.7211     0.0000     3.0000 </r>
       <r>   -41.5281     0.0000     3.0000 </r>
       <r>   -41.3352     0.0000     3.0000 </r>
       <r>   -41.1422     0.0000     3.0000 </r>
       <r>   -40.9493     0.0000     3.0000 </r>
       <r>   -40.7563     0.0000     3.0000 </r>
       <r>   -40.5634     0.0000     3.0000 </r>
       <r>   -40.3704     0.0000     3.0000 </r>
       <r>   -40.1775     0.0000     3.0000 </r>
       <r>   -39.9845     0.0000     3.0000 </r>
       <r>   -39.7916     0.0000     3.0000 </r>
       <r>   -39.5986     0.0000     3.0000 </r>
       <r>   -39.4057     0.0000     3.0000 </r>
       <r>   -39.2127     0.0000     3.0000 </r>
       <r>   -39.0198     0.0000     3.0000 </r>
       <r>   -38.8268     0.0000     3.0000 </r>
       <r>   -38.6339     0.0000     3.0000 </r>
       <r>   -38.4409     0.0000     3.0000 </r>
       <r>   -38.2480     0.0000     3.0000 </r>
       <r>   -38.0550     0.0000     3.0000 </r>
       <r>   -37.8621     0.0000     3.0000 </r>
       <r>   -37.6691     0.0000     3.0000 </r>
       <r>   -37.4762     0.0000     3.0000 </r>
       <r>   -37.2832     0.0000     3.0000 </r>
       <r>   -37.0903     0.0000     3.0000 </r>
       <r>   -36.8973     0.0000     3.0000 </r>
       <r>   -36.7044     0.0000     3.0000 </r>
       <r>   -36.5114     0.0000     3.0000 </r>
       <r>   -36.3185     0.0000     3.0000 </r>
       <r>   -36.1255     0.0000     3.0000 </r>
       <r>   -35.9326     0.0000     3.0000 </r>
       <r>   -35.7396     0.0000     3.0000 </r>
       <r>   -35.5467     0.0000     3.0000 </r>
       <r>   -35.3537     0.0000     3.0000 </r>
       <r>   -35.1608     0.0000     3.0000 </r>
       <r>   -34.9678     0.0000     3.0000 </r>
       <r>   -34.7749     0.0000     3.0000 </r>
       <r>   -34.5819     0.0000     3.0000 </r>
       <r>   -34.3890     0.0000     3.0000 </r>
       <r>   -34.1960     0.0000     3.0000 </r>
       <r>   -34.0031     0.0000     3.0000 </r>
       <r>   -33.8101     0.0000     3.0000 </r>
       <r>   -33.6172     0.0000     3.0000 </r>
       <r>   -33.4242     0.0000     3.0000 </r>
       <r>   -33.2313     0.0000     3.0000 </r>
       <r>   -33.0383     0.0000     3.0000 </r>
       <r>   -32.8454     0.0000     3.0000 </r>
       <r>   -32.6524     0.0000     3.0000 </r>
       <r>   -32.4595     0.0000     3.0000 </r>
       <r>   -32.2665     0.0000     3.0000 </r>
       <r>   -32.0736     0.0000     3.0000 </r>
       <r>   -31.8806     0.0000     3.0000 </r>
       <r>   -31.6877     0.0000     3.0000 </r>
       <r>   -31.4947     0.0000     3.0000 </r>
       <r>   -31.3018     0.0000     3.0000 </r>
       <r>   -31.1088     0.0000     3.0000 </r>
       <r>   -30.9159     0.0000     3.0000 </r>
       <r>   -30.7229     0.0000     3.0000 </r>
       <r>   -30.5300     0.0000     3.0000 </r>
       <r>   -30.3370     0.0000     3.0000 </r>
       <r>   -30.1441     0.0000     3.0000 </r>
       <r>   -29.9511     0.0000     3.0000 </r>
       <r>   -29.7582     0.0000     3.0000 </r>
       <r>   -29.5652     0.0000     3.0000 </r>
       <r>   -29.3723     0.0000     3.0000 </r>
       <r>   -29.1793     0.0000     3.0000 </r>
       <r>   -28.9864     0.0000     3.0000 </r>
       <r>   -28.7934     0.0000     3.0000 </r>
       <r>   -28.6005     0.0000     3.0000 </r>
       <r>   -28.4075     0.0000     3.0000 </r>
       <r>   -28.2146     0.0000     3.0000 </r>
       <r>   -28.0216     0.0000     3.0000 </r>
       <r>   -27.8287     0.0000     3.0000 </r>
       <r>   -27.6357     0.0000     3.0000 </r>
       <r>   -27.4428     0.0000     3.0000 </r>
       <r>   -27.2498     0.0000     3.0000 </r>
       <r>   -27.0569     0.0000     3.0000 </r>
       <r>   -26.8639     0.0000     3.0000 </r>
       <r>   -26.6710     0.0000     3.0000 </r>
       <r>   -26.4780     0.0000     3.0000 </r>
       <r>   -26.2851     0.0000     3.0000 </r>
       <r>   -26.0921     0.0000     3.0000 </r>
       <r>   -25.8992     0.0000     3.0000 </r>
       <r>   -25.7062     0.0000     3.0000 </r>
       <r>   -25.5133     0.0000     3.0000 </r>
       <r>   -25.3203     0.0000     3.0000 </r>
       <r>   -25.1274     0.0000     3.0000 </r>
       <r>   -24.9344     0.0000     3.0000 </r>
       <r>   -24.7415     0.0000     3.0000 </r>
       <r>   -24.5485     0.0000     3.0000 </r>
       <r>   -24.3556     0.0000     3.0000 </r>
       <r>   -24.1626     0.0000     3.0000 </r>
       <r>   -23.9697     0.0000     3.0000 </r>
       <r>   -23.7767     0.0000     3.0000 </r>
       <r>   -23.5838     0.0000     3.0000 </r>
       <r>   -23.3908     0.0000     3.0000 </r>
       <r>   -23.1979     0.0000     3.0000 </r>
       <r>   -23.0049     0.0000     3.0000 </r>
       <r>   -22.8120     0.0000     3.0000 </r>
       <r>   -22.6190     0.0000     3.0000 </r>
       <r>   -22.4261     0.0000     3.0000 </r>
       <r>   -22.2331     0.0000     3.0000 </r>
       <r>   -22.0402     0.0000     3.0000 </r>
       <r>   -21.8472     0.0000     3.0000 </r>
       <r>   -21.6542     0.0000     3.0000 </r>
       <r>   -21.4613     0.0000     3.0000 </r>
       <r>   -21.2683     0.0000     3.0000 </r>
       <r>   -21.0754     0.0000     3.0000 </r>
       <r>   -20.8824     0.0000     3.0000 </r>
       <r>   -20.6895     0.0000     3.0000 </r>
       <r>   -20.4965     0.0000     3.0000 </r>
       <r>   -20.3036     0.0000     3.0000 </r>
       <r>   -20.1106     0.0000     3.0000 </r>
       <r>   -19.9177     0.0000     3.0000 </r>
       <r>   -19.7247     0.0000     3.0000 </r>
       <r>   -19.5318     0.0000     3.0000 </r>
       <r>   -19.3388     0.0000     3.0000 </r>
       <r>   -19.1459     0.0000     3.0000 </r>
       <r>   -18.9529     0.0000     3.0000 </r>
       <r>   -18.7600     0.0000     3.0000 </r>
       <r>   -18.5670     0.0000     3.0000 </r>
       <r>   -18.3741     0.0000     3.0000 </r>
       <r>   -18.1811     0.0000     3.0000 </r>
       <r>   -17.9882     0.0000     3.0000 </r>
       <r>   -17.7952     0.0000     3.0000 </r>
       <r>   -17.6023     0.0000     3.0000 </r>
       <r>   -17.4093     0.0000     3.0000 </r>
       <r>   -17.2164     0.0000     3.0000 </r>
       <r>   -17.0234     0.0000     3.0000 </r>
       <r>   -16.8305     0.0000     3.0000 </r>
       <r>   -16.6375     0.0000     3.0000 </r>
       <r>   -16.4446     0.0000     3.0000 </r>
       <r>   -16.2516     0.0000     3.0000 </r>
       <r>   -16.0587     0.0000     3.0000 </r>
       <r>   -15.8657     0.0000     3.0000 </r>
       <r>   -15.6728     0.0000     3.0000 </r>
       <r>   -15.4798     0.0000     3.0000 </r>
       <r>   -15.2869     0.0000     3.0000 </r>
       <r>   -15.0939     0.0000     3.0000 </r>
       <r>   -14.9010     0.0000     3.0000 </r>
       <r>   -14.7080     0.0000     3.0000 </r>
       <r>   -14.5151     0.0000     3.0000 </r>
       <r>   -14.3221     0.0000     3.0000 </r>
       <r>   -14.1292     0.0000     3.0000 </r>
       <r>   -13.9362     0.0000     3.0000 </r>
       <r>   -13.7433     0.0000     3.0000 </r>
       <r>   -13.5503     0.0000     3.0000 </r>
       <r>   -13.3574     0.0000     3.0000 </r>
       <r>   -13.1644     0.0000     3.0000 </r>
       <r>   -12.9715     0.0000     3.0000 </r>
       <r>   -12.7785     0.0000     3.0000 </r>
       <r>   -12.5856     0.0000     3.0000 </r>
       <r>   -12.3926     0.0000     3.0000 </r>
       <r>   -12.1997     0.0000     3.0000 </r>
       <r>   -12.0067     0.0000     3.0000 </r>
       <r>   -11.8138     0.0000     3.0000 </r>
       <r>   -11.6208     0.0000     3.0000 </r>
       <r>   -11.4279     0.0000     3.0000 </r>
       <r>   -11.2349     0.0000     3.0000 </r>
       <r>   -11.0420     0.0000     3.0000 </r>
       <r>   -10.8490     0.0000     3.0000 </r>
       <r>   -10.6561     0.0000     3.0000 </r>
       <r>   -10.4631     0.0000     3.0000 </r>
       <r>   -10.2702     0.0000     3.0000 </r>
       <r>   -10.0772     0.0000     3.0000 </r>
       <r>    -9.8843     0.0000     3.0000 </r>
       <r>    -9.6913     0.0000     3.0000 </r>
       <r>    -9.4984     0.0000     3.0000 </r>
       <r>    -9.3054     0.0000     3.0000 </r>
       <r>    -9.1125     0.0000     3.0000 </r>
       <r>    -8.9195     0.0000     3.0000 </r>
       <r>    -8.7266     0.0000     3.0000 </r>
       <r>    -8.5336     0.0000     3.0000 </r>
       <r>    -8.3407     0.0000     3.0000 </r>
       <r>    -8.1477     0.0000     3.0000 </r>
       <r>    -7.9548     0.0000     3.0000 </r>
       <r>    -7.7618     0.0000     3.0000 </r>
       <r>    -7.5689     0.0000     3.0000 </r>
       <r>    -7.3759     0.0000     3.0000 </r>
       <r>    -7.1830     0.0000     3.0000 </r>
       <r>    -6.9900     0.0000     3.0000 </r>
       <r>    -6.7971     0.0000     3.0000 </r>
       <r>    -6.6041     0.0000     3.0000 </r>
       <r>    -6.4112     0.1714     3.0331 </r>
       <r>    -6.2182     8.7946     4.7300 </r>
       <r>    -6.0253    22.1299     9.0000 </r>
       <r>    -5.8323     0.0001     9.0000 </r>
       <r>    -5.6394     0.0000     9.0000 </r>
       <r>    -5.4464     0.0000     9.0000 </r>
       <r>    -5.2535     0.0000     9.0000 </r>
       <r>    -5.0605     0.0000     9.0000 </r>
       <r>    -4.8676     0.0000     9.0000 </r>
       <r>    -4.6746     0.0000     9.0000 </r>
       <r>    -4.4817     0.0000     9.0000 </r>
       <r>    -4.2887     0.0000     9.0000 </r>
       <r>    -4.0958     0.0000     9.0000 </r>
       <r>    -3.9028     0.0000     9.0000 </r>
       <r>    -3.7099     0.0000     9.0000 </r>
       <r>    -3.5169     0.0000     9.0000 </r>
       <r>    -3.3240     0.0000     9.0000 </r>
       <r>    -3.1310     0.0000     9.0000 </r>
       <r>    -2.9381     0.0000     9.0000 </r>
       <r>    -2.7451     0.0000     9.0000 </r>
       <r>    -2.5522     0.0000     9.0000 </r>
       <r>    -2.3592     0.0000     9.0000 </r>
       <r>    -2.1663     0.0000     9.0000 </r>
       <r>    -1.9733     0.0000     9.0000 </r>
       <r>    -1.7804     0.0000     9.0000 </r>
       <r>    -1.5874     0.0000     9.0000 </r>
       <r>    -1.3944     0.1275     9.0246 </r>
       <r>    -1.2015    15.4032    11.9967 </r>
       <r>    -1.0085     0.0173    12.0000 </r>
       <r>    -0.8156     0.0000    12.0000 </r>
       <r>    -0.6226     0.0000    12.0000 </r>
       <r>    -0.4297     0.0000    12.0000 </r>
       <r>    -0.2367     0.2570    12.0496 </r>
       <r>    -0.0438     4.9253    12.9999 </r>
       <r>     0.1492     0.0004    13.0000 </r>
       <r>     0.3421     0.0000    13.0000 </r>
       <r>     0.5351     0.0000    13.0000 </r>
       <r>     0.7280     0.0000    13.0000 </r>
       <r>     0.9210     0.1979    13.0382 </r>
       <r>     1.1139    10.1637    14.9993 </r>
       <r>     1.3069     0.0037    15.0000 </r>
       <r>     1.4998     0.0000    15.0000 </r>
       <r>     1.6928    11.3199    17.1842 </r>
       <r>     1.8857     9.4107    19.0000 </r>
       <r>     2.0787     2.8242    19.5449 </r>
       <r>     2.2716    12.7239    22.0000 </r>
       <r>     2.4646     0.0206    22.0040 </r>
       <r>     2.6575    22.4888    26.3432 </r>
       <r>     2.8505     3.4040    27.0000 </r>
       <r>     3.0434     0.0000    27.0000 </r>
       <r>     3.2364     0.0000    27.0000 </r>
       <r>     3.4293     0.0000    27.0000 </r>
       <r>     3.6223     4.6624    27.8996 </r>
       <r>     3.8152    15.8542    30.9587 </r>
       <r>     4.0082    15.4044    33.9310 </r>
       <r>     4.2011     3.2599    34.5600 </r>
       <r>     4.3941     2.2805    35.0000 </r>
       <r>     4.5870     2.7237    35.5255 </r>
       <r>     4.7800     2.4590    36.0000 </r>
       <r>     4.9729     0.0000    36.0000 </r>
       <r>     5.1659     0.0000    36.0000 </r>
       <r>     5.3588     0.0000    36.0000 </r>
       <r>     5.5518     0.0000    36.0000 </r>
       <r>     5.7447     0.0000    36.0000 </r>
       <r>     5.9377     0.0000    36.0000 </r>
       <r>     6.1306     0.0000    36.0000 </r>
       <r>     6.3236     0.0000    36.0000 </r>
       <r>     6.5165     0.0000    36.0000 </r>
       <r>     6.7095     0.0000    36.0000 </r>
       <r>     6.9024     0.0000    36.0000 </r>
       <r>     7.0954     0.0000    36.0000 </r>
       <r>     7.2883     0.0000    36.0000 </r>
       <r>     7.4813     0.0000    36.0000 </r>
       <r>     7.6742     0.0000    36.0000 </r>
      </set>
      <set comment="spin 2">
       <r>   -50.2109     0.0000     0.0000 </r>
       <r>   -50.0180     0.0000     0.0000 </r>
       <r>   -49.8250     0.0000     0.0000 </r>
       <r>   -49.6321     0.0000     0.0000 </r>
       <r>   -49.4391     0.0000     0.0000 </r>
       <r>   -49.2462     0.0000     0.0000 </r>
       <r>   -49.0532     0.0000     0.0000 </r>
       <r>   -48.8603     0.0000     0.0000 </r>
       <r>   -48.6673     0.0000     0.0000 </r>
       <r>   -48.4744     0.0000     0.0000 </r>
       <r>   -48.2814     0.0000     0.0000 </r>
       <r>   -48.0885     0.0000     0.0000 </r>
       <r>   -47.8955     0.0000     0.0000 </r>
       <r>   -47.7026     0.0000     0.0000 </r>
       <r>   -47.5096     0.0000     0.0000 </r>
       <r>   -47.3167     0.0000     0.0000 </r>
       <r>   -47.1237     0.0000     0.0000 </r>
       <r>   -46.9308     0.0000     0.0000 </r>
       <r>   -46.7378     0.0000     0.0000 </r>
       <r>   -46.5449     0.0000     0.0000 </r>
       <r>   -46.3519     0.0000     0.0000 </r>
       <r>   -46.1590     0.0000     0.0000 </r>
       <r>   -45.9660     0.0000     0.0000 </r>
       <r>   -45.7731     0.0000     0.0000 </r>
       <r>   -45.5801     0.0000     0.0000 </r>
       <r>   -45.3872     0.0000     0.0000 </r>
       <r>   -45.1942     0.0000     0.0000 </r>
       <r>   -45.0013     1.3330     0.2572 </r>
       <r>   -44.8083    14.2147     2.9999 </r>
       <r>   -44.6154     0.0003     3.0000 </r>
       <r>   -44.4224     0.0000     3.0000 </r>
       <r>   -44.2295     0.0000     3.0000 </r>
       <r>   -44.0365     0.0000     3.0000 </r>
       <r>   -43.8436     0.0000     3.0000 </r>
       <r>   -43.6506     0.0000     3.0000 </r>
       <r>   -43.4577     0.0000     3.0000 </r>
       <r>   -43.2647     0.0000     3.0000 </r>
       <r>   -43.0718     0.0000     3.0000 </r>
       <r>   -42.8788     0.0000     3.0000 </r>
       <r>   -42.6859     0.0000     3.0000 </r>
       <r>   -42.4929     0.0000     3.0000 </r>
       <r>   -42.3000     0.0000     3.0000 </r>
       <r>   -42.1070     0.0000     3.0000 </r>
       <r>   -41.9140     0.0000     3.0000 </r>
       <r>   -41.7211     0.0000     3.0000 </r>
       <r>   -41.5281     0.0000     3.0000 </r>
       <r>   -41.3352     0.0000     3.0000 </r>
       <r>   -41.1422     0.0000     3.0000 </r>
       <r>   -40.9493     0.0000     3.0000 </r>
       <r>   -40.7563     0.0000     3.0000 </r>
       <r>   -40.5634     0.0000     3.0000 </r>
       <r>   -40.3704     0.0000     3.0000 </r>
       <r>   -40.1775     0.0000     3.0000 </r>
       <r>   -39.9845     0.0000     3.0000 </r>
       <r>   -39.7916     0.0000     3.0000 </r>
       <r>   -39.5986     0.0000     3.0000 </r>
       <r>   -39.4057     0.0000     3.0000 </r>
       <r>   -39.2127     0.0000     3.0000 </r>
       <r>   -39.0198     0.0000     3.0000 </r>
       <r>   -38.8268     0.0000     3.0000 </r>
       <r>   -38.6339     0.0000     3.0000 </r>
       <r>   -38.4409     0.0000     3.0000 </r>
       <r>   -38.2480     0.0000     3.0000 </r>
       <r>   -38.0550     0.0000     3.0000 </r>
       <r>   -37.8621     0.0000     3.0000 </r>
       <r>   -37.6691     0.0000     3.0000 </r>
       <r>   -37.4762     0.0000     3.0000 </r>
       <r>   -37.2832     0.0000     3.0000 </r>
       <r>   -37.0903     0.0000     3.0000 </r>
       <r>   -36.8973     0.0000     3.0000 </r>
       <r>   -36.7044     0.0000     3.0000 </r>
       <r>   -36.5114     0.0000     3.0000 </r>
       <r>   -36.3185     0.0000     3.0000 </r>
       <r>   -36.1255     0.0000     3.0000 </r>
       <r>   -35.9326     0.0000     3.0000 </r>
       <r>   -35.7396     0.0000     3.0000 </r>
       <r>   -35.5467     0.0000     3.0000 </r>
       <r>   -35.3537     0.0000     3.0000 </r>
       <r>   -35.1608     0.0000     3.0000 </r>
       <r>   -34.9678     0.0000     3.0000 </r>
       <r>   -34.7749     0.0000     3.0000 </r>
       <r>   -34.5819     0.0000     3.0000 </r>
       <r>   -34.3890     0.0000     3.0000 </r>
       <r>   -34.1960     0.0000     3.0000 </r>
       <r>   -34.0031     0.0000     3.0000 </r>
       <r>   -33.8101     0.0000     3.0000 </r>
       <r>   -33.6172     0.0000     3.0000 </r>
       <r>   -33.4242     0.0000     3.0000 </r>
       <r>   -33.2313     0.0000     3.0000 </r>
       <r>   -33.0383     0.0000     3.0000 </r>
       <r>   -32.8454     0.0000     3.0000 </r>
       <r>   -32.6524     0.0000     3.0000 </r>
       <r>   -32.4595     0.0000     3.0000 </r>
       <r>   -32.2665     0.0000     3.0000 </r>
       <r>   -32.0736     0.0000     3.0000 </r>
       <r>   -31.8806     0.0000     3.0000 </r>
       <r>   -31.6877     0.0000     3.0000 </r>
       <r>   -31.4947     0.0000     3.0000 </r>
       <r>   -31.3018     0.0000     3.0000 </r>
       <r>   -31.1088     0.0000     3.0000 </r>
       <r>   -30.9159     0.0000     3.0000 </r>
       <r>   -30.7229     0.0000     3.0000 </r>
       <r>   -30.5300     0.0000     3.0000 </r>
       <r>   -30.3370     0.0000     3.0000 </r>
       <r>   -30.1441     0.0000     3.0000 </r>
       <r>   -29.9511     0.0000     3.0000 </r>
       <r>   -29.7582     0.0000     3.0000 </r>
       <r>   -29.5652     0.0000     3.0000 </r>
       <r>   -29.3723     0.0000     3.0000 </r>
       <r>   -29.1793     0.0000     3.0000 </r>
       <r>   -28.9864     0.0000     3.0000 </r>
       <r>   -28.7934     0.0000     3.0000 </r>
       <r>   -28.6005     0.0000     3.0000 </r>
       <r>   -28.4075     0.0000     3.0000 </r>
       <r>   -28.2146     0.0000     3.0000 </r>
       <r>   -28.0216     0.0000     3.0000 </r>
       <r>   -27.8287     0.0000     3.0000 </r>
       <r>   -27.6357     0.0000     3.0000 </r>
       <r>   -27.4428     0.0000     3.0000 </r>
       <r>   -27.2498     0.0000     3.0000 </r>
       <r>   -27.0569     0.0000     3.0000 </r>
       <r>   -26.8639     0.0000     3.0000 </r>
       <r>   -26.6710     0.0000     3.0000 </r>
       <r>   -26.4780     0.0000     3.0000 </r>
       <r>   -26.2851     0.0000     3.0000 </r>
       <r>   -26.0921     0.0000     3.0000 </r>
       <r>   -25.8992     0.0000     3.0000 </r>
       <r>   -25.7062     0.0000     3.0000 </r>
       <r>   -25.5133     0.0000     3.0000 </r>
       <r>   -25.3203     0.0000     3.0000 </r>
       <r>   -25.1274     0.0000     3.0000 </r>
       <r>   -24.9344     0.0000     3.0000 </r>
       <r>   -24.7415     0.0000     3.0000 </r>
       <r>   -24.5485     0.0000     3.0000 </r>
       <r>   -24.3556     0.0000     3.0000 </r>
       <r>   -24.1626     0.0000     3.0000 </r>
       <r>   -23.9697     0.0000     3.0000 </r>
       <r>   -23.7767     0.0000     3.0000 </r>
       <r>   -23.5838     0.0000     3.0000 </r>
       <r>   -23.3908     0.0000     3.0000 </r>
       <r>   -23.1979     0.0000     3.0000 </r>
       <r>   -23.0049     0.0000     3.0000 </r>
       <r>   -22.8120     0.0000     3.0000 </r>
       <r>   -22.6190     0.0000     3.0000 </r>
       <r>   -22.4261     0.0000     3.0000 </r>
       <r>   -22.2331     0.0000     3.0000 </r>
       <r>   -22.0402     0.0000     3.0000 </r>
       <r>   -21.8472     0.0000     3.0000 </r>
       <r>   -21.6542     0.0000     3.0000 </r>
       <r>   -21.4613     0.0000     3.0000 </r>
       <r>   -21.2683     0.0000     3.0000 </r>
       <r>   -21.0754     0.0000     3.0000 </r>
       <r>   -20.8824     0.0000     3.0000 </r>
       <r>   -20.6895     0.0000     3.0000 </r>
       <r>   -20.4965     0.0000     3.0000 </r>
       <r>   -20.3036     0.0000     3.0000 </r>
       <r>   -20.1106     0.0000     3.0000 </r>
       <r>   -19.9177     0.0000     3.0000 </r>
       <r>   -19.7247     0.0000     3.0000 </r>
       <r>   -19.5318     0.0000     3.0000 </r>
       <r>   -19.3388     0.0000     3.0000 </r>
       <r>   -19.1459     0.0000     3.0000 </r>
       <r>   -18.9529     0.0000     3.0000 </r>
       <r>   -18.7600     0.0000     3.0000 </r>
       <r>   -18.5670     0.0000     3.0000 </r>
       <r>   -18.3741     0.0000     3.0000 </r>
       <r>   -18.1811     0.0000     3.0000 </r>
       <r>   -17.9882     0.0000     3.0000 </r>
       <r>   -17.7952     0.0000     3.0000 </r>
       <r>   -17.6023     0.0000     3.0000 </r>
       <r>   -17.4093     0.0000     3.0000 </r>
       <r>   -17.2164     0.0000     3.0000 </r>
       <r>   -17.0234     0.0000     3.0000 </r>
       <r>   -16.8305     0.0000     3.0000 </r>
       <r>   -16.6375     0.0000     3.0000 </r>
       <r>   -16.4446     0.0000     3.0000 </r>
       <r>   -16.2516     0.0000     3.0000 </r>
       <r>   -16.0587     0.0000     3.0000 </r>
       <r>   -15.8657     0.0000     3.0000 </r>
       <r>   -15.6728     0.0000     3.0000 </r>
       <r>   -15.4798     0.0000     3.0000 </r>
       <r>   -15.2869     0.0000     3.0000 </r>
       <r>   -15.0939     0.0000     3.0000 </r>
       <r>   -14.9010     0.0000     3.0000 </r>
       <r>   -14.7080     0.0000     3.0000 </r>
       <r>   -14.5151     0.0000     3.0000 </r>
       <r>   -14.3221     0.0000     3.0000 </r>
       <r>   -14.1292     0.0000     3.0000 </r>
       <r>   -13.9362     0.0000     3.0000 </r>
       <r>   -13.7433     0.0000     3.0000 </r>
       <r>   -13.5503     0.0000     3.0000 </r>
       <r>   -13.3574     0.0000     3.0000 </r>
       <r>   -13.1644     0.0000     3.0000 </r>
       <r>   -12.9715     0.0000     3.0000 </r>
       <r>   -12.7785     0.0000     3.0000 </r>
       <r>   -12.5856     0.0000     3.0000 </r>
       <r>   -12.3926     0.0000     3.0000 </r>
       <r>   -12.1997     0.0000     3.0000 </r>
       <r>   -12.0067     0.0000     3.0000 </r>
       <r>   -11.8138     0.0000     3.0000 </r>
       <r>   -11.6208     0.0000     3.0000 </r>
       <r>   -11.4279     0.0000     3.0000 </r>
       <r>   -11.2349     0.0000     3.0000 </r>
       <r>   -11.0420     0.0000     3.0000 </r>
       <r>   -10.8490     0.0000     3.0000 </r>
       <r>   -10.6561     0.0000     3.0000 </r>
       <r>   -10.4631     0.0000     3.0000 </r>
       <r>   -10.2702     0.0000     3.0000 </r>
       <r>   -10.0772     0.0000     3.0000 </r>
       <r>    -9.8843     0.0000     3.0000 </r>
       <r>    -9.6913     0.0000     3.0000 </r>
       <r>    -9.4984     0.0000     3.0000 </r>
       <r>    -9.3054     0.0000     3.0000 </r>
       <r>    -9.1125     0.0000     3.0000 </r>
       <r>    -8.9195     0.0000     3.0000 </r>
       <r>    -8.7266     0.0000     3.0000 </r>
       <r>    -8.5336     0.0000     3.0000 </r>
       <r>    -8.3407     0.0000     3.0000 </r>
       <r>    -8.1477     0.0000     3.0000 </r>
       <r>    -7.9548     0.0000     3.0000 </r>
       <r>    -7.7618     0.0000     3.0000 </r>
       <r>    -7.5689     0.0000     3.0000 </r>
       <r>    -7.3759     0.0000     3.0000 </r>
       <r>    -7.1830     0.0000     3.0000 </r>
       <r>    -6.9900     0.0000     3.0000 </r>
       <r>    -6.7971     0.0000     3.0000 </r>
       <r>    -6.6041     0.0000     3.0000 </r>
       <r>    -6.4112     0.0000     3.0000 </r>
       <r>    -6.2182     0.0000     3.0000 </r>
       <r>    -6.0253     0.0000     3.0000 </r>
       <r>    -5.8323     0.0000     3.0000 </r>
       <r>    -5.6394     0.0000     3.0000 </r>
       <r>    -5.4464     0.0000     3.0000 </r>
       <r>    -5.2535     0.0000     3.0000 </r>
       <r>    -5.0605     0.0000     3.0000 </r>
       <r>    -4.8676     0.0000     3.0000 </r>
       <r>    -4.6746     0.0540     3.0104 </r>
       <r>    -4.4817     5.1244     3.9992 </r>
       <r>    -4.2887     0.0043     4.0000 </r>
       <r>    -4.0958     0.0000     4.0000 </r>
       <r>    -3.9028     0.0000     4.0000 </r>
       <r>    -3.7099     0.0000     4.0000 </r>
       <r>    -3.5169     0.0000     4.0000 </r>
       <r>    -3.3240     0.1007     4.0194 </r>
       <r>    -3.1310    25.7452     8.9870 </r>
       <r>    -2.9381     0.0675     9.0000 </r>
       <r>    -2.7451     0.0000     9.0000 </r>
       <r>    -2.5522     0.0000     9.0000 </r>
       <r>    -2.3592     0.0000     9.0000 </r>
       <r>    -2.1663     0.0000     9.0000 </r>
       <r>    -1.9733     0.0000     9.0000 </r>
       <r>    -1.7804     0.0000     9.0000 </r>
       <r>    -1.5874     0.0000     9.0000 </r>
       <r>    -1.3944     0.0000     9.0000 </r>
       <r>    -1.2015     0.0000     9.0000 </r>
       <r>    -1.0085     0.0000     9.0000 </r>
       <r>    -0.8156     0.0000     9.0000 </r>
       <r>    -0.6226     2.4684     9.4763 </r>
       <r>    -0.4297    13.0796    12.0000 </r>
       <r>    -0.2367     0.9306    12.1795 </r>
       <r>    -0.0438     4.2522    13.0000 </r>
       <r>     0.1492     0.0000    13.0000 </r>
       <r>     0.3421     0.0000    13.0000 </r>
       <r>     0.5351     0.0000    13.0000 </r>
       <r>     0.7280     0.0000    13.0000 </r>
       <r>     0.9210     4.7711    13.9206 </r>
       <r>     1.1139     5.5942    15.0000 </r>
       <r>     1.3069     0.0000    15.0000 </r>
       <r>     1.4998     0.0000    15.0000 </r>
       <r>     1.6928     9.7570    16.8826 </r>
       <r>     1.8857    10.9728    18.9998 </r>
       <r>     2.0787     0.0850    19.0162 </r>
       <r>     2.2716    15.4358    21.9946 </r>
       <r>     2.4646    12.5776    24.4214 </r>
       <r>     2.6575    13.3575    26.9988 </r>
       <r>     2.8505     0.0064    27.0000 </r>
       <r>     3.0434     0.0000    27.0000 </r>
       <r>     3.2364     0.0000    27.0000 </r>
       <r>     3.4293     0.0000    27.0000 </r>
       <r>     3.6223     1.3638    27.2631 </r>
       <r>     3.8152    13.8676    29.9389 </r>
       <r>     4.0082    21.0453    33.9996 </r>
       <r>     4.2011     0.0021    34.0000 </r>
       <r>     4.3941     0.0000    34.0000 </r>
       <r>     4.5870     0.0000    34.0000 </r>
       <r>     4.7800     0.8235    34.1589 </r>
       <r>     4.9729     4.4814    35.0236 </r>
       <r>     5.1659     5.0591    35.9997 </r>
       <r>     5.3588     0.0013    36.0000 </r>
       <r>     5.5518     0.0000    36.0000 </r>
       <r>     5.7447     0.0000    36.0000 </r>
       <r>     5.9377     0.0000    36.0000 </r>
       <r>     6.1306     0.0000    36.0000 </r>
       <r>     6.3236     0.0000    36.0000 </r>
       <r>     6.5165     0.0000    36.0000 </r>
       <r>     6.7095     0.0000    36.0000 </r>
       <r>     6.9024     0.0000    36.0000 </r>
       <r>     7.0954     0.0000    36.0000 </r>
       <r>     7.2883     0.0000    36.0000 </r>
       <r>     7.4813     0.0000    36.0000 </r>
       <r>     7.6742     0.0000    36.0000 </r>
      </set>
     </set>
    </array>
   </total>
   <partial>
    <array>
     <dimension dim="1">gridpoints</dimension>
     <dimension dim="2">spin</dimension>
     <dimension dim="3">ion</dimension>
     <field>energy</field>
     <field>    s</field>
     <field>   py</field>
     <field>   pz</field>
     <field>   px</field>
     <field>  dxy</field>
     <field>  dyz</field>
     <field>  dz2</field>
     <field>  dxz</field>
     <field>x2-y2</field>
     <set>
      <set comment="ion 1">
       <set comment="spin 1">
        <r>   -50.2109     0.0000     0.0000     0.0000     0.0000     0.0000     0.0000     0.0000     0.0000     0.0000 </r>
        <r>   -50.0180     0.0000     0.0000     0.0000     0.0000     0.0000     0.0000     0.0000     0.0000     0.0000 </r>
        <r>   -49.8250     0.0000     0.0000     0.0000     0.0000     0.0000     0.0000     0.0000     0.0000     0.0000 </r>
        <r>   -49.6321     0.0000     0.0000     0.0000     0.0000     0.0000     0.0000     0.0000     0.0000     0.0000 </r>
        <r>   -49.4391     0.0000     0.0000     0.0000     0.0000     0.0000     0.0000     0.0000     0.0000     0.0000 </r>
        <r>   -49.2462     0.0000     0.0000     0.0000     0.0000     0.0000     0.0000     0.0000     0.0000     0.0000 </r>
        <r>   -49.0532     0.0000     0.0000     0.0000     0.0000     0.0000     0.0000     0.0000     0.0000     0.0000 </r>
        <r>   -48.8603     0.0000     0.0000     0.0000     0.0000     0.0000     0.0000     0.0000     0.0000     0.0000 </r>
        <r>   -48.6673     0.0000     0.0000     0.0000     0.0000     0.0000     0.0000     0.0000     0.0000     0.0000 </r>
        <r>   -48.4744     0.0000     0.0000     0.0000     0.0000     0.0000     0.0000     0.0000     0.0000     0.0000 </r>
        <r>   -48.2814     0.0000     0.0000     0.0000     0.0000     0.0000     0.0000     0.0000     0.0000     0.0000 </r>
        <r>   -48.0885     0.0000     0.0000     0.0000     0.0000     0.0000     0.0000     0.0000     0.0000     0.0000 </r>
        <r>   -47.8955     0.0000     0.0000     0.0000     0.0000     0.0000     0.0000     0.0000     0.0000     0.0000 </r>
        <r>   -47.7026     0.0000     0.0013     0.0013     0.0013     0.0000     0.0000     0.0000     0.0000     0.0000 </r>
        <r>   -47.5096     0.0000     5.0201     5.0200     5.0201     0.0000     0.0000     0.0000     0.0000     0.0000 </r>
        <r>   -47.3167     0.0000     0.1214     0.1214     0.1214     0.0000     0.0000     0.0000     0.0000     0.0000 </r>
        <r>   -47.1237     0.0000     0.0000     0.0000     0.0000     0.0000     0.0000     0.0000     0.0000     0.0000 </r>
        <r>   -46.9308     0.0000     0.0000     0.0000     0.0000     0.0000     0.0000     0.0000     0.0000     0.0000 </r>
        <r>   -46.7378     0.0000     0.0000     0.0000     0.0000     0.0000     0.0000     0.0000     0.0000     0.0000 </r>
        <r>   -46.5449     0.0000     0.0000     0.0000     0.0000     0.0000     0.0000     0.0000     0.0000     0.0000 </r>
        <r>   -46.3519     0.0000     0.0000     0.0000     0.0000     0.0000     0.0000     0.0000     0.0000     0.0000 </r>
        <r>   -46.1590     0.0000     0.0000     0.0000     0.0000     0.0000     0.0000     0.0000     0.0000     0.0000 </r>
        <r>   -45.9660     0.0000     0.0000     0.0000     0.0000     0.0000     0.0000     0.0000     0.0000     0.0000 </r>
        <r>   -45.7731     0.0000     0.0000     0.0000     0.0000     0.0000     0.0000     0.0000     0.0000     0.0000 </r>
        <r>   -45.5801     0.0000     0.0000     0.0000     0.0000     0.0000     0.0000     0.0000     0.0000     0.0000 </r>
        <r>   -45.3872     0.0000     0.0000     0.0000     0.0000     0.0000     0.0000     0.0000     0.0000     0.0000 </r>
        <r>   -45.1942     0.0000     0.0000     0.0000     0.0000     0.0000     0.0000     0.0000     0.0000     0.0000 </r>
        <r>   -45.0013     0.0000     0.0000     0.0000     0.0000     0.0000     0.0000     0.0000     0.0000     0.0000 </r>
        <r>   -44.8083     0.0000     0.0000     0.0000     0.0000     0.0000     0.0000     0.0000     0.0000     0.0000 </r>
        <r>   -44.6154     0.0000     0.0000     0.0000     0.0000     0.0000     0.0000     0.0000     0.0000     0.0000 </r>
        <r>   -44.4224     0.0000     0.0000     0.0000     0.0000     0.0000     0.0000     0.0000     0.0000     0.0000 </r>
        <r>   -44.2295     0.0000     0.0000     0.0000     0.0000     0.0000     0.0000     0.0000     0.0000     0.0000 </r>
        <r>   -44.0365     0.0000     0.0000     0.0000     0.0000     0.0000     0.0000     0.0000     0.0000     0.0000 </r>
        <r>   -43.8436     0.0000     0.0000     0.0000     0.0000     0.0000     0.0000     0.0000     0.0000     0.0000 </r>
        <r>   -43.6506     0.0000     0.0000     0.0000     0.0000     0.0000     0.0000     0.0000     0.0000     0.0000 </r>
        <r>   -43.4577     0.0000     0.0000     0.0000     0.0000     0.0000     0.0000     0.0000     0.0000     0.0000 </r>
        <r>   -43.2647     0.0000     0.0000     0.0000     0.0000     0.0000     0.0000     0.0000     0.0000     0.0000 </r>
        <r>   -43.0718     0.0000     0.0000     0.0000     0.0000     0.0000     0.0000     0.0000     0.0000     0.0000 </r>
        <r>   -42.8788     0.0000     0.0000     0.0000     0.0000     0.0000     0.0000     0.0000     0.0000     0.0000 </r>
        <r>   -42.6859     0.0000     0.0000     0.0000     0.0000     0.0000     0.0000     0.0000     0.0000     0.0000 </r>
        <r>   -42.4929     0.0000     0.0000     0.0000     0.0000     0.0000     0.0000     0.0000     0.0000     0.0000 </r>
        <r>   -42.3000     0.0000     0.0000     0.0000     0.0000     0.0000     0.0000     0.0000     0.0000     0.0000 </r>
        <r>   -42.1070     0.0000     0.0000     0.0000     0.0000     0.0000     0.0000     0.0000     0.0000     0.0000 </r>
        <r>   -41.9140     0.0000     0.0000     0.0000     0.0000     0.0000     0.0000     0.0000     0.0000     0.0000 </r>
        <r>   -41.7211     0.0000     0.0000     0.0000     0.0000     0.0000     0.0000     0.0000     0.0000     0.0000 </r>
        <r>   -41.5281     0.0000     0.0000     0.0000     0.0000     0.0000     0.0000     0.0000     0.0000     0.0000 </r>
        <r>   -41.3352     0.0000     0.0000     0.0000     0.0000     0.0000     0.0000     0.0000     0.0000     0.0000 </r>
        <r>   -41.1422     0.0000     0.0000     0.0000     0.0000     0.0000     0.0000     0.0000     0.0000     0.0000 </r>
        <r>   -40.9493     0.0000     0.0000     0.0000     0.0000     0.0000     0.0000     0.0000     0.0000     0.0000 </r>
        <r>   -40.7563     0.0000     0.0000     0.0000     0.0000     0.0000     0.0000     0.0000     0.0000     0.0000 </r>
        <r>   -40.5634     0.0000     0.0000     0.0000     0.0000     0.0000     0.0000     0.0000     0.0000     0.0000 </r>
        <r>   -40.3704     0.0000     0.0000     0.0000     0.0000     0.0000     0.0000     0.0000     0.0000     0.0000 </r>
        <r>   -40.1775     0.0000     0.0000     0.0000     0.0000     0.0000     0.0000     0.0000     0.0000     0.0000 </r>
        <r>   -39.9845     0.0000     0.0000     0.0000     0.0000     0.0000     0.0000     0.0000     0.0000     0.0000 </r>
        <r>   -39.7916     0.0000     0.0000     0.0000     0.0000     0.0000     0.0000     0.0000     0.0000     0.0000 </r>
        <r>   -39.5986     0.0000     0.0000     0.0000     0.0000     0.0000     0.0000     0.0000     0.0000     0.0000 </r>
        <r>   -39.4057     0.0000     0.0000     0.0000     0.0000     0.0000     0.0000     0.0000     0.0000     0.0000 </r>
        <r>   -39.2127     0.0000     0.0000     0.0000     0.0000     0.0000     0.0000     0.0000     0.0000     0.0000 </r>
        <r>   -39.0198     0.0000     0.0000     0.0000     0.0000     0.0000     0.0000     0.0000     0.0000     0.0000 </r>
        <r>   -38.8268     0.0000     0.0000     0.0000     0.0000     0.0000     0.0000     0.0000     0.0000     0.0000 </r>
        <r>   -38.6339     0.0000     0.0000     0.0000     0.0000     0.0000     0.0000     0.0000     0.0000     0.0000 </r>
        <r>   -38.4409     0.0000     0.0000     0.0000     0.0000     0.0000     0.0000     0.0000     0.0000     0.0000 </r>
        <r>   -38.2480     0.0000     0.0000     0.0000     0.0000     0.0000     0.0000     0.0000     0.0000     0.0000 </r>
        <r>   -38.0550     0.0000     0.0000     0.0000     0.0000     0.0000     0.0000     0.0000     0.0000     0.0000 </r>
        <r>   -37.8621     0.0000     0.0000     0.0000     0.0000     0.0000     0.0000     0.0000     0.0000     0.0000 </r>
        <r>   -37.6691     0.0000     0.0000     0.0000     0.0000     0.0000     0.0000     0.0000     0.0000     0.0000 </r>
        <r>   -37.4762     0.0000     0.0000     0.0000     0.0000     0.0000     0.0000     0.0000     0.0000     0.0000 </r>
        <r>   -37.2832     0.0000     0.0000     0.0000     0.0000     0.0000     0.0000     0.0000     0.0000     0.0000 </r>
        <r>   -37.0903     0.0000     0.0000     0.0000     0.0000     0.0000     0.0000     0.0000     0.0000     0.0000 </r>
        <r>   -36.8973     0.0000     0.0000     0.0000     0.0000     0.0000     0.0000     0.0000     0.0000     0.0000 </r>
        <r>   -36.7044     0.0000     0.0000     0.0000     0.0000     0.0000     0.0000     0.0000     0.0000     0.0000 </r>
        <r>   -36.5114     0.0000     0.0000     0.0000     0.0000     0.0000     0.0000     0.0000     0.0000     0.0000 </r>
        <r>   -36.3185     0.0000     0.0000     0.0000     0.0000     0.0000     0.0000     0.0000     0.0000     0.0000 </r>
        <r>   -36.1255     0.0000     0.0000     0.0000     0.0000     0.0000     0.0000     0.0000     0.0000     0.0000 </r>
        <r>   -35.9326     0.0000     0.0000     0.0000     0.0000     0.0000     0.0000     0.0000     0.0000     0.0000 </r>
        <r>   -35.7396     0.0000     0.0000     0.0000     0.0000     0.0000     0.0000     0.0000     0.0000     0.0000 </r>
        <r>   -35.5467     0.0000     0.0000     0.0000     0.0000     0.0000     0.0000     0.0000     0.0000     0.0000 </r>
        <r>   -35.3537     0.0000     0.0000     0.0000     0.0000     0.0000     0.0000     0.0000     0.0000     0.0000 </r>
        <r>   -35.1608     0.0000     0.0000     0.0000     0.0000     0.0000     0.0000     0.0000     0.0000     0.0000 </r>
        <r>   -34.9678     0.0000     0.0000     0.0000     0.0000     0.0000     0.0000     0.0000     0.0000     0.0000 </r>
        <r>   -34.7749     0.0000     0.0000     0.0000     0.0000     0.0000     0.0000     0.0000     0.0000     0.0000 </r>
        <r>   -34.5819     0.0000     0.0000     0.0000     0.0000     0.0000     0.0000     0.0000     0.0000     0.0000 </r>
        <r>   -34.3890     0.0000     0.0000     0.0000     0.0000     0.0000     0.0000     0.0000     0.0000     0.0000 </r>
        <r>   -34.1960     0.0000     0.0000     0.0000     0.0000     0.0000     0.0000     0.0000     0.0000     0.0000 </r>
        <r>   -34.0031     0.0000     0.0000     0.0000     0.0000     0.0000     0.0000     0.0000     0.0000     0.0000 </r>
        <r>   -33.8101     0.0000     0.0000     0.0000     0.0000     0.0000     0.0000     0.0000     0.0000     0.0000 </r>
        <r>   -33.6172     0.0000     0.0000     0.0000     0.0000     0.0000     0.0000     0.0000     0.0000     0.0000 </r>
        <r>   -33.4242     0.0000     0.0000     0.0000     0.0000     0.0000     0.0000     0.0000     0.0000     0.0000 </r>
        <r>   -33.2313     0.0000     0.0000     0.0000     0.0000     0.0000     0.0000     0.0000     0.0000     0.0000 </r>
        <r>   -33.0383     0.0000     0.0000     0.0000     0.0000     0.0000     0.0000     0.0000     0.0000     0.0000 </r>
        <r>   -32.8454     0.0000     0.0000     0.0000     0.0000     0.0000     0.0000     0.0000     0.0000     0.0000 </r>
        <r>   -32.6524     0.0000     0.0000     0.0000     0.0000     0.0000     0.0000     0.0000     0.0000     0.0000 </r>
        <r>   -32.4595     0.0000     0.0000     0.0000     0.0000     0.0000     0.0000     0.0000     0.0000     0.0000 </r>
        <r>   -32.2665     0.0000     0.0000     0.0000     0.0000     0.0000     0.0000     0.0000     0.0000     0.0000 </r>
        <r>   -32.0736     0.0000     0.0000     0.0000     0.0000     0.0000     0.0000     0.0000     0.0000     0.0000 </r>
        <r>   -31.8806     0.0000     0.0000     0.0000     0.0000     0.0000     0.0000     0.0000     0.0000     0.0000 </r>
        <r>   -31.6877     0.0000     0.0000     0.0000     0.0000     0.0000     0.0000     0.0000     0.0000     0.0000 </r>
        <r>   -31.4947     0.0000     0.0000     0.0000     0.0000     0.0000     0.0000     0.0000     0.0000     0.0000 </r>
        <r>   -31.3018     0.0000     0.0000     0.0000     0.0000     0.0000     0.0000     0.0000     0.0000     0.0000 </r>
        <r>   -31.1088     0.0000     0.0000     0.0000     0.0000     0.0000     0.0000     0.0000     0.0000     0.0000 </r>
        <r>   -30.9159     0.0000     0.0000     0.0000     0.0000     0.0000     0.0000     0.0000     0.0000     0.0000 </r>
        <r>   -30.7229     0.0000     0.0000     0.0000     0.0000     0.0000     0.0000     0.0000     0.0000     0.0000 </r>
        <r>   -30.5300     0.0000     0.0000     0.0000     0.0000     0.0000     0.0000     0.0000     0.0000     0.0000 </r>
        <r>   -30.3370     0.0000     0.0000     0.0000     0.0000     0.0000     0.0000     0.0000     0.0000     0.0000 </r>
        <r>   -30.1441     0.0000     0.0000     0.0000     0.0000     0.0000     0.0000     0.0000     0.0000     0.0000 </r>
        <r>   -29.9511     0.0000     0.0000     0.0000     0.0000     0.0000     0.0000     0.0000     0.0000     0.0000 </r>
        <r>   -29.7582     0.0000     0.0000     0.0000     0.0000     0.0000     0.0000     0.0000     0.0000     0.0000 </r>
        <r>   -29.5652     0.0000     0.0000     0.0000     0.0000     0.0000     0.0000     0.0000     0.0000     0.0000 </r>
        <r>   -29.3723     0.0000     0.0000     0.0000     0.0000     0.0000     0.0000     0.0000     0.0000     0.0000 </r>
        <r>   -29.1793     0.0000     0.0000     0.0000     0.0000     0.0000     0.0000     0.0000     0.0000     0.0000 </r>
        <r>   -28.9864     0.0000     0.0000     0.0000     0.0000     0.0000     0.0000     0.0000     0.0000     0.0000 </r>
        <r>   -28.7934     0.0000     0.0000     0.0000     0.0000     0.0000     0.0000     0.0000     0.0000     0.0000 </r>
        <r>   -28.6005     0.0000     0.0000     0.0000     0.0000     0.0000     0.0000     0.0000     0.0000     0.0000 </r>
        <r>   -28.4075     0.0000     0.0000     0.0000     0.0000     0.0000     0.0000     0.0000     0.0000     0.0000 </r>
        <r>   -28.2146     0.0000     0.0000     0.0000     0.0000     0.0000     0.0000     0.0000     0.0000     0.0000 </r>
        <r>   -28.0216     0.0000     0.0000     0.0000     0.0000     0.0000     0.0000     0.0000     0.0000     0.0000 </r>
        <r>   -27.8287     0.0000     0.0000     0.0000     0.0000     0.0000     0.0000     0.0000     0.0000     0.0000 </r>
        <r>   -27.6357     0.0000     0.0000     0.0000     0.0000     0.0000     0.0000     0.0000     0.0000     0.0000 </r>
        <r>   -27.4428     0.0000     0.0000     0.0000     0.0000     0.0000     0.0000     0.0000     0.0000     0.0000 </r>
        <r>   -27.2498     0.0000     0.0000     0.0000     0.0000     0.0000     0.0000     0.0000     0.0000     0.0000 </r>
        <r>   -27.0569     0.0000     0.0000     0.0000     0.0000     0.0000     0.0000     0.0000     0.0000     0.0000 </r>
        <r>   -26.8639     0.0000     0.0000     0.0000     0.0000     0.0000     0.0000     0.0000     0.0000     0.0000 </r>
        <r>   -26.6710     0.0000     0.0000     0.0000     0.0000     0.0000     0.0000     0.0000     0.0000     0.0000 </r>
        <r>   -26.4780     0.0000     0.0000     0.0000     0.0000     0.0000     0.0000     0.0000     0.0000     0.0000 </r>
        <r>   -26.2851     0.0000     0.0000     0.0000     0.0000     0.0000     0.0000     0.0000     0.0000     0.0000 </r>
        <r>   -26.0921     0.0000     0.0000     0.0000     0.0000     0.0000     0.0000     0.0000     0.0000     0.0000 </r>
        <r>   -25.8992     0.0000     0.0000     0.0000     0.0000     0.0000     0.0000     0.0000     0.0000     0.0000 </r>
        <r>   -25.7062     0.0000     0.0000     0.0000     0.0000     0.0000     0.0000     0.0000     0.0000     0.0000 </r>
        <r>   -25.5133     0.0000     0.0000     0.0000     0.0000     0.0000     0.0000     0.0000     0.0000     0.0000 </r>
        <r>   -25.3203     0.0000     0.0000     0.0000     0.0000     0.0000     0.0000     0.0000     0.0000     0.0000 </r>
        <r>   -25.1274     0.0000     0.0000     0.0000     0.0000     0.0000     0.0000     0.0000     0.0000     0.0000 </r>
        <r>   -24.9344     0.0000     0.0000     0.0000     0.0000     0.0000     0.0000     0.0000     0.0000     0.0000 </r>
[...]
        <r>    -1.0085     0.0000     0.0000     0.0000     0.0000     0.0000     0.0000     0.0000     0.0000     0.0000 </r>
        <r>    -0.8156     0.0000     0.0000     0.0000     0.0000     0.0000     0.0000     0.0000     0.0000     0.0000 </r>
        <r>    -0.6226     0.0000     0.0583     0.0583     0.0584     0.0000     0.0000     0.0000     0.0000     0.0000 </r>
        <r>    -0.4297     0.0000     0.3087     0.3092     0.3094     0.0000     0.0000     0.0000     0.0000     0.0000 </r>
        <r>    -0.2367     0.0250     0.0000     0.0000     0.0000     0.0000     0.0000     0.0000     0.0000     0.0000 </r>
        <r>    -0.0438     0.1143     0.0000     0.0000     0.0000     0.0000     0.0000     0.0000     0.0000     0.0000 </r>
        <r>     0.1492     0.0000     0.0000     0.0000     0.0000     0.0000     0.0000     0.0000     0.0000     0.0000 </r>
        <r>     0.3421     0.0000     0.0000     0.0000     0.0000     0.0000     0.0000     0.0000     0.0000     0.0000 </r>
        <r>     0.5351     0.0000     0.0000     0.0000     0.0000     0.0000     0.0000     0.0000     0.0000     0.0000 </r>
        <r>     0.7280     0.0000     0.0000     0.0000     0.0000     0.0000     0.0000     0.0000     0.0000     0.0000 </r>
        <r>     0.9210     0.0000     0.0000     0.0000     0.0000     0.0000     0.0000     0.0414     0.0000     0.0413 </r>
        <r>     1.1139     0.0000     0.0000     0.0000     0.0000     0.0000     0.0000     0.0485     0.0000     0.0484 </r>
        <r>     1.3069     0.0000     0.0000     0.0000     0.0000     0.0000     0.0000     0.0000     0.0000     0.0000 </r>
        <r>     1.4998     0.0000     0.0000     0.0000     0.0000     0.0000     0.0000     0.0000     0.0000     0.0000 </r>
        <r>     1.6928     0.0042     0.0768     0.0747     0.0753     0.0000     0.0000     0.0000     0.0000     0.0000 </r>
        <r>     1.8857     0.1389     0.0478     0.0456     0.0468     0.0000     0.0000     0.0000     0.0000     0.0000 </r>
        <r>     2.0787     0.0000     0.0000     0.0000     0.0000     0.0009     0.0009     0.0000     0.0009     0.0000 </r>
        <r>     2.2716     0.0000     0.0000     0.0000     0.0000     0.1695     0.1694     0.0000     0.1694     0.0000 </r>
        <r>     2.4646     0.0000     0.0000     0.0000     0.0001     0.0003     0.0003     0.0006     0.0003     0.0006 </r>
        <r>     2.6575     0.0000     0.0000     0.0000     0.0000     0.0000     0.0000     0.0442     0.0000     0.0435 </r>
        <r>     2.8505     0.0000     0.0000     0.0000     0.0000     0.0000     0.0000     0.0000     0.0000     0.0000 </r>
        <r>     3.0434     0.0000     0.0000     0.0000     0.0000     0.0000     0.0000     0.0000     0.0000     0.0000 </r>
        <r>     3.2364     0.0000     0.0000     0.0000     0.0000     0.0000     0.0000     0.0000     0.0000     0.0000 </r>
        <r>     3.4293     0.0000     0.0000     0.0000     0.0000     0.0000     0.0000     0.0000     0.0000     0.0000 </r>
        <r>     3.6223     0.0000     0.0079     0.0171     0.0047     0.0001     0.0000     0.0001     0.0000     0.0000 </r>
        <r>     3.8152     0.1022     0.0331     0.0855     0.0327     0.0047     0.0056     0.0023     0.0042     0.0003 </r>
        <r>     4.0082     0.0445     0.0034     0.0506     0.0651     0.0695     0.0653     0.0017     0.0682     0.0010 </r>
        <r>     4.2011     0.0000     0.0000     0.0000     0.0000     0.0000     0.0000     0.0000     0.0000     0.0000 </r>
        <r>     4.3941     0.0000     0.0000     0.0000     0.0000     0.0000     0.0000     0.0000     0.0000     0.0000 </r>
        <r>     4.5870     0.0000     0.0000     0.0000     0.0000     0.0000     0.0000     0.0000     0.0000     0.0000 </r>
        <r>     4.7800     0.0192     0.0018     0.0007     0.0011     0.0000     0.0001     0.0070     0.0000     0.0026 </r>
        <r>     4.9729     0.1016     0.0098     0.0035     0.0056     0.0000     0.0003     0.0380     0.0002     0.0178 </r>
        <r>     5.1659     0.0004     0.0158     0.0035     0.0001     0.0000     0.0000     0.0357     0.0000     0.1678 </r>
        <r>     5.3588     0.0000     0.0000     0.0000     0.0000     0.0000     0.0000     0.0000     0.0000     0.0000 </r>
        <r>     5.5518     0.0000     0.0000     0.0000     0.0000     0.0000     0.0000     0.0000     0.0000     0.0000 </r>
        <r>     5.7447     0.0000     0.0000     0.0000     0.0000     0.0000     0.0000     0.0000     0.0000     0.0000 </r>
        <r>     5.9377     0.0000     0.0000     0.0000     0.0000     0.0000     0.0000     0.0000     0.0000     0.0000 </r>
        <r>     6.1306     0.0000     0.0000     0.0000     0.0000     0.0000     0.0000     0.0000     0.0000     0.0000 </r>
        <r>     6.3236     0.0000     0.0000     0.0000     0.0000     0.0000     0.0000     0.0000     0.0000     0.0000 </r>
        <r>     6.5165     0.0000     0.0000     0.0000     0.0000     0.0000     0.0000     0.0000     0.0000     0.0000 </r>
        <r>     6.7095     0.0000     0.0000     0.0000     0.0000     0.0000     0.0000     0.0000     0.0000     0.0000 </r>
        <r>     6.9024     0.0000     0.0000     0.0000     0.0000     0.0000     0.0000     0.0000     0.0000     0.0000 </r>
        <r>     7.0954     0.0000     0.0000     0.0000     0.0000     0.0000     0.0000     0.0000     0.0000     0.0000 </r>
        <r>     7.2883     0.0000     0.0000     0.0000     0.0000     0.0000     0.0000     0.0000     0.0000     0.0000 </r>
        <r>     7.4813     0.0000     0.0000     0.0000     0.0000     0.0000     0.0000     0.0000     0.0000     0.0000 </r>
        <r>     7.6742     0.0000     0.0000     0.0000     0.0000     0.0000     0.0000     0.0000     0.0000     0.0000 </r>
       </set>
      </set>
     </set>
    </array>
   </partial>
  </dos>
  <projected>
   <eigenvalues>
    <array>
     <dimension dim="1">band</dimension>
     <dimension dim="2">kpoint</dimension>
     <dimension dim="3">spin</dimension>
     <field>eigene</field>
     <field>occ</field>
     <set>
      <set comment="spin 1">
       <set comment="kpoint 1">
        <r>  -47.5798    1.0000 </r>
        <r>  -47.5798    1.0000 </r>
        <r>  -47.5798    1.0000 </r>
        <r>   -6.3462    1.0000 </r>
        <r>   -6.1811    1.0000 </r>
        <r>   -6.1811    1.0000 </r>
        <r>   -6.1811    1.0000 </r>
        <r>   -6.1808    1.0000 </r>
        <r>   -6.1808    1.0000 </r>
        <r>   -1.3096    0.0000 </r>
        <r>   -1.3096    0.0000 </r>
        <r>   -1.3096    0.0000 </r>
        <r>   -0.1785    0.0000 </r>
        <r>    0.9942    0.0000 </r>
        <r>    0.9942    0.0000 </r>
        <r>    1.6748    0.0000 </r>
        <r>    1.6749    0.0000 </r>
        <r>    1.6749    0.0000 </r>
        <r>    1.7374    0.0000 </r>
        <r>    2.1108    0.0000 </r>
        <r>    2.1108    0.0000 </r>
        <r>    2.1109    0.0000 </r>
        <r>    2.5703    0.0000 </r>
        <r>    2.5704    0.0000 </r>
        <r>    2.5718    0.0000 </r>
        <r>    2.6407    0.0000 </r>
        <r>    2.6408    0.0000 </r>
        <r>    3.6063    0.0000 </r>
        <r>    3.6490    0.0000 </r>
        <r>    3.7295    0.0000 </r>
        <r>    3.7509    0.0000 </r>
        <r>    3.9357    0.0000 </r>
        <r>    3.9384    0.0000 </r>
        <r>    3.9386    0.0000 </r>
        <r>    4.1958    0.0000 </r>
        <r>    4.5847    0.0000 </r>
       </set>
      </set>
      <set comment="spin 2">
       <set comment="kpoint 1">
        <r>  -44.9529    1.0000 </r>
        <r>  -44.9529    1.0000 </r>
        <r>  -44.9529    1.0000 </r>
        <r>   -4.5929    1.0000 </r>
        <r>   -3.2312    0.0000 </r>
        <r>   -3.2302    0.0000 </r>
        <r>   -3.2300    0.0000 </r>
        <r>   -3.2289    0.0000 </r>
        <r>   -3.2288    0.0000 </r>
        <r>   -0.5873    0.0000 </r>
        <r>   -0.5873    0.0000 </r>
        <r>   -0.5873    0.0000 </r>
        <r>   -0.2043    0.0000 </r>
        <r>    0.9245    0.0000 </r>
        <r>    0.9245    0.0000 </r>
        <r>    1.6818    0.0000 </r>
        <r>    1.6823    0.0000 </r>
        <r>    1.6824    0.0000 </r>
        <r>    1.7597    0.0000 </r>
        <r>    2.1687    0.0000 </r>
        <r>    2.1688    0.0000 </r>
        <r>    2.1688    0.0000 </r>
        <r>    2.4345    0.0000 </r>
        <r>    2.4349    0.0000 </r>
        <r>    2.4355    0.0000 </r>
        <r>    2.5432    0.0000 </r>
        <r>    2.5434    0.0000 </r>
        <r>    3.6517    0.0000 </r>
        <r>    3.6770    0.0000 </r>
        <r>    3.7926    0.0000 </r>
        <r>    3.8635    0.0000 </r>
        <r>    3.8749    0.0000 </r>
        <r>    3.8771    0.0000 </r>
        <r>    3.8827    0.0000 </r>
        <r>    4.8153    0.0000 </r>
        <r>    5.0431    0.0000 </r>
       </set>
      </set>
     </set>
    </array>
   </eigenvalues>
   <array>
    <dimension dim="1">ion</dimension>
    <dimension dim="2">band</dimension>
    <dimension dim="3">kpoint</dimension>
    <dimension dim="4">spin</dimension>
    <field>    s</field>
    <field>   py</field>
    <field>   pz</field>
    <field>   px</field>
    <field>  dxy</field>
    <field>  dyz</field>
    <field>  dz2</field>
    <field>  dxz</field>
    <field>x2-y2</field>
    <set>
     <set comment="spin1">
      <set comment="kpoint 1">
       <set comment="band 1">
        <r>  0.0000  0.2962  0.0977  0.5985  0.0000  0.0000  0.0000  0.0000  0.0000 </r>
       </set>
       <set comment="band 2">
        <r>  0.0000  0.6644  0.1571  0.1708  0.0000  0.0000  0.0000  0.0000  0.0000 </r>
       </set>
       <set comment="band 3">
        <r>  0.0000  0.0317  0.7375  0.2231  0.0000  0.0000  0.0000  0.0000  0.0000 </r>
       </set>
       <set comment="band 4">
        <r>  0.3736  0.0000  0.0000  0.0000  0.0000  0.0000  0.0000  0.0000  0.0000 </r>
       </set>
       <set comment="band 5">
        <r>  0.0000  0.0000  0.0000  0.0000  0.7653  0.0547  0.0000  0.0040  0.0000 </r>
       </set>
       <set comment="band 6">
        <r>  0.0000  0.0000  0.0000  0.0000  0.0000  0.0519  0.0000  0.7720  0.0000 </r>
       </set>
       <set comment="band 7">
        <r>  0.0000  0.0000  0.0000  0.0000  0.0587  0.7172  0.0000  0.0478  0.0000 </r>
       </set>
       <set comment="band 8">
        <r>  0.0000  0.0000  0.0000  0.0000  0.0000  0.0000  0.6428  0.0000  0.1810 </r>
       </set>
       <set comment="band 9">
        <r>  0.0000  0.0000  0.0000  0.0000  0.0000  0.0000  0.1809  0.0000  0.6427 </r>
       </set>
       <set comment="band 10">
        <r>  0.0000  0.0883  0.0240  0.0020  0.0000  0.0000  0.0000  0.0000  0.0000 </r>
       </set>
       <set comment="band 11">
        <r>  0.0000  0.0226  0.0541  0.0375  0.0000  0.0000  0.0000  0.0000  0.0000 </r>
       </set>
       <set comment="band 12">
        <r>  0.0000  0.0034  0.0361  0.0747  0.0000  0.0000  0.0000  0.0000  0.0000 </r>
       </set>
       <set comment="band 13">
        <r>  0.0243  0.0000  0.0000  0.0000  0.0000  0.0000  0.0000  0.0000  0.0000 </r>
       </set>
       <set comment="band 14">
        <r>  0.0000  0.0000  0.0000  0.0000  0.0000  0.0000  0.0024  0.0000  0.0083 </r>
       </set>
       <set comment="band 15">
        <r>  0.0000  0.0000  0.0000  0.0000  0.0000  0.0000  0.0082  0.0000  0.0024 </r>
       </set>
       <set comment="band 16">
        <r>  0.0000  0.0000  0.0118  0.0128  0.0000  0.0000  0.0000  0.0000  0.0000 </r>
       </set>
       <set comment="band 17">
        <r>  0.0000  0.0186  0.0030  0.0029  0.0000  0.0000  0.0000  0.0000  0.0000 </r>
       </set>
       <set comment="band 18">
        <r>  0.0000  0.0058  0.0098  0.0089  0.0000  0.0000  0.0000  0.0000  0.0000 </r>
       </set>
       <set comment="band 19">
        <r>  0.0269  0.0000  0.0000  0.0000  0.0000  0.0000  0.0000  0.0000  0.0000 </r>
       </set>
       <set comment="band 20">
        <r>  0.0000  0.0000  0.0000  0.0000  0.0147  0.0081  0.0000  0.0018  0.0000 </r>
       </set>
       <set comment="band 21">
        <r>  0.0000  0.0000  0.0000  0.0000  0.0011  0.0007  0.0000  0.0227  0.0000 </r>
       </set>
       <set comment="band 22">
        <r>  0.0000  0.0000  0.0000  0.0000  0.0088  0.0158  0.0000  0.0000  0.0000 </r>
       </set>
       <set comment="band 23">
        <r>  0.0000  0.0000  0.0000  0.0000  0.0000  0.0000  0.0000  0.0000  0.0000 </r>
       </set>
       <set comment="band 24">
        <r>  0.0000  0.0000  0.0000  0.0000  0.0000  0.0000  0.0000  0.0000  0.0000 </r>
       </set>
       <set comment="band 25">
        <r>  0.0000  0.0000  0.0000  0.0000  0.0000  0.0000  0.0000  0.0000  0.0000 </r>
       </set>
       <set comment="band 26">
        <r>  0.0000  0.0000  0.0000  0.0000  0.0000  0.0000  0.0000  0.0000  0.0066 </r>
       </set>
       <set comment="band 27">
        <r>  0.0000  0.0000  0.0000  0.0000  0.0000  0.0000  0.0066  0.0000  0.0000 </r>
       </set>
       <set comment="band 28">
        <r>  0.0000  0.0013  0.0116  0.0248  0.0000  0.0000  0.0000  0.0000  0.0000 </r>
       </set>
       <set comment="band 29">
        <r>  0.0002  0.0134  0.0047  0.0045  0.0000  0.0000  0.0000  0.0000  0.0000 </r>
       </set>
       <set comment="band 30">
        <r>  0.0063  0.0108  0.0161  0.0039  0.0003  0.0000  0.0021  0.0004  0.0000 </r>
       </set>
       <set comment="band 31">
        <r>  0.0239  0.0025  0.0037  0.0008  0.0000  0.0000  0.0002  0.0000  0.0000 </r>
       </set>
       <set comment="band 32">
        <r>  0.0000  0.0001  0.0000  0.0000  0.0006  0.0095  0.0000  0.0001  0.0000 </r>
       </set>
       <set comment="band 33">
        <r>  0.0000  0.0010  0.0008  0.0003  0.0010  0.0000  0.0005  0.0084  0.0001 </r>
       </set>
       <set comment="band 34">
        <r>  0.0001  0.0001  0.0002  0.0001  0.0082  0.0007  0.0001  0.0012  0.0000 </r>
       </set>
       <set comment="band 35">
        <r>  0.0010  0.0213  0.0000  0.0001  0.0001  0.0000  0.0010  0.0001  0.0016 </r>
       </set>
       <set comment="band 36">
        <r>  0.0062  0.0007  0.0012  0.0071  0.0000  0.0000  0.0000  0.0000  0.0107 </r>
       </set>
      </set>
     </set>
     <set comment="spin2">
      <set comment="kpoint 1">
       <set comment="band 1">
        <r>  0.0000  0.1742  0.7653  0.0519  0.0000  0.0000  0.0000  0.0000  0.0000 </r>
       </set>
       <set comment="band 2">
        <r>  0.0000  0.0934  0.0099  0.8881  0.0000  0.0000  0.0000  0.0000  0.0000 </r>
       </set>
       <set comment="band 3">
        <r>  0.0000  0.7238  0.2161  0.0514  0.0000  0.0000  0.0000  0.0000  0.0000 </r>
       </set>
       <set comment="band 4">
        <r>  0.3018  0.0000  0.0000  0.0000  0.0000  0.0000  0.0000  0.0000  0.0000 </r>
       </set>
       <set comment="band 5">
        <r>  0.0000  0.0000  0.0000  0.0000  0.0314  0.0286  0.3511  0.0042  0.3379 </r>
       </set>
       <set comment="band 6">
        <r>  0.0000  0.0000  0.0000  0.0000  0.0524  0.0881  0.2438  0.2105  0.1592 </r>
       </set>
       <set comment="band 7">
        <r>  0.0000  0.0000  0.0000  0.0000  0.0569  0.0286  0.1449  0.3247  0.1990 </r>
       </set>
       <set comment="band 8">
        <r>  0.0000  0.0000  0.0000  0.0000  0.5809  0.0000  0.0130  0.1356  0.0250 </r>
       </set>
       <set comment="band 9">
        <r>  0.0000  0.0000  0.0000  0.0000  0.0329  0.6090  0.0005  0.0795  0.0325 </r>
       </set>
       <set comment="band 10">
        <r>  0.0000  0.0567  0.0034  0.0108  0.0000  0.0000  0.0000  0.0000  0.0000 </r>
       </set>
       <set comment="band 11">
        <r>  0.0000  0.0095  0.0522  0.0092  0.0000  0.0000  0.0000  0.0000  0.0000 </r>
       </set>
       <set comment="band 12">
        <r>  0.0000  0.0046  0.0153  0.0510  0.0000  0.0000  0.0000  0.0000  0.0000 </r>
       </set>
       <set comment="band 13">
        <r>  0.0269  0.0000  0.0000  0.0000  0.0000  0.0000  0.0000  0.0000  0.0000 </r>
       </set>
       <set comment="band 14">
        <r>  0.0000  0.0000  0.0000  0.0000  0.0000  0.0000  0.0164  0.0000  0.0009 </r>
       </set>
       <set comment="band 15">
        <r>  0.0000  0.0000  0.0000  0.0000  0.0000  0.0000  0.0009  0.0000  0.0164 </r>
       </set>
       <set comment="band 16">
        <r>  0.0000  0.0005  0.0196  0.0029  0.0000  0.0000  0.0000  0.0000  0.0000 </r>
       </set>
       <set comment="band 17">
        <r>  0.0000  0.0135  0.0029  0.0075  0.0000  0.0000  0.0000  0.0000  0.0000 </r>
       </set>
       <set comment="band 18">
        <r>  0.0000  0.0100  0.0007  0.0131  0.0000  0.0000  0.0000  0.0000  0.0000 </r>
       </set>
       <set comment="band 19">
        <r>  0.0276  0.0000  0.0000  0.0000  0.0000  0.0000  0.0000  0.0000  0.0000 </r>
       </set>
       <set comment="band 20">
        <r>  0.0000  0.0000  0.0000  0.0000  0.0044  0.0209  0.0000  0.0076  0.0000 </r>
       </set>
       <set comment="band 21">
        <r>  0.0000  0.0000  0.0000  0.0000  0.0026  0.0114  0.0000  0.0190  0.0000 </r>
       </set>
       <set comment="band 22">
        <r>  0.0000  0.0000  0.0000  0.0000  0.0259  0.0007  0.0000  0.0063  0.0000 </r>
       </set>
       <set comment="band 23">
        <r>  0.0000  0.0000  0.0000  0.0000  0.0000  0.0000  0.0000  0.0000  0.0000 </r>
       </set>
       <set comment="band 24">
        <r>  0.0000  0.0000  0.0000  0.0000  0.0000  0.0000  0.0000  0.0000  0.0000 </r>
       </set>
       <set comment="band 25">
        <r>  0.0000  0.0000  0.0000  0.0000  0.0000  0.0000  0.0000  0.0000  0.0000 </r>
       </set>
       <set comment="band 26">
        <r>  0.0000  0.0000  0.0000  0.0000  0.0000  0.0000  0.0012  0.0000  0.0072 </r>
       </set>
       <set comment="band 27">
        <r>  0.0000  0.0000  0.0000  0.0000  0.0000  0.0000  0.0074  0.0000  0.0013 </r>
       </set>
       <set comment="band 28">
        <r>  0.0000  0.0075  0.0150  0.0035  0.0000  0.0000  0.0000  0.0000  0.0000 </r>
       </set>
       <set comment="band 29">
        <r>  0.0001  0.0002  0.0043  0.0030  0.0004  0.0000  0.0004  0.0000  0.0000 </r>
       </set>
       <set comment="band 30">
        <r>  0.0264  0.0002  0.0001  0.0001  0.0002  0.0000  0.0001  0.0000  0.0000 </r>
       </set>
       <set comment="band 31">
        <r>  0.0001  0.0006  0.0001  0.0006  0.0000  0.0101  0.0000  0.0032  0.0000 </r>
       </set>
       <set comment="band 32">
        <r>  0.0000  0.0000  0.0001  0.0002  0.0017  0.0028  0.0000  0.0096  0.0000 </r>
       </set>
       <set comment="band 33">
        <r>  0.0006  0.0000  0.0098  0.0123  0.0000  0.0002  0.0000  0.0001  0.0002 </r>
       </set>
       <set comment="band 34">
        <r>  0.0010  0.0000  0.0002  0.0000  0.0121  0.0005  0.0003  0.0010  0.0000 </r>
       </set>
       <set comment="band 35">
        <r>  0.0233  0.0022  0.0008  0.0013  0.0000  0.0001  0.0085  0.0000  0.0032 </r>
       </set>
       <set comment="band 36">
        <r>  0.0001  0.0031  0.0007  0.0000  0.0000  0.0000  0.0071  0.0000  0.0332 </r>
       </set>
      </set>
     </set>
    </set>
   </array>
  </projected>
 </calculation>
 <structure name="finalpos" >
  <crystal>
   <varray name="basis" >
    <v>      10.00000000       0.00000000       0.00000000 </v>
    <v>       0.00000000      10.00000000       0.00000000 </v>
    <v>       0.00000000       0.00000000      10.00000000 </v>
   </varray>
   <i name="volume">   1000.00000000 </i>
   <varray name="rec_basis" >
    <v>       0.10000000       0.00000000       0.00000000 </v>
    <v>       0.00000000       0.10000000       0.00000000 </v>
    <v>       0.00000000       0.00000000       0.10000000 </v>
   </varray>
  </crystal>
  <varray name="positions" >
   <v>       0.50000000       0.50000000       0.50000000 </v>
  </varray>
 </structure>
</modeling>
