       N       E                     dE             d eps       ncg     rms          ort
DAV:   1     0.147831804233E+03    0.14783E+03   -0.33733E+03    36   0.238E+02
DAV:   2     0.116867738470E+03   -0.30964E+02   -0.30949E+02    36   0.267E+01
DAV:   3     0.350991863335E+02   -0.81769E+02   -0.81765E+02    36   0.390E+01
DAV:   4     0.496496173756E+01   -0.30134E+02   -0.30087E+02    36   0.421E+01
DAV:   5     0.823240160853E+00   -0.41417E+01   -0.41341E+01    36   0.144E+01
SDA:   6     0.983905180488E+00    0.16067E+00   -0.17468E+01    36   0.437E+01 0.000E+00
DMP:   7     0.212744098459E+00   -0.77116E+00   -0.53781E+00    36   0.153E+01-0.488E+00
DMP:   8    -0.681091565609E-01   -0.28085E+00   -0.23870E+00    36   0.584E+00 0.329E-01
DMP:   9    -0.144719777684E+00   -0.76611E-01   -0.12845E+00    36   0.409E+00-0.231E+00
DMP:  10    -0.214477023302E+00   -0.69757E-01   -0.60504E-01    36   0.143E+00 0.206E-01
DMP:  11    -0.251729006095E+00   -0.37252E-01   -0.25866E-01    36   0.520E-01 0.330E-01
DMP:  12    -0.271809190161E+00   -0.20080E-01   -0.16237E-01    36   0.272E-01 0.351E-01
DMP:  13    -0.283705943291E+00   -0.11897E-01   -0.83454E-02    36   0.137E-01 0.186E-01
DMP:  14    -0.290546217000E+00   -0.68403E-02   -0.47583E-02    36   0.685E-02 0.132E-01
DMP:  15    -0.294416796217E+00   -0.38706E-02   -0.25346E-02    36   0.348E-02 0.748E-02
DMP:  16    -0.296826594570E+00   -0.24098E-02   -0.21740E-02    36   0.293E-02 0.657E-02
DMP:  17    -0.300398557219E+00   -0.35720E-02   -0.45365E-02    36   0.584E-02 0.144E-01
DMP:  18    -0.307182999104E+00   -0.67844E-02   -0.67956E-02    36   0.825E-02 0.229E-01
DMP:  19    -0.314963990288E+00   -0.77810E-02   -0.59481E-02    36   0.688E-02 0.209E-01
DMP:  20    -0.320723307753E+00   -0.57593E-02   -0.36471E-02    36   0.404E-02 0.133E-01
DMP:  21    -0.323951403071E+00   -0.32281E-02   -0.18172E-02    36   0.194E-02 0.681E-02
DMP:  22    -0.325485620890E+00   -0.15342E-02   -0.80099E-03    36   0.828E-03 0.307E-02
DMP:  23    -0.326144378982E+00   -0.65876E-03   -0.32643E-03    36   0.327E-03 0.128E-02
DMP:  24    -0.326408489299E+00   -0.26411E-03   -0.12569E-03    36   0.122E-03 0.502E-03
DMP:  25    -0.326508979079E+00   -0.10049E-03   -0.46255E-04    36   0.438E-04 0.188E-03
DMP:  26    -0.326545607116E+00   -0.36628E-04   -0.16434E-04    36   0.153E-04 0.676E-04
   1 F= -.32654561E+00 E0= -.31244303E+00  d E =-.326546E+00  mag=     1.0000
