<?xml version="1.0" encoding="ISO-8859-1"?>
<modeling>
 <generator>
  <i name="program" type="string">vasp </i>
  <i name="version" type="string">5.4.4.18Apr17-6-g9f103f2a35  </i>
  <i name="subversion" type="string">(build Nov 08 2019 15:19:53) gamma-only         parallel </i>
  <i name="platform" type="string">LinuxIFC </i>
  <i name="date" type="string">2020 11 30 </i>
  <i name="time" type="string">09:31:30 </i>
 </generator>
 <incar>
  <i type="string" name="PREC">accurate</i>
  <i type="string" name="ALGO"> D</i>
  <i type="int" name="ISPIN">     2</i>
  <i type="int" name="NELM">   300</i>
  <i type="int" name="IBRION">     2</i>
  <i name="EDIFF">      0.00005000</i>
  <i type="int" name="NSW">    99</i>
  <i type="int" name="ISIF">     2</i>
  <i name="ENCUT">    520.00000000</i>
  <v name="MAGMOM">      0.60000000</v>
  <i type="string" name="LREAL"> Auto</i>
  <i type="int" name="ISMEAR">     0</i>
  <i name="SIGMA">      0.05000000</i>
  <i type="logical" name="LWAVE"> F  </i>
  <i type="int" name="LORBIT">    11</i>
  <i type="logical" name="LASPH"> T  </i>
  <v type="int" name="KPOINT_BSE">    -1     0     0     0</v>
  <i type="int" name="NELM">   300</i>
  <i type="logical" name="LASPH"> T  </i>
 </incar>
 <structure name="primitive_cell" >
  <crystal>
   <varray name="basis" >
    <v>      10.00000000       0.00000000       0.00000000 </v>
    <v>       0.00000000      10.00000000       0.00000000 </v>
    <v>       0.00000000       0.00000000      10.00000000 </v>
   </varray>
   <i name="volume">   1000.00000000 </i>
   <varray name="rec_basis" >
    <v>       0.10000000       0.00000000       0.00000000 </v>
    <v>       0.00000000       0.10000000       0.00000000 </v>
    <v>       0.00000000       0.00000000       0.10000000 </v>
   </varray>
  </crystal>
  <varray name="positions" >
   <v>      -0.50000000      -0.50000000      -0.50000000 </v>
  </varray>
 </structure>
 <varray name="primitive_index" >
  <v type="int" >        1 </v>
 </varray>
 <kpoints>
  <generation param="Gamma">
   <v type="int" name="divisions">       1        1        1 </v>
   <v name="usershift">      0.00000000       0.00000000       0.00000000 </v>
   <v name="genvec1">      1.00000000       0.00000000       0.00000000 </v>
   <v name="genvec2">      0.00000000       1.00000000       0.00000000 </v>
   <v name="genvec3">      0.00000000       0.00000000       1.00000000 </v>
   <v name="shift">      0.00000000       0.00000000       0.00000000 </v>
  </generation>
  <varray name="kpointlist" >
   <v>       0.00000000       0.00000000       0.00000000 </v>
  </varray>
  <varray name="weights" >
   <v>       1.00000000 </v>
  </varray>
 </kpoints>
 <parameters>
  <separator name="general" >
   <i type="string" name="SYSTEM">unknown system</i>
   <i type="logical" name="LCOMPAT"> F  </i>
  </separator>
  <separator name="electronic" >
   <i type="string" name="PREC">accura</i>
   <i name="ENMAX">    520.00000000</i>
   <i name="ENAUG">    543.28100000</i>
   <i name="EDIFF">      0.00005000</i>
   <i type="int" name="IALGO">    53</i>
   <i type="int" name="IWAVPR">    11</i>
   <i type="int" name="NBANDS">    36</i>
   <i name="NELECT">     11.00000000</i>
   <i type="int" name="TURBO">     0</i>
   <i type="int" name="IRESTART">     0</i>
   <i type="int" name="NREBOOT">     0</i>
   <i type="int" name="NMIN">     0</i>
   <i name="EREF">      0.00000000</i>
   <separator name="electronic smearing" >
    <i type="int" name="ISMEAR">     0</i>
    <i name="SIGMA">      0.05000000</i>
    <i name="KSPACING">      0.50000000</i>
    <i type="logical" name="KGAMMA"> T  </i>
   </separator>
   <separator name="electronic projectors" >
    <i type="logical" name="LREAL"> T  </i>
    <v name="ROPT">     -0.00025000</v>
    <i type="int" name="LMAXPAW">  -100</i>
    <i type="int" name="LMAXMIX">     2</i>
    <i type="logical" name="NLSPLINE"> F  </i>
   </separator>
   <separator name="electronic startup" >
    <i type="int" name="ISTART">     0</i>
    <i type="int" name="ICHARG">     2</i>
    <i type="int" name="INIWAV">     1</i>
   </separator>
   <separator name="electronic spin" >
    <i type="int" name="ISPIN">     2</i>
    <i type="logical" name="LNONCOLLINEAR"> F  </i>
    <v name="MAGMOM">      0.60000000</v>
    <i name="NUPDOWN">     -1.00000000</i>
    <i type="logical" name="LSORBIT"> F  </i>
    <v name="SAXIS">      0.00000000      0.00000000      1.00000000</v>
    <i type="logical" name="LSPIRAL"> F  </i>
    <v name="QSPIRAL">      0.00000000      0.00000000      0.00000000</v>
    <i type="logical" name="LZEROZ"> F  </i>
   </separator>
   <separator name="electronic exchange-correlation" >
    <i type="logical" name="LASPH"> T  </i>
    <i type="logical" name="LMETAGGA"> F  </i>
   </separator>
   <separator name="electronic convergence" >
    <i type="int" name="NELM">   300</i>
    <i type="int" name="NELMDL">    -5</i>
    <i type="int" name="NELMIN">     2</i>
    <i name="ENINI">    520.00000000</i>
    <separator name="electronic convergence detail" >
     <i type="logical" name="LDIAG"> T  </i>
     <i type="logical" name="LSUBROT"> F  </i>
     <i name="WEIMIN">      0.00100000</i>
     <i name="EBREAK">      0.00000035</i>
     <i name="DEPER">      0.30000000</i>
     <i type="int" name="NRMM">     4</i>
     <i name="TIME">      0.40000000</i>
    </separator>
   </separator>
   <separator name="electronic mixer" >
    <i name="AMIX">      0.40000000</i>
    <i name="BMIX">      1.00000000</i>
    <i name="AMIN">      0.10000000</i>
    <i name="AMIX_MAG">      1.60000000</i>
    <i name="BMIX_MAG">      1.00000000</i>
    <separator name="electronic mixer details" >
     <i type="int" name="IMIX">     4</i>
     <i type="logical" name="MIXFIRST"> F  </i>
     <i type="int" name="MAXMIX">   -45</i>
     <i name="WC">    100.00000000</i>
     <i type="int" name="INIMIX">     1</i>
     <i type="int" name="MIXPRE">     1</i>
     <i type="int" name="MREMOVE">     5</i>
    </separator>
   </separator>
   <separator name="electronic dipolcorrection" >
    <i type="logical" name="LDIPOL"> F  </i>
    <i type="logical" name="LMONO"> F  </i>
    <i type="int" name="IDIPOL">     0</i>
    <i name="EPSILON">      1.00000000</i>
    <v name="DIPOL">   -100.00000000   -100.00000000   -100.00000000</v>
    <i name="EFIELD">      0.00000000</i>
   </separator>
  </separator>
  <separator name="grids" >
   <i type="int" name="NGX">    80</i>
   <i type="int" name="NGY">    80</i>
   <i type="int" name="NGZ">    80</i>
   <i type="int" name="NGXF">   160</i>
   <i type="int" name="NGYF">   160</i>
   <i type="int" name="NGZF">   160</i>
   <i type="logical" name="ADDGRID"> F  </i>
  </separator>
  <separator name="ionic" >
   <i type="int" name="NSW">    99</i>
   <i type="int" name="IBRION">     2</i>
   <i type="int" name="MDALGO">     0</i>
   <i type="int" name="ISIF">     2</i>
   <i name="PSTRESS">      0.00000000</i>
   <i name="EDIFFG">      0.00050000</i>
   <i type="int" name="NFREE">     1</i>
   <i name="POTIM">      0.50000000</i>
   <i name="SMASS">     -3.00000000</i>
   <i name="SCALEE">      1.00000000</i>
  </separator>
  <separator name="ionic md" >
   <i name="TEBEG">      0.00010000</i>
   <i name="TEEND">      0.00010000</i>
   <i type="int" name="NBLOCK">     1</i>
   <i type="int" name="KBLOCK">    99</i>
   <i type="int" name="NPACO">   256</i>
   <i name="APACO">     16.00000000</i>
  </separator>
  <separator name="symmetry" >
   <i type="int" name="ISYM">     2</i>
   <i name="SYMPREC">      0.00001000</i>
  </separator>
  <separator name="dos" >
   <i type="int" name="LORBIT">    11</i>
   <v name="RWIGS">     -1.00000000</v>
   <i type="int" name="NEDOS">   301</i>
   <i name="EMIN">     10.00000000</i>
   <i name="EMAX">    -10.00000000</i>
   <i name="EFERMI">      0.00000000</i>
  </separator>
  <separator name="writing" >
   <i type="int" name="NWRITE">     2</i>
   <i type="logical" name="LWAVE"> F  </i>
   <i type="logical" name="LDOWNSAMPLE"> F  </i>
   <i type="logical" name="LCHARG"> T  </i>
   <i type="logical" name="LPARD"> F  </i>
   <i type="logical" name="LVTOT"> F  </i>
   <i type="logical" name="LVHAR"> F  </i>
   <i type="logical" name="LELF"> F  </i>
   <i type="logical" name="LOPTICS"> F  </i>
   <v name="STM">      0.00000000      0.00000000      0.00000000      0.00000000      0.00000000      0.00000000      0.00000000</v>
  </separator>
  <separator name="performance" >
   <i type="int" name="NPAR">    36</i>
   <i type="int" name="NSIM">     4</i>
   <i type="int" name="NBLK">    -1</i>
   <i type="logical" name="LPLANE"> T  </i>
   <i type="logical" name="LSCALAPACK"> T  </i>
   <i type="logical" name="LSCAAWARE"> F  </i>
   <i type="logical" name="LSCALU"> F  </i>
   <i type="logical" name="LASYNC"> F  </i>
   <i type="logical" name="LORBITALREAL"> F  </i>
  </separator>
  <separator name="miscellaneous" >
   <i type="int" name="IDIOT">     3</i>
   <i type="int" name="ISPECIAL">     0</i>
   <i type="logical" name="LMUSIC"> F  </i>
   <v name="POMASS">    227.02800000</v>
   <v name="DARWINR">      0.00000000</v>
   <v name="DARWINV">      1.00000000</v>
   <i type="logical" name="LCORR"> T  </i>
  </separator>
  <i type="logical" name="GGA_COMPAT"> T  </i>
  <i type="logical" name="LBERRY"> F  </i>
  <i type="int" name="ICORELEVEL">     0</i>
  <i type="logical" name="LDAU"> F  </i>
  <i type="int" name="I_CONSTRAINED_M">     0</i>
  <separator name="electronic exchange-correlation" >
   <i type="string" name="GGA">--</i>
   <i type="int" name="VOSKOWN">     0</i>
   <i type="logical" name="LHFCALC"> F  </i>
   <i type="string" name="PRECFOCK"></i>
   <i type="logical" name="LSYMGRAD"> F  </i>
   <i type="logical" name="LHFONE"> F  </i>
   <i type="logical" name="LRHFCALC"> F  </i>
   <i type="logical" name="LTHOMAS"> F  </i>
   <i type="logical" name="LMODELHF"> F  </i>
   <i name="ENCUT4O">     -1.00000000</i>
   <i type="int" name="EXXOEP">     0</i>
   <i type="int" name="FOURORBIT">     0</i>
   <i name="AEXX">      0.00000000</i>
   <i name="HFALPHA">      0.00000000</i>
   <i name="MCALPHA">      0.00000000</i>
   <i name="ALDAX">      1.00000000</i>
   <i name="AGGAX">      1.00000000</i>
   <i name="ALDAC">      1.00000000</i>
   <i name="AGGAC">      1.00000000</i>
   <i type="int" name="NKREDX">     1</i>
   <i type="int" name="NKREDY">     1</i>
   <i type="int" name="NKREDZ">     1</i>
   <i type="logical" name="SHIFTRED"> F  </i>
   <i type="logical" name="ODDONLY"> F  </i>
   <i type="logical" name="EVENONLY"> F  </i>
   <i type="int" name="LMAXFOCK">     0</i>
   <i type="int" name="NMAXFOCKAE">     0</i>
   <i type="logical" name="LFOCKAEDFT"> F  </i>
   <i name="HFSCREEN">      0.00000000</i>
   <i name="HFSCREENC">      0.00000000</i>
   <i type="int" name="NBANDSGWLOW">     0</i>
  </separator>
  <separator name="vdW DFT" >
   <i type="logical" name="LUSE_VDW"> F  </i>
   <i name="Zab_VDW">     -0.84910000</i>
   <i name="PARAM1">      0.12340000</i>
   <i name="PARAM2">      1.00000000</i>
   <i name="PARAM3">      0.00000000</i>
  </separator>
  <separator name="model GW" >
   <i type="int" name="MODEL_GW">     0</i>
   <i name="MODEL_EPS0">    600.00000000</i>
   <i name="MODEL_ALPHA">      1.00000000</i>
  </separator>
  <separator name="linear response parameters" >
   <i type="logical" name="LEPSILON"> F  </i>
   <i type="logical" name="LRPA"> F  </i>
   <i type="logical" name="LNABLA"> F  </i>
   <i type="logical" name="LVEL"> F  </i>
   <i type="int" name="KINTER">     0</i>
   <i name="CSHIFT">      0.10000000</i>
   <i name="OMEGAMAX">     -1.00000000</i>
   <i name="DEG_THRESHOLD">      0.00200000</i>
   <i name="RTIME">     -0.10000000</i>
   <i name="WPLASMAI">      0.00000000</i>
   <v name="DFIELD">      0.00000000      0.00000000      0.00000000</v>
   <v name="WPLASMA">      0.00000000      0.00000000      0.00000000      0.00000000      0.00000000      0.00000000      0.00000000      0.00000000      0.00000000</v>
  </separator>
  <separator name="orbital magnetization" >
   <i type="logical" name="NUCIND"> F  </i>
   <v name="MAGPOS">      0.00000000      0.00000000      0.00000000</v>
   <i type="logical" name="LNICSALL"> T  </i>
   <i type="logical" name="ORBITALMAG"> F  </i>
   <i type="logical" name="LMAGBLOCH"> F  </i>
   <i type="logical" name="LCHIMAG"> F  </i>
   <i type="logical" name="LGAUGE"> T  </i>
   <i type="int" name="MAGATOM">     0</i>
   <v name="MAGDIPOL">      0.00000000      0.00000000      0.00000000</v>
   <v name="AVECCONST">      0.00000000      0.00000000      0.00000000</v>
  </separator>
  <separator name="response functions" >
   <i type="logical" name="LADDER"> F  </i>
   <i type="logical" name="LRPAFORCE"> F  </i>
   <i type="logical" name="LFXC"> F  </i>
   <i type="logical" name="LHARTREE"> T  </i>
   <i type="int" name="IBSE">     0</i>
   <v type="int" name="KPOINT">    -1     0     0     0</v>
   <i type="logical" name="LTCTE"> F  </i>
   <i type="logical" name="LTETE"> F  </i>
   <i type="logical" name="LTRIPLET"> F  </i>
   <i type="logical" name="LFXCEPS"> F  </i>
   <i type="logical" name="LFXHEG"> F  </i>
   <i type="int" name="NATURALO">     2</i>
   <i type="logical" name="L2ORDER"> F  </i>
   <i type="logical" name="LMP2LT"> F  </i>
   <i type="logical" name="LUSEW"> F  </i>
   <i name="ENCUTGW">     -2.00000000</i>
   <i name="ENCUTGWSOFT">     -2.00000000</i>
   <i name="ENCUTLF">     -1.00000000</i>
   <i type="int" name="LMAXMP2">    -1</i>
   <i name="SCISSOR">      0.00000000</i>
   <i type="int" name="NOMEGA">     0</i>
   <i type="int" name="NOMEGAR">     0</i>
   <i type="int" name="NBANDSGW">    -1</i>
   <i type="int" name="NBANDSO">    -1</i>
   <i type="int" name="NBANDSV">    -1</i>
   <i type="int" name="NELM">   300</i>
   <i type="int" name="NELMHF">     1</i>
   <i type="int" name="DIM">     3</i>
   <i type="int" name="ANTIRES">     0</i>
   <i name="OMEGAMAX">    -30.00000000</i>
   <i name="OMEGAMIN">    -30.00000000</i>
   <i name="OMEGATL">   -200.00000000</i>
   <i type="int" name="OMEGAGRID">   140</i>
   <i name="CSHIFT">     -0.10000000</i>
   <i type="logical" name="SELFENERGY"> F  </i>
   <i type="logical" name="LSPECTRAL"> F  </i>
   <i type="logical" name="LSPECTRALGW"> F  </i>
   <i type="logical" name="LSINGLES"> F  </i>
   <i type="logical" name="LFERMIGW"> F  </i>
   <i type="logical" name="ODDONLYGW"> F  </i>
   <i type="logical" name="EVENONLYGW"> F  </i>
   <i type="int" name="NKREDLFX">     1</i>
   <i type="int" name="NKREDLFY">     1</i>
   <i type="int" name="NKREDLFZ">     1</i>
   <i type="int" name="MAXMEM">  2800</i>
   <i type="int" name="TELESCOPE">     0</i>
   <i type="int" name="TAUPAR">     1</i>
   <i type="int" name="OMEGAPAR">    -1</i>
   <i name="LAMBDA">      1.00000000</i>
  </separator>
  <separator name="External order field" >
   <i name="OFIELD_KAPPA">      0.00000000</i>
   <v name="OFIELD_K">      0.00000000      0.00000000      0.00000000</v>
   <i name="OFIELD_Q6_NEAR">      0.00000000</i>
   <i name="OFIELD_Q6_FAR">      0.00000000</i>
   <i name="OFIELD_A">      0.00000000</i>
  </separator>
 </parameters>
 <atominfo>
  <atoms>       1 </atoms>
  <types>       1 </types>
  <array name="atoms" >
   <dimension dim="1">ion</dimension>
   <field type="string">element</field>
   <field type="int">atomtype</field>
   <set>
    <rc><c>Ac</c><c>   1</c></rc>
   </set>
  </array>
  <array name="atomtypes" >
   <dimension dim="1">type</dimension>
   <field type="int">atomspertype</field>
   <field type="string">element</field>
   <field>mass</field>
   <field>valence</field>
   <field type="string">pseudopotential</field>
   <set>
    <rc><c>   1</c><c>Ac</c><c>    227.02800000</c><c>     11.00000000</c><c>  PAW_PBE Ac 06Sep2000                  </c></rc>
   </set>
  </array>
 </atominfo>
 <structure name="initialpos" >
  <crystal>
   <varray name="basis" >
    <v>      10.00000000       0.00000000       0.00000000 </v>
    <v>       0.00000000      10.00000000       0.00000000 </v>
    <v>       0.00000000       0.00000000      10.00000000 </v>
   </varray>
   <i name="volume">   1000.00000000 </i>
   <varray name="rec_basis" >
    <v>       0.10000000       0.00000000       0.00000000 </v>
    <v>       0.00000000       0.10000000       0.00000000 </v>
    <v>       0.00000000       0.00000000       0.10000000 </v>
   </varray>
  </crystal>
  <varray name="positions" >
   <v>       0.50000000       0.50000000       0.50000000 </v>
  </varray>
 </structure>
 <calculation>
  <scstep>
   <time name="total">    1.36    1.37</time>
   <energy>
    <i name="alphaZ">      2.22530077 </i>
    <i name="ewald">   -247.18170407 </i>
    <i name="hartreedc">   -388.88275039 </i>
    <i name="XCdc">    -38.27507108 </i>
    <i name="pawpsdc">    665.97477718 </i>
    <i name="pawaedc">   -601.49158068 </i>
    <i name="eentropy">     -0.02631519 </i>
    <i name="bandstr">    -58.04222771 </i>
    <i name="atom">    813.53137540 </i>
    <i name="e_fr_energy">    147.83180423 </i>
    <i name="e_wo_entrp">    147.85811943 </i>
    <i name="e_0_energy">    147.84496183 </i>
   </energy>
  </scstep>
  <scstep>
   <time name="total">    0.40    0.40</time>
   <energy>
    <i name="e_fr_energy">    116.86773847 </i>
    <i name="e_wo_entrp">    116.87733203 </i>
    <i name="e_0_energy">    116.87253525 </i>
   </energy>
  </scstep>
  <scstep>
   <time name="total">    0.41    0.41</time>
   <energy>
    <i name="e_fr_energy">     35.09918633 </i>
    <i name="e_wo_entrp">     35.11666462 </i>
    <i name="e_0_energy">     35.10792548 </i>
   </energy>
  </scstep>
  <scstep>
   <time name="total">    0.41    0.41</time>
   <energy>
    <i name="e_fr_energy">      4.96496174 </i>
    <i name="e_wo_entrp">      4.98660941 </i>
    <i name="e_0_energy">      4.97578558 </i>
   </energy>
  </scstep>
  <scstep>
   <time name="total">    0.62    0.62</time>
   <energy>
    <i name="e_fr_energy">      0.82324016 </i>
    <i name="e_wo_entrp">      0.84040119 </i>
    <i name="e_0_energy">      0.83182067 </i>
   </energy>
  </scstep>
  <scstep>
   <time name="total">    1.40    1.40</time>
   <energy>
    <i name="e_fr_energy">      0.98390518 </i>
    <i name="e_wo_entrp">      0.99735321 </i>
    <i name="e_0_energy">      0.99062919 </i>
   </energy>
  </scstep>
  <scstep>
   <time name="total">    1.38    1.38</time>
   <energy>
    <i name="e_fr_energy">      0.21274410 </i>
    <i name="e_wo_entrp">      0.22146430 </i>
    <i name="e_0_energy">      0.21710420 </i>
   </energy>
  </scstep>
  <scstep>
   <time name="total">    1.37    1.37</time>
   <energy>
    <i name="e_fr_energy">     -0.06810916 </i>
    <i name="e_wo_entrp">     -0.06376170 </i>
    <i name="e_0_energy">     -0.06593543 </i>
   </energy>
  </scstep>
  <scstep>
   <time name="total">    1.38    1.38</time>
   <energy>
    <i name="e_fr_energy">     -0.14471978 </i>
    <i name="e_wo_entrp">     -0.14314253 </i>
    <i name="e_0_energy">     -0.14393116 </i>
   </energy>
  </scstep>
  <scstep>
   <time name="total">    1.38    1.38</time>
   <energy>
    <i name="e_fr_energy">     -0.21447702 </i>
    <i name="e_wo_entrp">     -0.21405477 </i>
    <i name="e_0_energy">     -0.21426590 </i>
   </energy>
  </scstep>
  <scstep>
   <time name="total">    1.37    1.37</time>
   <energy>
    <i name="e_fr_energy">     -0.25172901 </i>
    <i name="e_wo_entrp">     -0.25163717 </i>
    <i name="e_0_energy">     -0.25168309 </i>
   </energy>
  </scstep>
  <scstep>
   <time name="total">    1.38    1.38</time>
   <energy>
    <i name="e_fr_energy">     -0.27180919 </i>
    <i name="e_wo_entrp">     -0.27179019 </i>
    <i name="e_0_energy">     -0.27179969 </i>
   </energy>
  </scstep>
  <scstep>
   <time name="total">    1.37    1.37</time>
   <energy>
    <i name="e_fr_energy">     -0.28370594 </i>
    <i name="e_wo_entrp">     -0.28370080 </i>
    <i name="e_0_energy">     -0.28370337 </i>
   </energy>
  </scstep>
  <scstep>
   <time name="total">    1.37    1.37</time>
   <energy>
    <i name="e_fr_energy">     -0.29054622 </i>
    <i name="e_wo_entrp">     -0.29052248 </i>
    <i name="e_0_energy">     -0.29053435 </i>
   </energy>
  </scstep>
  <scstep>
   <time name="total">    1.38    1.38</time>
   <energy>
    <i name="e_fr_energy">     -0.29441680 </i>
    <i name="e_wo_entrp">     -0.29397747 </i>
    <i name="e_0_energy">     -0.29419713 </i>
   </energy>
  </scstep>
  <scstep>
   <time name="total">    1.37    1.37</time>
   <energy>
    <i name="e_fr_energy">     -0.29682659 </i>
    <i name="e_wo_entrp">     -0.29373989 </i>
    <i name="e_0_energy">     -0.29528324 </i>
   </energy>
  </scstep>
  <scstep>
   <time name="total">    1.36    1.36</time>
   <energy>
    <i name="e_fr_energy">     -0.30039856 </i>
    <i name="e_wo_entrp">     -0.29088520 </i>
    <i name="e_0_energy">     -0.29564188 </i>
   </energy>
  </scstep>
  <scstep>
   <time name="total">    1.37    1.37</time>
   <energy>
    <i name="e_fr_energy">     -0.30718300 </i>
    <i name="e_wo_entrp">     -0.29007436 </i>
    <i name="e_0_energy">     -0.29862868 </i>
   </energy>
  </scstep>
  <scstep>
   <time name="total">    1.37    1.37</time>
   <energy>
    <i name="e_fr_energy">     -0.31496399 </i>
    <i name="e_wo_entrp">     -0.29226427 </i>
    <i name="e_0_energy">     -0.30361413 </i>
   </energy>
  </scstep>
  <scstep>
   <time name="total">    1.36    1.36</time>
   <energy>
    <i name="e_fr_energy">     -0.32072331 </i>
    <i name="e_wo_entrp">     -0.29493344 </i>
    <i name="e_0_energy">     -0.30782837 </i>
   </energy>
  </scstep>
  <scstep>
   <time name="total">    1.41    1.41</time>
   <energy>
    <i name="e_fr_energy">     -0.32395140 </i>
    <i name="e_wo_entrp">     -0.29671907 </i>
    <i name="e_0_energy">     -0.31033524 </i>
   </energy>
  </scstep>
  <scstep>
   <time name="total">    1.37    1.37</time>
   <energy>
    <i name="e_fr_energy">     -0.32548562 </i>
    <i name="e_wo_entrp">     -0.29764651 </i>
    <i name="e_0_energy">     -0.31156607 </i>
   </energy>
  </scstep>
  <scstep>
   <time name="total">    1.36    1.36</time>
   <energy>
    <i name="e_fr_energy">     -0.32614438 </i>
    <i name="e_wo_entrp">     -0.29806775 </i>
    <i name="e_0_energy">     -0.31210607 </i>
   </energy>
  </scstep>
  <scstep>
   <time name="total">    1.37    1.37</time>
   <energy>
    <i name="e_fr_energy">     -0.32640849 </i>
    <i name="e_wo_entrp">     -0.29824415 </i>
    <i name="e_0_energy">     -0.31232632 </i>
   </energy>
  </scstep>
  <scstep>
   <time name="total">    1.38    1.38</time>
   <energy>
    <i name="e_fr_energy">     -0.32650898 </i>
    <i name="e_wo_entrp">     -0.29831395 </i>
    <i name="e_0_energy">     -0.31241147 </i>
   </energy>
  </scstep>
  <scstep>
   <time name="total">    1.42    1.42</time>
   <energy>
    <i name="alphaZ">      2.22530077 </i>
    <i name="ewald">   -247.18170407 </i>
    <i name="hartreedc">   -387.97720470 </i>
    <i name="XCdc">    -38.24187792 </i>
    <i name="pawpsdc">    666.90020658 </i>
    <i name="pawaedc">   -602.45910733 </i>
    <i name="eentropy">     -0.02820516 </i>
    <i name="bandstr">   -207.09533932 </i>
    <i name="atom">    813.53137540 </i>
    <i name="e_fr_energy">     -0.32654561 </i>
    <i name="e_wo_entrp">     -0.29834045 </i>
    <i name="e_0_energy">     -0.31244303 </i>
   </energy>
  </scstep>
  <structure>
   <crystal>
    <varray name="basis" >
     <v>      10.00000000       0.00000000       0.00000000 </v>
     <v>       0.00000000      10.00000000       0.00000000 </v>
     <v>       0.00000000       0.00000000      10.00000000 </v>
    </varray>
    <i name="volume">   1000.00000000 </i>
    <varray name="rec_basis" >
     <v>       0.10000000       0.00000000       0.00000000 </v>
     <v>       0.00000000       0.10000000       0.00000000 </v>
     <v>       0.00000000       0.00000000       0.10000000 </v>
    </varray>
   </crystal>
   <varray name="positions" >
    <v>       0.50000000       0.50000000       0.50000000 </v>
   </varray>
  </structure>
  <varray name="forces" >
   <v>       0.00000000       0.00000000       0.00000000 </v>
  </varray>
  <varray name="stress" >
   <v>      -0.36357063      -0.00000000      -0.00000000 </v>
   <v>       0.00000000      -0.36357063       0.00000000 </v>
   <v>       0.00000000       0.00000000      -0.36357063 </v>
  </varray>
  <energy>
   <i name="e_fr_energy">     -0.32654561 </i>
   <i name="e_wo_entrp">     -0.31244303 </i>
   <i name="e_0_energy">     -0.02820516 </i>
  </energy>
  <time name="totalsc">   45.12   45.30</time>
  <eigenvalues>
   <array>
    <dimension dim="1">band</dimension>
    <dimension dim="2">kpoint</dimension>
    <dimension dim="3">spin</dimension>
    <field>eigene</field>
    <field>occ</field>
    <set>
     <set comment="spin 1">
      <set comment="kpoint 1">
       <r>  -40.1734    1.0000 </r>
       <r>  -19.7784    1.0000 </r>
       <r>  -19.7784    1.0000 </r>
       <r>  -19.7784    1.0000 </r>
       <r>   -3.6116    1.0000 </r>
       <r>   -2.1754    0.5070 </r>
       <r>   -2.1754    0.4930 </r>
       <r>   -1.7887    0.0000 </r>
       <r>   -1.7887    0.0000 </r>
       <r>   -1.7886    0.0000 </r>
       <r>   -0.6253    0.0000 </r>
       <r>   -0.6251    0.0000 </r>
       <r>   -0.6248    0.0000 </r>
       <r>   -0.0247    0.0000 </r>
       <r>    0.3368    0.0000 </r>
       <r>    0.3368    0.0000 </r>
       <r>    0.3371    0.0000 </r>
       <r>    0.3968    0.0000 </r>
       <r>    0.3968    0.0000 </r>
       <r>    0.3968    0.0000 </r>
       <r>    0.5139    0.0000 </r>
       <r>    0.9368    0.0000 </r>
       <r>    0.9369    0.0000 </r>
       <r>    1.7862    0.0000 </r>
       <r>    1.7893    0.0000 </r>
       <r>    1.8103    0.0000 </r>
       <r>    2.0005    0.0000 </r>
       <r>    2.2415    0.0000 </r>
       <r>    2.2985    0.0000 </r>
       <r>    2.3072    0.0000 </r>
       <r>    2.3656    0.0000 </r>
       <r>    2.3716    0.0000 </r>
       <r>    2.3800    0.0000 </r>
       <r>    2.4066    0.0000 </r>
       <r>    2.4718    0.0000 </r>
       <r>    3.8398    0.0000 </r>
      </set>
     </set>
     <set comment="spin 2">
      <set comment="kpoint 1">
       <r>  -40.0387    1.0000 </r>
       <r>  -19.5020    1.0000 </r>
       <r>  -19.5020    1.0000 </r>
       <r>  -19.5020    1.0000 </r>
       <r>   -3.2552    1.0000 </r>
       <r>   -1.6046    0.0000 </r>
       <r>   -1.6044    0.0000 </r>
       <r>   -1.6043    0.0000 </r>
       <r>   -1.4514    0.0000 </r>
       <r>   -1.4513    0.0000 </r>
       <r>   -0.3987    0.0000 </r>
       <r>   -0.3986    0.0000 </r>
       <r>   -0.3982    0.0000 </r>
       <r>    0.0533    0.0000 </r>
       <r>    0.4861    0.0000 </r>
       <r>    0.5745    0.0000 </r>
       <r>    0.5745    0.0000 </r>
       <r>    0.5746    0.0000 </r>
       <r>    0.6681    0.0000 </r>
       <r>    0.6683    0.0000 </r>
       <r>    0.6683    0.0000 </r>
       <r>    1.1081    0.0000 </r>
       <r>    1.1084    0.0000 </r>
       <r>    1.8732    0.0000 </r>
       <r>    1.8764    0.0000 </r>
       <r>    1.8855    0.0000 </r>
       <r>    2.0730    0.0000 </r>
       <r>    2.3504    0.0000 </r>
       <r>    2.3777    0.0000 </r>
       <r>    2.3874    0.0000 </r>
       <r>    2.4154    0.0000 </r>
       <r>    2.4339    0.0000 </r>
       <r>    2.4963    0.0000 </r>
       <r>    2.5895    0.0000 </r>
       <r>    2.8699    0.0000 </r>
       <r>    3.9772    0.0000 </r>
      </set>
     </set>
    </set>
   </array>
  </eigenvalues>
  <separator name="orbital magnetization" >
   <v name="MAGDIPOLOUT">      0.00000000      0.00000000      0.00000000</v>
  </separator>
  <dos>
   <i name="efermi">     -2.17543951 </i>
   <total>
    <array>
     <dimension dim="1">gridpoints</dimension>
     <dimension dim="2">spin</dimension>
     <field>energy</field>
     <field>total</field>
     <field>integrated</field>
     <set>
      <set comment="spin 1">
       <r>   -42.3809     0.0000     0.0000 </r>
       <r>   -42.2190     0.0000     0.0000 </r>
       <r>   -42.0571     0.0000     0.0000 </r>
       <r>   -41.8952     0.0000     0.0000 </r>
       <r>   -41.7334     0.0000     0.0000 </r>
       <r>   -41.5715     0.0000     0.0000 </r>
       <r>   -41.4096     0.0000     0.0000 </r>
       <r>   -41.2477     0.0000     0.0000 </r>
       <r>   -41.0858     0.0000     0.0000 </r>
       <r>   -40.9239     0.0000     0.0000 </r>
       <r>   -40.7620     0.0000     0.0000 </r>
       <r>   -40.6002     0.0000     0.0000 </r>
       <r>   -40.4383     0.0000     0.0000 </r>
       <r>   -40.2764     0.0110     0.0018 </r>
       <r>   -40.1145     5.8700     0.9520 </r>
       <r>   -39.9526     0.2962     1.0000 </r>
       <r>   -39.7907     0.0000     1.0000 </r>
       <r>   -39.6288     0.0000     1.0000 </r>
       <r>   -39.4670     0.0000     1.0000 </r>
       <r>   -39.3051     0.0000     1.0000 </r>
       <r>   -39.1432     0.0000     1.0000 </r>
       <r>   -38.9813     0.0000     1.0000 </r>
       <r>   -38.8194     0.0000     1.0000 </r>
       <r>   -38.6575     0.0000     1.0000 </r>
       <r>   -38.4957     0.0000     1.0000 </r>
       <r>   -38.3338     0.0000     1.0000 </r>
       <r>   -38.1719     0.0000     1.0000 </r>
       <r>   -38.0100     0.0000     1.0000 </r>
       <r>   -37.8481     0.0000     1.0000 </r>
       <r>   -37.6862     0.0000     1.0000 </r>
       <r>   -37.5243     0.0000     1.0000 </r>
       <r>   -37.3625     0.0000     1.0000 </r>
       <r>   -37.2006     0.0000     1.0000 </r>
       <r>   -37.0387     0.0000     1.0000 </r>
       <r>   -36.8768     0.0000     1.0000 </r>
       <r>   -36.7149     0.0000     1.0000 </r>
       <r>   -36.5530     0.0000     1.0000 </r>
       <r>   -36.3911     0.0000     1.0000 </r>
       <r>   -36.2293     0.0000     1.0000 </r>
       <r>   -36.0674     0.0000     1.0000 </r>
       <r>   -35.9055     0.0000     1.0000 </r>
       <r>   -35.7436     0.0000     1.0000 </r>
       <r>   -35.5817     0.0000     1.0000 </r>
       <r>   -35.4198     0.0000     1.0000 </r>
       <r>   -35.2579     0.0000     1.0000 </r>
       <r>   -35.0961     0.0000     1.0000 </r>
       <r>   -34.9342     0.0000     1.0000 </r>
       <r>   -34.7723     0.0000     1.0000 </r>
       <r>   -34.6104     0.0000     1.0000 </r>
       <r>   -34.4485     0.0000     1.0000 </r>
       <r>   -34.2866     0.0000     1.0000 </r>
       <r>   -34.1248     0.0000     1.0000 </r>
       <r>   -33.9629     0.0000     1.0000 </r>
       <r>   -33.8010     0.0000     1.0000 </r>
       <r>   -33.6391     0.0000     1.0000 </r>
       <r>   -33.4772     0.0000     1.0000 </r>
       <r>   -33.3153     0.0000     1.0000 </r>
       <r>   -33.1534     0.0000     1.0000 </r>
       <r>   -32.9916     0.0000     1.0000 </r>
       <r>   -32.8297     0.0000     1.0000 </r>
       <r>   -32.6678     0.0000     1.0000 </r>
       <r>   -32.5059     0.0000     1.0000 </r>
       <r>   -32.3440     0.0000     1.0000 </r>
       <r>   -32.1821     0.0000     1.0000 </r>
       <r>   -32.0202     0.0000     1.0000 </r>
       <r>   -31.8584     0.0000     1.0000 </r>
       <r>   -31.6965     0.0000     1.0000 </r>
       <r>   -31.5346     0.0000     1.0000 </r>
       <r>   -31.3727     0.0000     1.0000 </r>
       <r>   -31.2108     0.0000     1.0000 </r>
       <r>   -31.0489     0.0000     1.0000 </r>
       <r>   -30.8870     0.0000     1.0000 </r>
       <r>   -30.7252     0.0000     1.0000 </r>
       <r>   -30.5633     0.0000     1.0000 </r>
       <r>   -30.4014     0.0000     1.0000 </r>
       <r>   -30.2395     0.0000     1.0000 </r>
       <r>   -30.0776     0.0000     1.0000 </r>
       <r>   -29.9157     0.0000     1.0000 </r>
       <r>   -29.7538     0.0000     1.0000 </r>
       <r>   -29.5920     0.0000     1.0000 </r>
       <r>   -29.4301     0.0000     1.0000 </r>
       <r>   -29.2682     0.0000     1.0000 </r>
       <r>   -29.1063     0.0000     1.0000 </r>
       <r>   -28.9444     0.0000     1.0000 </r>
       <r>   -28.7825     0.0000     1.0000 </r>
       <r>   -28.6207     0.0000     1.0000 </r>
       <r>   -28.4588     0.0000     1.0000 </r>
       <r>   -28.2969     0.0000     1.0000 </r>
       <r>   -28.1350     0.0000     1.0000 </r>
       <r>   -27.9731     0.0000     1.0000 </r>
       <r>   -27.8112     0.0000     1.0000 </r>
       <r>   -27.6493     0.0000     1.0000 </r>
       <r>   -27.4875     0.0000     1.0000 </r>
       <r>   -27.3256     0.0000     1.0000 </r>
       <r>   -27.1637     0.0000     1.0000 </r>
       <r>   -27.0018     0.0000     1.0000 </r>
       <r>   -26.8399     0.0000     1.0000 </r>
       <r>   -26.6780     0.0000     1.0000 </r>
       <r>   -26.5161     0.0000     1.0000 </r>
       <r>   -26.3543     0.0000     1.0000 </r>
       <r>   -26.1924     0.0000     1.0000 </r>
       <r>   -26.0305     0.0000     1.0000 </r>
       <r>   -25.8686     0.0000     1.0000 </r>
       <r>   -25.7067     0.0000     1.0000 </r>
       <r>   -25.5448     0.0000     1.0000 </r>
       <r>   -25.3829     0.0000     1.0000 </r>
       <r>   -25.2211     0.0000     1.0000 </r>
       <r>   -25.0592     0.0000     1.0000 </r>
       <r>   -24.8973     0.0000     1.0000 </r>
       <r>   -24.7354     0.0000     1.0000 </r>
       <r>   -24.5735     0.0000     1.0000 </r>
       <r>   -24.4116     0.0000     1.0000 </r>
       <r>   -24.2497     0.0000     1.0000 </r>
       <r>   -24.0879     0.0000     1.0000 </r>
       <r>   -23.9260     0.0000     1.0000 </r>
       <r>   -23.7641     0.0000     1.0000 </r>
       <r>   -23.6022     0.0000     1.0000 </r>
       <r>   -23.4403     0.0000     1.0000 </r>
       <r>   -23.2784     0.0000     1.0000 </r>
       <r>   -23.1166     0.0000     1.0000 </r>
       <r>   -22.9547     0.0000     1.0000 </r>
       <r>   -22.7928     0.0000     1.0000 </r>
       <r>   -22.6309     0.0000     1.0000 </r>
       <r>   -22.4690     0.0000     1.0000 </r>
       <r>   -22.3071     0.0000     1.0000 </r>
       <r>   -22.1452     0.0000     1.0000 </r>
       <r>   -21.9834     0.0000     1.0000 </r>
       <r>   -21.8215     0.0000     1.0000 </r>
       <r>   -21.6596     0.0000     1.0000 </r>
       <r>   -21.4977     0.0000     1.0000 </r>
       <r>   -21.3358     0.0000     1.0000 </r>
       <r>   -21.1739     0.0000     1.0000 </r>
       <r>   -21.0120     0.0000     1.0000 </r>
       <r>   -20.8502     0.0000     1.0000 </r>
       <r>   -20.6883     0.0000     1.0000 </r>
       <r>   -20.5264     0.0000     1.0000 </r>
       <r>   -20.3645     0.0000     1.0000 </r>
       <r>   -20.2026     0.0000     1.0000 </r>
       <r>   -20.0407     0.0000     1.0000 </r>
       <r>   -19.8788     0.0415     1.0067 </r>
       <r>   -19.7170    17.7262     3.8763 </r>
       <r>   -19.5551     0.7639     4.0000 </r>
       <r>   -19.3932     0.0000     4.0000 </r>
       <r>   -19.2313     0.0000     4.0000 </r>
       <r>   -19.0694     0.0000     4.0000 </r>
       <r>   -18.9075     0.0000     4.0000 </r>
       <r>   -18.7457     0.0000     4.0000 </r>
       <r>   -18.5838     0.0000     4.0000 </r>
       <r>   -18.4219     0.0000     4.0000 </r>
       <r>   -18.2600     0.0000     4.0000 </r>
       <r>   -18.0981     0.0000     4.0000 </r>
       <r>   -17.9362     0.0000     4.0000 </r>
       <r>   -17.7743     0.0000     4.0000 </r>
       <r>   -17.6125     0.0000     4.0000 </r>
       <r>   -17.4506     0.0000     4.0000 </r>
       <r>   -17.2887     0.0000     4.0000 </r>
       <r>   -17.1268     0.0000     4.0000 </r>
       <r>   -16.9649     0.0000     4.0000 </r>
       <r>   -16.8030     0.0000     4.0000 </r>
       <r>   -16.6411     0.0000     4.0000 </r>
       <r>   -16.4793     0.0000     4.0000 </r>
       <r>   -16.3174     0.0000     4.0000 </r>
       <r>   -16.1555     0.0000     4.0000 </r>
       <r>   -15.9936     0.0000     4.0000 </r>
       <r>   -15.8317     0.0000     4.0000 </r>
       <r>   -15.6698     0.0000     4.0000 </r>
       <r>   -15.5079     0.0000     4.0000 </r>
       <r>   -15.3461     0.0000     4.0000 </r>
       <r>   -15.1842     0.0000     4.0000 </r>
       <r>   -15.0223     0.0000     4.0000 </r>
       <r>   -14.8604     0.0000     4.0000 </r>
       <r>   -14.6985     0.0000     4.0000 </r>
       <r>   -14.5366     0.0000     4.0000 </r>
       <r>   -14.3747     0.0000     4.0000 </r>
       <r>   -14.2129     0.0000     4.0000 </r>
       <r>   -14.0510     0.0000     4.0000 </r>
       <r>   -13.8891     0.0000     4.0000 </r>
       <r>   -13.7272     0.0000     4.0000 </r>
       <r>   -13.5653     0.0000     4.0000 </r>
       <r>   -13.4034     0.0000     4.0000 </r>
       <r>   -13.2416     0.0000     4.0000 </r>
       <r>   -13.0797     0.0000     4.0000 </r>
       <r>   -12.9178     0.0000     4.0000 </r>
       <r>   -12.7559     0.0000     4.0000 </r>
       <r>   -12.5940     0.0000     4.0000 </r>
       <r>   -12.4321     0.0000     4.0000 </r>
       <r>   -12.2702     0.0000     4.0000 </r>
       <r>   -12.1084     0.0000     4.0000 </r>
       <r>   -11.9465     0.0000     4.0000 </r>
       <r>   -11.7846     0.0000     4.0000 </r>
       <r>   -11.6227     0.0000     4.0000 </r>
       <r>   -11.4608     0.0000     4.0000 </r>
       <r>   -11.2989     0.0000     4.0000 </r>
       <r>   -11.1370     0.0000     4.0000 </r>
       <r>   -10.9752     0.0000     4.0000 </r>
       <r>   -10.8133     0.0000     4.0000 </r>
       <r>   -10.6514     0.0000     4.0000 </r>
       <r>   -10.4895     0.0000     4.0000 </r>
       <r>   -10.3276     0.0000     4.0000 </r>
       <r>   -10.1657     0.0000     4.0000 </r>
       <r>   -10.0038     0.0000     4.0000 </r>
       <r>    -9.8420     0.0000     4.0000 </r>
       <r>    -9.6801     0.0000     4.0000 </r>
       <r>    -9.5182     0.0000     4.0000 </r>
       <r>    -9.3563     0.0000     4.0000 </r>
       <r>    -9.1944     0.0000     4.0000 </r>
       <r>    -9.0325     0.0000     4.0000 </r>
       <r>    -8.8707     0.0000     4.0000 </r>
       <r>    -8.7088     0.0000     4.0000 </r>
       <r>    -8.5469     0.0000     4.0000 </r>
       <r>    -8.3850     0.0000     4.0000 </r>
       <r>    -8.2231     0.0000     4.0000 </r>
       <r>    -8.0612     0.0000     4.0000 </r>
       <r>    -7.8993     0.0000     4.0000 </r>
       <r>    -7.7375     0.0000     4.0000 </r>
       <r>    -7.5756     0.0000     4.0000 </r>
       <r>    -7.4137     0.0000     4.0000 </r>
       <r>    -7.2518     0.0000     4.0000 </r>
       <r>    -7.0899     0.0000     4.0000 </r>
       <r>    -6.9280     0.0000     4.0000 </r>
       <r>    -6.7661     0.0000     4.0000 </r>
       <r>    -6.6043     0.0000     4.0000 </r>
       <r>    -6.4424     0.0000     4.0000 </r>
       <r>    -6.2805     0.0000     4.0000 </r>
       <r>    -6.1186     0.0000     4.0000 </r>
       <r>    -5.9567     0.0000     4.0000 </r>
       <r>    -5.7948     0.0000     4.0000 </r>
       <r>    -5.6329     0.0000     4.0000 </r>
       <r>    -5.4711     0.0000     4.0000 </r>
       <r>    -5.3092     0.0000     4.0000 </r>
       <r>    -5.1473     0.0000     4.0000 </r>
       <r>    -4.9854     0.0000     4.0000 </r>
       <r>    -4.8235     0.0000     4.0000 </r>
       <r>    -4.6616     0.0000     4.0000 </r>
       <r>    -4.4997     0.0000     4.0000 </r>
       <r>    -4.3379     0.0000     4.0000 </r>
       <r>    -4.1760     0.0000     4.0000 </r>
       <r>    -4.0141     0.0000     4.0000 </r>
       <r>    -3.8522     0.0000     4.0000 </r>
       <r>    -3.6903     0.0800     4.0130 </r>
       <r>    -3.5284     6.0394     4.9906 </r>
       <r>    -3.3666     0.0578     5.0000 </r>
       <r>    -3.2047     0.0000     5.0000 </r>
       <r>    -3.0428     0.0000     5.0000 </r>
       <r>    -2.8809     0.0000     5.0000 </r>
       <r>    -2.7190     0.0000     5.0000 </r>
       <r>    -2.5571     0.0000     5.0000 </r>
       <r>    -2.3952     0.0000     5.0000 </r>
       <r>    -2.2334     0.6264     5.1014 </r>
       <r>    -2.0715    11.7078     6.9967 </r>
       <r>    -1.9096     0.0260     7.0009 </r>
       <r>    -1.7477    16.2413     9.6302 </r>
       <r>    -1.5858     2.2846    10.0000 </r>
       <r>    -1.4239     0.0000    10.0000 </r>
       <r>    -1.2620     0.0000    10.0000 </r>
       <r>    -1.1002     0.0000    10.0000 </r>
       <r>    -0.9383     0.0000    10.0000 </r>
       <r>    -0.7764     0.0002    10.0000 </r>
       <r>    -0.6145    11.4393    11.8519 </r>
       <r>    -0.4526     7.0922    13.0000 </r>
       <r>    -0.2907     0.0000    13.0000 </r>
       <r>    -0.1288     0.0099    13.0016 </r>
       <r>     0.0330     5.8504    13.9487 </r>
       <r>     0.1949     0.3175    14.0001 </r>
       <r>     0.3568    15.6086    16.5269 </r>
       <r>     0.5187    24.8728    20.5534 </r>
       <r>     0.6806     2.7585    21.0000 </r>
       <r>     0.8425     0.0470    21.0076 </r>
       <r>     1.0044    11.9603    22.9438 </r>
       <r>     1.1662     0.3471    23.0000 </r>
       <r>     1.3281     0.0000    23.0000 </r>
       <r>     1.4900     0.0000    23.0000 </r>
       <r>     1.6519     0.0008    23.0001 </r>
       <r>     1.8138    12.8293    25.0770 </r>
       <r>     1.9757     7.1888    26.2408 </r>
       <r>     2.1375     4.6998    27.0016 </r>
       <r>     2.2994    11.9516    28.9364 </r>
       <r>     2.4613    33.1483    34.3026 </r>
       <r>     2.6232     4.3079    35.0000 </r>
       <r>     2.7851     0.0001    35.0000 </r>
       <r>     2.9470     0.0000    35.0000 </r>
       <r>     3.1089     0.0000    35.0000 </r>
       <r>     3.2707     0.0000    35.0000 </r>
       <r>     3.4326     0.0000    35.0000 </r>
       <r>     3.5945     0.0000    35.0000 </r>
       <r>     3.7564     0.0565    35.0091 </r>
       <r>     3.9183     6.0389    35.9868 </r>
       <r>     4.0802     0.0818    36.0000 </r>
       <r>     4.2421     0.0000    36.0000 </r>
       <r>     4.4039     0.0000    36.0000 </r>
       <r>     4.5658     0.0000    36.0000 </r>
       <r>     4.7277     0.0000    36.0000 </r>
       <r>     4.8896     0.0000    36.0000 </r>
       <r>     5.0515     0.0000    36.0000 </r>
       <r>     5.2134     0.0000    36.0000 </r>
       <r>     5.3753     0.0000    36.0000 </r>
       <r>     5.5371     0.0000    36.0000 </r>
       <r>     5.6990     0.0000    36.0000 </r>
       <r>     5.8609     0.0000    36.0000 </r>
       <r>     6.0228     0.0000    36.0000 </r>
       <r>     6.1847     0.0000    36.0000 </r>
      </set>
      <set comment="spin 2">
       <r>   -42.3809     0.0000     0.0000 </r>
       <r>   -42.2190     0.0000     0.0000 </r>
       <r>   -42.0571     0.0000     0.0000 </r>
       <r>   -41.8952     0.0000     0.0000 </r>
       <r>   -41.7334     0.0000     0.0000 </r>
       <r>   -41.5715     0.0000     0.0000 </r>
       <r>   -41.4096     0.0000     0.0000 </r>
       <r>   -41.2477     0.0000     0.0000 </r>
       <r>   -41.0858     0.0000     0.0000 </r>
       <r>   -40.9239     0.0000     0.0000 </r>
       <r>   -40.7620     0.0000     0.0000 </r>
       <r>   -40.6002     0.0000     0.0000 </r>
       <r>   -40.4383     0.0000     0.0000 </r>
       <r>   -40.2764     0.0000     0.0000 </r>
       <r>   -40.1145     0.0988     0.0160 </r>
       <r>   -39.9526     6.0323     0.9925 </r>
       <r>   -39.7907     0.0461     1.0000 </r>
       <r>   -39.6288     0.0000     1.0000 </r>
       <r>   -39.4670     0.0000     1.0000 </r>
       <r>   -39.3051     0.0000     1.0000 </r>
       <r>   -39.1432     0.0000     1.0000 </r>
       <r>   -38.9813     0.0000     1.0000 </r>
       <r>   -38.8194     0.0000     1.0000 </r>
       <r>   -38.6575     0.0000     1.0000 </r>
       <r>   -38.4957     0.0000     1.0000 </r>
       <r>   -38.3338     0.0000     1.0000 </r>
       <r>   -38.1719     0.0000     1.0000 </r>
       <r>   -38.0100     0.0000     1.0000 </r>
       <r>   -37.8481     0.0000     1.0000 </r>
       <r>   -37.6862     0.0000     1.0000 </r>
       <r>   -37.5243     0.0000     1.0000 </r>
       <r>   -37.3625     0.0000     1.0000 </r>
       <r>   -37.2006     0.0000     1.0000 </r>
       <r>   -37.0387     0.0000     1.0000 </r>
       <r>   -36.8768     0.0000     1.0000 </r>
       <r>   -36.7149     0.0000     1.0000 </r>
       <r>   -36.5530     0.0000     1.0000 </r>
       <r>   -36.3911     0.0000     1.0000 </r>
       <r>   -36.2293     0.0000     1.0000 </r>
       <r>   -36.0674     0.0000     1.0000 </r>
       <r>   -35.9055     0.0000     1.0000 </r>
       <r>   -35.7436     0.0000     1.0000 </r>
       <r>   -35.5817     0.0000     1.0000 </r>
       <r>   -35.4198     0.0000     1.0000 </r>
       <r>   -35.2579     0.0000     1.0000 </r>
       <r>   -35.0961     0.0000     1.0000 </r>
       <r>   -34.9342     0.0000     1.0000 </r>
       <r>   -34.7723     0.0000     1.0000 </r>
       <r>   -34.6104     0.0000     1.0000 </r>
       <r>   -34.4485     0.0000     1.0000 </r>
       <r>   -34.2866     0.0000     1.0000 </r>
       <r>   -34.1248     0.0000     1.0000 </r>
       <r>   -33.9629     0.0000     1.0000 </r>
       <r>   -33.8010     0.0000     1.0000 </r>
       <r>   -33.6391     0.0000     1.0000 </r>
       <r>   -33.4772     0.0000     1.0000 </r>
       <r>   -33.3153     0.0000     1.0000 </r>
       <r>   -33.1534     0.0000     1.0000 </r>
       <r>   -32.9916     0.0000     1.0000 </r>
       <r>   -32.8297     0.0000     1.0000 </r>
       <r>   -32.6678     0.0000     1.0000 </r>
       <r>   -32.5059     0.0000     1.0000 </r>
       <r>   -32.3440     0.0000     1.0000 </r>
       <r>   -32.1821     0.0000     1.0000 </r>
       <r>   -32.0202     0.0000     1.0000 </r>
       <r>   -31.8584     0.0000     1.0000 </r>
       <r>   -31.6965     0.0000     1.0000 </r>
       <r>   -31.5346     0.0000     1.0000 </r>
       <r>   -31.3727     0.0000     1.0000 </r>
       <r>   -31.2108     0.0000     1.0000 </r>
       <r>   -31.0489     0.0000     1.0000 </r>
       <r>   -30.8870     0.0000     1.0000 </r>
       <r>   -30.7252     0.0000     1.0000 </r>
       <r>   -30.5633     0.0000     1.0000 </r>
       <r>   -30.4014     0.0000     1.0000 </r>
       <r>   -30.2395     0.0000     1.0000 </r>
       <r>   -30.0776     0.0000     1.0000 </r>
       <r>   -29.9157     0.0000     1.0000 </r>
       <r>   -29.7538     0.0000     1.0000 </r>
       <r>   -29.5920     0.0000     1.0000 </r>
       <r>   -29.4301     0.0000     1.0000 </r>
       <r>   -29.2682     0.0000     1.0000 </r>
       <r>   -29.1063     0.0000     1.0000 </r>
       <r>   -28.9444     0.0000     1.0000 </r>
       <r>   -28.7825     0.0000     1.0000 </r>
       <r>   -28.6207     0.0000     1.0000 </r>
       <r>   -28.4588     0.0000     1.0000 </r>
       <r>   -28.2969     0.0000     1.0000 </r>
       <r>   -28.1350     0.0000     1.0000 </r>
       <r>   -27.9731     0.0000     1.0000 </r>
       <r>   -27.8112     0.0000     1.0000 </r>
       <r>   -27.6493     0.0000     1.0000 </r>
       <r>   -27.4875     0.0000     1.0000 </r>
       <r>   -27.3256     0.0000     1.0000 </r>
       <r>   -27.1637     0.0000     1.0000 </r>
       <r>   -27.0018     0.0000     1.0000 </r>
       <r>   -26.8399     0.0000     1.0000 </r>
       <r>   -26.6780     0.0000     1.0000 </r>
       <r>   -26.5161     0.0000     1.0000 </r>
       <r>   -26.3543     0.0000     1.0000 </r>
       <r>   -26.1924     0.0000     1.0000 </r>
       <r>   -26.0305     0.0000     1.0000 </r>
       <r>   -25.8686     0.0000     1.0000 </r>
       <r>   -25.7067     0.0000     1.0000 </r>
       <r>   -25.5448     0.0000     1.0000 </r>
       <r>   -25.3829     0.0000     1.0000 </r>
       <r>   -25.2211     0.0000     1.0000 </r>
       <r>   -25.0592     0.0000     1.0000 </r>
       <r>   -24.8973     0.0000     1.0000 </r>
       <r>   -24.7354     0.0000     1.0000 </r>
       <r>   -24.5735     0.0000     1.0000 </r>
       <r>   -24.4116     0.0000     1.0000 </r>
       <r>   -24.2497     0.0000     1.0000 </r>
       <r>   -24.0879     0.0000     1.0000 </r>
       <r>   -23.9260     0.0000     1.0000 </r>
       <r>   -23.7641     0.0000     1.0000 </r>
       <r>   -23.6022     0.0000     1.0000 </r>
       <r>   -23.4403     0.0000     1.0000 </r>
       <r>   -23.2784     0.0000     1.0000 </r>
       <r>   -23.1166     0.0000     1.0000 </r>
       <r>   -22.9547     0.0000     1.0000 </r>
       <r>   -22.7928     0.0000     1.0000 </r>
       <r>   -22.6309     0.0000     1.0000 </r>
       <r>   -22.4690     0.0000     1.0000 </r>
       <r>   -22.3071     0.0000     1.0000 </r>
       <r>   -22.1452     0.0000     1.0000 </r>
       <r>   -21.9834     0.0000     1.0000 </r>
       <r>   -21.8215     0.0000     1.0000 </r>
       <r>   -21.6596     0.0000     1.0000 </r>
       <r>   -21.4977     0.0000     1.0000 </r>
       <r>   -21.3358     0.0000     1.0000 </r>
       <r>   -21.1739     0.0000     1.0000 </r>
       <r>   -21.0120     0.0000     1.0000 </r>
       <r>   -20.8502     0.0000     1.0000 </r>
       <r>   -20.6883     0.0000     1.0000 </r>
       <r>   -20.5264     0.0000     1.0000 </r>
       <r>   -20.3645     0.0000     1.0000 </r>
       <r>   -20.2026     0.0000     1.0000 </r>
       <r>   -20.0407     0.0000     1.0000 </r>
       <r>   -19.8788     0.0000     1.0000 </r>
       <r>   -19.7170     0.0000     1.0000 </r>
       <r>   -19.5551     1.2339     1.1998 </r>
       <r>   -19.3932    17.2783     3.9969 </r>
       <r>   -19.2313     0.0194     4.0000 </r>
       <r>   -19.0694     0.0000     4.0000 </r>
       <r>   -18.9075     0.0000     4.0000 </r>
       <r>   -18.7457     0.0000     4.0000 </r>
       <r>   -18.5838     0.0000     4.0000 </r>
       <r>   -18.4219     0.0000     4.0000 </r>
       <r>   -18.2600     0.0000     4.0000 </r>
       <r>   -18.0981     0.0000     4.0000 </r>
       <r>   -17.9362     0.0000     4.0000 </r>
       <r>   -17.7743     0.0000     4.0000 </r>
       <r>   -17.6125     0.0000     4.0000 </r>
       <r>   -17.4506     0.0000     4.0000 </r>
       <r>   -17.2887     0.0000     4.0000 </r>
       <r>   -17.1268     0.0000     4.0000 </r>
       <r>   -16.9649     0.0000     4.0000 </r>
       <r>   -16.8030     0.0000     4.0000 </r>
       <r>   -16.6411     0.0000     4.0000 </r>
       <r>   -16.4793     0.0000     4.0000 </r>
       <r>   -16.3174     0.0000     4.0000 </r>
       <r>   -16.1555     0.0000     4.0000 </r>
       <r>   -15.9936     0.0000     4.0000 </r>
       <r>   -15.8317     0.0000     4.0000 </r>
       <r>   -15.6698     0.0000     4.0000 </r>
       <r>   -15.5079     0.0000     4.0000 </r>
       <r>   -15.3461     0.0000     4.0000 </r>
       <r>   -15.1842     0.0000     4.0000 </r>
       <r>   -15.0223     0.0000     4.0000 </r>
       <r>   -14.8604     0.0000     4.0000 </r>
       <r>   -14.6985     0.0000     4.0000 </r>
       <r>   -14.5366     0.0000     4.0000 </r>
       <r>   -14.3747     0.0000     4.0000 </r>
       <r>   -14.2129     0.0000     4.0000 </r>
       <r>   -14.0510     0.0000     4.0000 </r>
       <r>   -13.8891     0.0000     4.0000 </r>
       <r>   -13.7272     0.0000     4.0000 </r>
       <r>   -13.5653     0.0000     4.0000 </r>
       <r>   -13.4034     0.0000     4.0000 </r>
       <r>   -13.2416     0.0000     4.0000 </r>
       <r>   -13.0797     0.0000     4.0000 </r>
       <r>   -12.9178     0.0000     4.0000 </r>
       <r>   -12.7559     0.0000     4.0000 </r>
       <r>   -12.5940     0.0000     4.0000 </r>
       <r>   -12.4321     0.0000     4.0000 </r>
       <r>   -12.2702     0.0000     4.0000 </r>
       <r>   -12.1084     0.0000     4.0000 </r>
       <r>   -11.9465     0.0000     4.0000 </r>
       <r>   -11.7846     0.0000     4.0000 </r>
       <r>   -11.6227     0.0000     4.0000 </r>
       <r>   -11.4608     0.0000     4.0000 </r>
       <r>   -11.2989     0.0000     4.0000 </r>
       <r>   -11.1370     0.0000     4.0000 </r>
       <r>   -10.9752     0.0000     4.0000 </r>
       <r>   -10.8133     0.0000     4.0000 </r>
       <r>   -10.6514     0.0000     4.0000 </r>
       <r>   -10.4895     0.0000     4.0000 </r>
       <r>   -10.3276     0.0000     4.0000 </r>
       <r>   -10.1657     0.0000     4.0000 </r>
       <r>   -10.0038     0.0000     4.0000 </r>
       <r>    -9.8420     0.0000     4.0000 </r>
       <r>    -9.6801     0.0000     4.0000 </r>
       <r>    -9.5182     0.0000     4.0000 </r>
       <r>    -9.3563     0.0000     4.0000 </r>
       <r>    -9.1944     0.0000     4.0000 </r>
       <r>    -9.0325     0.0000     4.0000 </r>
       <r>    -8.8707     0.0000     4.0000 </r>
       <r>    -8.7088     0.0000     4.0000 </r>
       <r>    -8.5469     0.0000     4.0000 </r>
       <r>    -8.3850     0.0000     4.0000 </r>
       <r>    -8.2231     0.0000     4.0000 </r>
       <r>    -8.0612     0.0000     4.0000 </r>
       <r>    -7.8993     0.0000     4.0000 </r>
       <r>    -7.7375     0.0000     4.0000 </r>
       <r>    -7.5756     0.0000     4.0000 </r>
       <r>    -7.4137     0.0000     4.0000 </r>
       <r>    -7.2518     0.0000     4.0000 </r>
       <r>    -7.0899     0.0000     4.0000 </r>
       <r>    -6.9280     0.0000     4.0000 </r>
       <r>    -6.7661     0.0000     4.0000 </r>
       <r>    -6.6043     0.0000     4.0000 </r>
       <r>    -6.4424     0.0000     4.0000 </r>
       <r>    -6.2805     0.0000     4.0000 </r>
       <r>    -6.1186     0.0000     4.0000 </r>
       <r>    -5.9567     0.0000     4.0000 </r>
       <r>    -5.7948     0.0000     4.0000 </r>
       <r>    -5.6329     0.0000     4.0000 </r>
       <r>    -5.4711     0.0000     4.0000 </r>
       <r>    -5.3092     0.0000     4.0000 </r>
       <r>    -5.1473     0.0000     4.0000 </r>
       <r>    -4.9854     0.0000     4.0000 </r>
       <r>    -4.8235     0.0000     4.0000 </r>
       <r>    -4.6616     0.0000     4.0000 </r>
       <r>    -4.4997     0.0000     4.0000 </r>
       <r>    -4.3379     0.0000     4.0000 </r>
       <r>    -4.1760     0.0000     4.0000 </r>
       <r>    -4.0141     0.0000     4.0000 </r>
       <r>    -3.8522     0.0000     4.0000 </r>
       <r>    -3.6903     0.0000     4.0000 </r>
       <r>    -3.5284     0.0000     4.0000 </r>
       <r>    -3.3666     0.0051     4.0008 </r>
       <r>    -3.2047     5.7009     4.9237 </r>
       <r>    -3.0428     0.4712     5.0000 </r>
       <r>    -2.8809     0.0000     5.0000 </r>
       <r>    -2.7190     0.0000     5.0000 </r>
       <r>    -2.5571     0.0000     5.0000 </r>
       <r>    -2.3952     0.0000     5.0000 </r>
       <r>    -2.2334     0.0000     5.0000 </r>
       <r>    -2.0715     0.0000     5.0000 </r>
       <r>    -1.9096     0.0000     5.0000 </r>
       <r>    -1.7477     0.0005     5.0001 </r>
       <r>    -1.5858    12.9885     7.1027 </r>
       <r>    -1.4239    15.1923     9.5621 </r>
       <r>    -1.2620     2.7049    10.0000 </r>
       <r>    -1.1002     0.0000    10.0000 </r>
       <r>    -0.9383     0.0000    10.0000 </r>
       <r>    -0.7764     0.0000    10.0000 </r>
       <r>    -0.6145     0.0000    10.0000 </r>
       <r>    -0.4526     1.1668    10.1889 </r>
       <r>    -0.2907    17.3435    12.9965 </r>
       <r>    -0.1288     0.0213    13.0000 </r>
       <r>     0.0330     1.7514    13.2835 </r>
       <r>     0.1949     4.4256    14.0000 </r>
       <r>     0.3568     0.0010    14.0001 </r>
       <r>     0.5187     6.1317    14.9928 </r>
       <r>     0.6806    30.3438    19.9050 </r>
       <r>     0.8425     6.7642    21.0000 </r>
       <r>     1.0044     0.0204    21.0033 </r>
       <r>     1.1662    11.7101    22.8990 </r>
       <r>     1.3281     0.6240    23.0000 </r>
       <r>     1.4900     0.0000    23.0000 </r>
       <r>     1.6519     0.0000    23.0000 </r>
       <r>     1.8138     0.6528    23.1057 </r>
       <r>     1.9757    17.8367    25.9932 </r>
       <r>     2.1375     6.0100    26.9661 </r>
       <r>     2.2994     0.7979    27.0953 </r>
       <r>     2.4613    29.1682    31.8172 </r>
       <r>     2.6232    12.4322    33.8298 </r>
       <r>     2.7851     1.1021    34.0082 </r>
       <r>     2.9470     6.0359    34.9853 </r>
       <r>     3.1089     0.0906    35.0000 </r>
       <r>     3.2707     0.0000    35.0000 </r>
       <r>     3.4326     0.0000    35.0000 </r>
       <r>     3.5945     0.0000    35.0000 </r>
       <r>     3.7564     0.0000    35.0000 </r>
       <r>     3.9183     0.2962    35.0480 </r>
       <r>     4.0802     5.8700    35.9982 </r>
       <r>     4.2421     0.0110    36.0000 </r>
       <r>     4.4039     0.0000    36.0000 </r>
       <r>     4.5658     0.0000    36.0000 </r>
       <r>     4.7277     0.0000    36.0000 </r>
       <r>     4.8896     0.0000    36.0000 </r>
       <r>     5.0515     0.0000    36.0000 </r>
       <r>     5.2134     0.0000    36.0000 </r>
       <r>     5.3753     0.0000    36.0000 </r>
       <r>     5.5371     0.0000    36.0000 </r>
       <r>     5.6990     0.0000    36.0000 </r>
       <r>     5.8609     0.0000    36.0000 </r>
       <r>     6.0228     0.0000    36.0000 </r>
       <r>     6.1847     0.0000    36.0000 </r>
      </set>
     </set>
    </array>
   </total>
   <partial>
    <array>
     <dimension dim="1">gridpoints</dimension>
     <dimension dim="2">spin</dimension>
     <dimension dim="3">ion</dimension>
     <field>energy</field>
     <field>    s</field>
     <field>   py</field>
     <field>   pz</field>
     <field>   px</field>
     <field>  dxy</field>
     <field>  dyz</field>
     <field>  dz2</field>
     <field>  dxz</field>
     <field>x2-y2</field>
     <field>fy3x2</field>
     <field> fxyz</field>
     <field> fyz2</field>
     <field>  fz3</field>
     <field> fxz2</field>
     <field> fzx2</field>
     <field>  fx3</field>
     <set>
      <set comment="ion 1">
       <set comment="spin 1">
        <r>   -42.3809     0.0000     0.0000     0.0000     0.0000     0.0000     0.0000     0.0000     0.0000     0.0000     0.0000     0.0000     0.0000     0.0000     0.0000     0.0000     0.0000 </r>
        <r>   -42.2190     0.0000     0.0000     0.0000     0.0000     0.0000     0.0000     0.0000     0.0000     0.0000     0.0000     0.0000     0.0000     0.0000     0.0000     0.0000     0.0000 </r>
        <r>   -42.0571     0.0000     0.0000     0.0000     0.0000     0.0000     0.0000     0.0000     0.0000     0.0000     0.0000     0.0000     0.0000     0.0000     0.0000     0.0000     0.0000 </r>
        <r>   -41.8952     0.0000     0.0000     0.0000     0.0000     0.0000     0.0000     0.0000     0.0000     0.0000     0.0000     0.0000     0.0000     0.0000     0.0000     0.0000     0.0000 </r>
        <r>   -41.7334     0.0000     0.0000     0.0000     0.0000     0.0000     0.0000     0.0000     0.0000     0.0000     0.0000     0.0000     0.0000     0.0000     0.0000     0.0000     0.0000 </r>
        <r>   -41.5715     0.0000     0.0000     0.0000     0.0000     0.0000     0.0000     0.0000     0.0000     0.0000     0.0000     0.0000     0.0000     0.0000     0.0000     0.0000     0.0000 </r>
        <r>   -41.4096     0.0000     0.0000     0.0000     0.0000     0.0000     0.0000     0.0000     0.0000     0.0000     0.0000     0.0000     0.0000     0.0000     0.0000     0.0000     0.0000 </r>
        <r>   -41.2477     0.0000     0.0000     0.0000     0.0000     0.0000     0.0000     0.0000     0.0000     0.0000     0.0000     0.0000     0.0000     0.0000     0.0000     0.0000     0.0000 </r>
        <r>   -41.0858     0.0000     0.0000     0.0000     0.0000     0.0000     0.0000     0.0000     0.0000     0.0000     0.0000     0.0000     0.0000     0.0000     0.0000     0.0000     0.0000 </r>
        <r>   -40.9239     0.0000     0.0000     0.0000     0.0000     0.0000     0.0000     0.0000     0.0000     0.0000     0.0000     0.0000     0.0000     0.0000     0.0000     0.0000     0.0000 </r>
        <r>   -40.7620     0.0000     0.0000     0.0000     0.0000     0.0000     0.0000     0.0000     0.0000     0.0000     0.0000     0.0000     0.0000     0.0000     0.0000     0.0000     0.0000 </r>
        <r>   -40.6002     0.0000     0.0000     0.0000     0.0000     0.0000     0.0000     0.0000     0.0000     0.0000     0.0000     0.0000     0.0000     0.0000     0.0000     0.0000     0.0000 </r>
        <r>   -40.4383     0.0000     0.0000     0.0000     0.0000     0.0000     0.0000     0.0000     0.0000     0.0000     0.0000     0.0000     0.0000     0.0000     0.0000     0.0000     0.0000 </r>
        <r>   -40.2764     0.0108     0.0000     0.0000     0.0000     0.0000     0.0000     0.0000     0.0000     0.0000     0.0000     0.0000     0.0000     0.0000     0.0000     0.0000     0.0000 </r>
        <r>   -40.1145     5.7730     0.0000     0.0000     0.0000     0.0000     0.0000     0.0000     0.0000     0.0000     0.0000     0.0000     0.0000     0.0000     0.0000     0.0000     0.0000 </r>
        <r>   -39.9526     0.2913     0.0000     0.0000     0.0000     0.0000     0.0000     0.0000     0.0000     0.0000     0.0000     0.0000     0.0000     0.0000     0.0000     0.0000     0.0000 </r>
        <r>   -39.7907     0.0000     0.0000     0.0000     0.0000     0.0000     0.0000     0.0000     0.0000     0.0000     0.0000     0.0000     0.0000     0.0000     0.0000     0.0000     0.0000 </r>
        <r>   -39.6288     0.0000     0.0000     0.0000     0.0000     0.0000     0.0000     0.0000     0.0000     0.0000     0.0000     0.0000     0.0000     0.0000     0.0000     0.0000     0.0000 </r>
        <r>   -39.4670     0.0000     0.0000     0.0000     0.0000     0.0000     0.0000     0.0000     0.0000     0.0000     0.0000     0.0000     0.0000     0.0000     0.0000     0.0000     0.0000 </r>
        <r>   -39.3051     0.0000     0.0000     0.0000     0.0000     0.0000     0.0000     0.0000     0.0000     0.0000     0.0000     0.0000     0.0000     0.0000     0.0000     0.0000     0.0000 </r>
        <r>   -39.1432     0.0000     0.0000     0.0000     0.0000     0.0000     0.0000     0.0000     0.0000     0.0000     0.0000     0.0000     0.0000     0.0000     0.0000     0.0000     0.0000 </r>
        <r>   -38.9813     0.0000     0.0000     0.0000     0.0000     0.0000     0.0000     0.0000     0.0000     0.0000     0.0000     0.0000     0.0000     0.0000     0.0000     0.0000     0.0000 </r>
        <r>   -38.8194     0.0000     0.0000     0.0000     0.0000     0.0000     0.0000     0.0000     0.0000     0.0000     0.0000     0.0000     0.0000     0.0000     0.0000     0.0000     0.0000 </r>
        <r>   -38.6575     0.0000     0.0000     0.0000     0.0000     0.0000     0.0000     0.0000     0.0000     0.0000     0.0000     0.0000     0.0000     0.0000     0.0000     0.0000     0.0000 </r>
        <r>   -38.4957     0.0000     0.0000     0.0000     0.0000     0.0000     0.0000     0.0000     0.0000     0.0000     0.0000     0.0000     0.0000     0.0000     0.0000     0.0000     0.0000 </r>
        <r>   -38.3338     0.0000     0.0000     0.0000     0.0000     0.0000     0.0000     0.0000     0.0000     0.0000     0.0000     0.0000     0.0000     0.0000     0.0000     0.0000     0.0000 </r>
        <r>   -38.1719     0.0000     0.0000     0.0000     0.0000     0.0000     0.0000     0.0000     0.0000     0.0000     0.0000     0.0000     0.0000     0.0000     0.0000     0.0000     0.0000 </r>
        <r>   -38.0100     0.0000     0.0000     0.0000     0.0000     0.0000     0.0000     0.0000     0.0000     0.0000     0.0000     0.0000     0.0000     0.0000     0.0000     0.0000     0.0000 </r>
        <r>   -37.8481     0.0000     0.0000     0.0000     0.0000     0.0000     0.0000     0.0000     0.0000     0.0000     0.0000     0.0000     0.0000     0.0000     0.0000     0.0000     0.0000 </r>
        <r>   -37.6862     0.0000     0.0000     0.0000     0.0000     0.0000     0.0000     0.0000     0.0000     0.0000     0.0000     0.0000     0.0000     0.0000     0.0000     0.0000     0.0000 </r>
        <r>   -37.5243     0.0000     0.0000     0.0000     0.0000     0.0000     0.0000     0.0000     0.0000     0.0000     0.0000     0.0000     0.0000     0.0000     0.0000     0.0000     0.0000 </r>
        <r>   -37.3625     0.0000     0.0000     0.0000     0.0000     0.0000     0.0000     0.0000     0.0000     0.0000     0.0000     0.0000     0.0000     0.0000     0.0000     0.0000     0.0000 </r>
        <r>   -37.2006     0.0000     0.0000     0.0000     0.0000     0.0000     0.0000     0.0000     0.0000     0.0000     0.0000     0.0000     0.0000     0.0000     0.0000     0.0000     0.0000 </r>
        <r>   -37.0387     0.0000     0.0000     0.0000     0.0000     0.0000     0.0000     0.0000     0.0000     0.0000     0.0000     0.0000     0.0000     0.0000     0.0000     0.0000     0.0000 </r>
        <r>   -36.8768     0.0000     0.0000     0.0000     0.0000     0.0000     0.0000     0.0000     0.0000     0.0000     0.0000     0.0000     0.0000     0.0000     0.0000     0.0000     0.0000 </r>
        <r>   -36.7149     0.0000     0.0000     0.0000     0.0000     0.0000     0.0000     0.0000     0.0000     0.0000     0.0000     0.0000     0.0000     0.0000     0.0000     0.0000     0.0000 </r>
        <r>   -36.5530     0.0000     0.0000     0.0000     0.0000     0.0000     0.0000     0.0000     0.0000     0.0000     0.0000     0.0000     0.0000     0.0000     0.0000     0.0000     0.0000 </r>
        <r>   -36.3911     0.0000     0.0000     0.0000     0.0000     0.0000     0.0000     0.0000     0.0000     0.0000     0.0000     0.0000     0.0000     0.0000     0.0000     0.0000     0.0000 </r>
        <r>   -36.2293     0.0000     0.0000     0.0000     0.0000     0.0000     0.0000     0.0000     0.0000     0.0000     0.0000     0.0000     0.0000     0.0000     0.0000     0.0000     0.0000 </r>
        <r>   -36.0674     0.0000     0.0000     0.0000     0.0000     0.0000     0.0000     0.0000     0.0000     0.0000     0.0000     0.0000     0.0000     0.0000     0.0000     0.0000     0.0000 </r>
        <r>   -35.9055     0.0000     0.0000     0.0000     0.0000     0.0000     0.0000     0.0000     0.0000     0.0000     0.0000     0.0000     0.0000     0.0000     0.0000     0.0000     0.0000 </r>
        <r>   -35.7436     0.0000     0.0000     0.0000     0.0000     0.0000     0.0000     0.0000     0.0000     0.0000     0.0000     0.0000     0.0000     0.0000     0.0000     0.0000     0.0000 </r>
        <r>   -35.5817     0.0000     0.0000     0.0000     0.0000     0.0000     0.0000     0.0000     0.0000     0.0000     0.0000     0.0000     0.0000     0.0000     0.0000     0.0000     0.0000 </r>
        <r>   -35.4198     0.0000     0.0000     0.0000     0.0000     0.0000     0.0000     0.0000     0.0000     0.0000     0.0000     0.0000     0.0000     0.0000     0.0000     0.0000     0.0000 </r>
        <r>   -35.2579     0.0000     0.0000     0.0000     0.0000     0.0000     0.0000     0.0000     0.0000     0.0000     0.0000     0.0000     0.0000     0.0000     0.0000     0.0000     0.0000 </r>
        <r>   -35.0961     0.0000     0.0000     0.0000     0.0000     0.0000     0.0000     0.0000     0.0000     0.0000     0.0000     0.0000     0.0000     0.0000     0.0000     0.0000     0.0000 </r>
        <r>   -34.9342     0.0000     0.0000     0.0000     0.0000     0.0000     0.0000     0.0000     0.0000     0.0000     0.0000     0.0000     0.0000     0.0000     0.0000     0.0000     0.0000 </r>
        <r>   -34.7723     0.0000     0.0000     0.0000     0.0000     0.0000     0.0000     0.0000     0.0000     0.0000     0.0000     0.0000     0.0000     0.0000     0.0000     0.0000     0.0000 </r>
        <r>   -34.6104     0.0000     0.0000     0.0000     0.0000     0.0000     0.0000     0.0000     0.0000     0.0000     0.0000     0.0000     0.0000     0.0000     0.0000     0.0000     0.0000 </r>
        <r>   -34.4485     0.0000     0.0000     0.0000     0.0000     0.0000     0.0000     0.0000     0.0000     0.0000     0.0000     0.0000     0.0000     0.0000     0.0000     0.0000     0.0000 </r>
        <r>   -34.2866     0.0000     0.0000     0.0000     0.0000     0.0000     0.0000     0.0000     0.0000     0.0000     0.0000     0.0000     0.0000     0.0000     0.0000     0.0000     0.0000 </r>
        <r>   -34.1248     0.0000     0.0000     0.0000     0.0000     0.0000     0.0000     0.0000     0.0000     0.0000     0.0000     0.0000     0.0000     0.0000     0.0000     0.0000     0.0000 </r>
        <r>   -33.9629     0.0000     0.0000     0.0000     0.0000     0.0000     0.0000     0.0000     0.0000     0.0000     0.0000     0.0000     0.0000     0.0000     0.0000     0.0000     0.0000 </r>
        <r>   -33.8010     0.0000     0.0000     0.0000     0.0000     0.0000     0.0000     0.0000     0.0000     0.0000     0.0000     0.0000     0.0000     0.0000     0.0000     0.0000     0.0000 </r>
        <r>   -33.6391     0.0000     0.0000     0.0000     0.0000     0.0000     0.0000     0.0000     0.0000     0.0000     0.0000     0.0000     0.0000     0.0000     0.0000     0.0000     0.0000 </r>
        <r>   -33.4772     0.0000     0.0000     0.0000     0.0000     0.0000     0.0000     0.0000     0.0000     0.0000     0.0000     0.0000     0.0000     0.0000     0.0000     0.0000     0.0000 </r>
        <r>   -33.3153     0.0000     0.0000     0.0000     0.0000     0.0000     0.0000     0.0000     0.0000     0.0000     0.0000     0.0000     0.0000     0.0000     0.0000     0.0000     0.0000 </r>
        <r>   -33.1534     0.0000     0.0000     0.0000     0.0000     0.0000     0.0000     0.0000     0.0000     0.0000     0.0000     0.0000     0.0000     0.0000     0.0000     0.0000     0.0000 </r>
        <r>   -32.9916     0.0000     0.0000     0.0000     0.0000     0.0000     0.0000     0.0000     0.0000     0.0000     0.0000     0.0000     0.0000     0.0000     0.0000     0.0000     0.0000 </r>
        <r>   -32.8297     0.0000     0.0000     0.0000     0.0000     0.0000     0.0000     0.0000     0.0000     0.0000     0.0000     0.0000     0.0000     0.0000     0.0000     0.0000     0.0000 </r>
        <r>   -32.6678     0.0000     0.0000     0.0000     0.0000     0.0000     0.0000     0.0000     0.0000     0.0000     0.0000     0.0000     0.0000     0.0000     0.0000     0.0000     0.0000 </r>
        <r>   -32.5059     0.0000     0.0000     0.0000     0.0000     0.0000     0.0000     0.0000     0.0000     0.0000     0.0000     0.0000     0.0000     0.0000     0.0000     0.0000     0.0000 </r>
        <r>   -32.3440     0.0000     0.0000     0.0000     0.0000     0.0000     0.0000     0.0000     0.0000     0.0000     0.0000     0.0000     0.0000     0.0000     0.0000     0.0000     0.0000 </r>
        <r>   -32.1821     0.0000     0.0000     0.0000     0.0000     0.0000     0.0000     0.0000     0.0000     0.0000     0.0000     0.0000     0.0000     0.0000     0.0000     0.0000     0.0000 </r>
        <r>   -32.0202     0.0000     0.0000     0.0000     0.0000     0.0000     0.0000     0.0000     0.0000     0.0000     0.0000     0.0000     0.0000     0.0000     0.0000     0.0000     0.0000 </r>
        <r>   -31.8584     0.0000     0.0000     0.0000     0.0000     0.0000     0.0000     0.0000     0.0000     0.0000     0.0000     0.0000     0.0000     0.0000     0.0000     0.0000     0.0000 </r>
        <r>   -31.6965     0.0000     0.0000     0.0000     0.0000     0.0000     0.0000     0.0000     0.0000     0.0000     0.0000     0.0000     0.0000     0.0000     0.0000     0.0000     0.0000 </r>
        <r>   -31.5346     0.0000     0.0000     0.0000     0.0000     0.0000     0.0000     0.0000     0.0000     0.0000     0.0000     0.0000     0.0000     0.0000     0.0000     0.0000     0.0000 </r>
        <r>   -31.3727     0.0000     0.0000     0.0000     0.0000     0.0000     0.0000     0.0000     0.0000     0.0000     0.0000     0.0000     0.0000     0.0000     0.0000     0.0000     0.0000 </r>
        <r>   -31.2108     0.0000     0.0000     0.0000     0.0000     0.0000     0.0000     0.0000     0.0000     0.0000     0.0000     0.0000     0.0000     0.0000     0.0000     0.0000     0.0000 </r>
        <r>   -31.0489     0.0000     0.0000     0.0000     0.0000     0.0000     0.0000     0.0000     0.0000     0.0000     0.0000     0.0000     0.0000     0.0000     0.0000     0.0000     0.0000 </r>
        <r>   -30.8870     0.0000     0.0000     0.0000     0.0000     0.0000     0.0000     0.0000     0.0000     0.0000     0.0000     0.0000     0.0000     0.0000     0.0000     0.0000     0.0000 </r>
        <r>   -30.7252     0.0000     0.0000     0.0000     0.0000     0.0000     0.0000     0.0000     0.0000     0.0000     0.0000     0.0000     0.0000     0.0000     0.0000     0.0000     0.0000 </r>
        <r>   -30.5633     0.0000     0.0000     0.0000     0.0000     0.0000     0.0000     0.0000     0.0000     0.0000     0.0000     0.0000     0.0000     0.0000     0.0000     0.0000     0.0000 </r>
        <r>   -30.4014     0.0000     0.0000     0.0000     0.0000     0.0000     0.0000     0.0000     0.0000     0.0000     0.0000     0.0000     0.0000     0.0000     0.0000     0.0000     0.0000 </r>
        <r>   -30.2395     0.0000     0.0000     0.0000     0.0000     0.0000     0.0000     0.0000     0.0000     0.0000     0.0000     0.0000     0.0000     0.0000     0.0000     0.0000     0.0000 </r>
        <r>   -30.0776     0.0000     0.0000     0.0000     0.0000     0.0000     0.0000     0.0000     0.0000     0.0000     0.0000     0.0000     0.0000     0.0000     0.0000     0.0000     0.0000 </r>
        <r>   -29.9157     0.0000     0.0000     0.0000     0.0000     0.0000     0.0000     0.0000     0.0000     0.0000     0.0000     0.0000     0.0000     0.0000     0.0000     0.0000     0.0000 </r>
        <r>   -29.7538     0.0000     0.0000     0.0000     0.0000     0.0000     0.0000     0.0000     0.0000     0.0000     0.0000     0.0000     0.0000     0.0000     0.0000     0.0000     0.0000 </r>
        <r>   -29.5920     0.0000     0.0000     0.0000     0.0000     0.0000     0.0000     0.0000     0.0000     0.0000     0.0000     0.0000     0.0000     0.0000     0.0000     0.0000     0.0000 </r>
        <r>   -29.4301     0.0000     0.0000     0.0000     0.0000     0.0000     0.0000     0.0000     0.0000     0.0000     0.0000     0.0000     0.0000     0.0000     0.0000     0.0000     0.0000 </r>
        <r>   -29.2682     0.0000     0.0000     0.0000     0.0000     0.0000     0.0000     0.0000     0.0000     0.0000     0.0000     0.0000     0.0000     0.0000     0.0000     0.0000     0.0000 </r>
        <r>   -29.1063     0.0000     0.0000     0.0000     0.0000     0.0000     0.0000     0.0000     0.0000     0.0000     0.0000     0.0000     0.0000     0.0000     0.0000     0.0000     0.0000 </r>
        <r>   -28.9444     0.0000     0.0000     0.0000     0.0000     0.0000     0.0000     0.0000     0.0000     0.0000     0.0000     0.0000     0.0000     0.0000     0.0000     0.0000     0.0000 </r>
        <r>   -28.7825     0.0000     0.0000     0.0000     0.0000     0.0000     0.0000     0.0000     0.0000     0.0000     0.0000     0.0000     0.0000     0.0000     0.0000     0.0000     0.0000 </r>
        <r>   -28.6207     0.0000     0.0000     0.0000     0.0000     0.0000     0.0000     0.0000     0.0000     0.0000     0.0000     0.0000     0.0000     0.0000     0.0000     0.0000     0.0000 </r>
        <r>   -28.4588     0.0000     0.0000     0.0000     0.0000     0.0000     0.0000     0.0000     0.0000     0.0000     0.0000     0.0000     0.0000     0.0000     0.0000     0.0000     0.0000 </r>
        <r>   -28.2969     0.0000     0.0000     0.0000     0.0000     0.0000     0.0000     0.0000     0.0000     0.0000     0.0000     0.0000     0.0000     0.0000     0.0000     0.0000     0.0000 </r>
        <r>   -28.1350     0.0000     0.0000     0.0000     0.0000     0.0000     0.0000     0.0000     0.0000     0.0000     0.0000     0.0000     0.0000     0.0000     0.0000     0.0000     0.0000 </r>
        <r>   -27.9731     0.0000     0.0000     0.0000     0.0000     0.0000     0.0000     0.0000     0.0000     0.0000     0.0000     0.0000     0.0000     0.0000     0.0000     0.0000     0.0000 </r>
        <r>   -27.8112     0.0000     0.0000     0.0000     0.0000     0.0000     0.0000     0.0000     0.0000     0.0000     0.0000     0.0000     0.0000     0.0000     0.0000     0.0000     0.0000 </r>
        <r>   -27.6493     0.0000     0.0000     0.0000     0.0000     0.0000     0.0000     0.0000     0.0000     0.0000     0.0000     0.0000     0.0000     0.0000     0.0000     0.0000     0.0000 </r>
        <r>   -27.4875     0.0000     0.0000     0.0000     0.0000     0.0000     0.0000     0.0000     0.0000     0.0000     0.0000     0.0000     0.0000     0.0000     0.0000     0.0000     0.0000 </r>
        <r>   -27.3256     0.0000     0.0000     0.0000     0.0000     0.0000     0.0000     0.0000     0.0000     0.0000     0.0000     0.0000     0.0000     0.0000     0.0000     0.0000     0.0000 </r>
        <r>   -27.1637     0.0000     0.0000     0.0000     0.0000     0.0000     0.0000     0.0000     0.0000     0.0000     0.0000     0.0000     0.0000     0.0000     0.0000     0.0000     0.0000 </r>
        <r>   -27.0018     0.0000     0.0000     0.0000     0.0000     0.0000     0.0000     0.0000     0.0000     0.0000     0.0000     0.0000     0.0000     0.0000     0.0000     0.0000     0.0000 </r>
        <r>   -26.8399     0.0000     0.0000     0.0000     0.0000     0.0000     0.0000     0.0000     0.0000     0.0000     0.0000     0.0000     0.0000     0.0000     0.0000     0.0000     0.0000 </r>
        <r>   -26.6780     0.0000     0.0000     0.0000     0.0000     0.0000     0.0000     0.0000     0.0000     0.0000     0.0000     0.0000     0.0000     0.0000     0.0000     0.0000     0.0000 </r>
        <r>   -26.5161     0.0000     0.0000     0.0000     0.0000     0.0000     0.0000     0.0000     0.0000     0.0000     0.0000     0.0000     0.0000     0.0000     0.0000     0.0000     0.0000 </r>
        <r>   -26.3543     0.0000     0.0000     0.0000     0.0000     0.0000     0.0000     0.0000     0.0000     0.0000     0.0000     0.0000     0.0000     0.0000     0.0000     0.0000     0.0000 </r>
        <r>   -26.1924     0.0000     0.0000     0.0000     0.0000     0.0000     0.0000     0.0000     0.0000     0.0000     0.0000     0.0000     0.0000     0.0000     0.0000     0.0000     0.0000 </r>
        <r>   -26.0305     0.0000     0.0000     0.0000     0.0000     0.0000     0.0000     0.0000     0.0000     0.0000     0.0000     0.0000     0.0000     0.0000     0.0000     0.0000     0.0000 </r>
        <r>   -25.8686     0.0000     0.0000     0.0000     0.0000     0.0000     0.0000     0.0000     0.0000     0.0000     0.0000     0.0000     0.0000     0.0000     0.0000     0.0000     0.0000 </r>
        <r>   -25.7067     0.0000     0.0000     0.0000     0.0000     0.0000     0.0000     0.0000     0.0000     0.0000     0.0000     0.0000     0.0000     0.0000     0.0000     0.0000     0.0000 </r>
        <r>   -25.5448     0.0000     0.0000     0.0000     0.0000     0.0000     0.0000     0.0000     0.0000     0.0000     0.0000     0.0000     0.0000     0.0000     0.0000     0.0000     0.0000 </r>
[...]
        <r>     5.0515     0.0000     0.0000     0.0000     0.0000     0.0000     0.0000     0.0000     0.0000     0.0000     0.0000     0.0000     0.0000     0.0000     0.0000     0.0000     0.0000 </r>
        <r>     5.2134     0.0000     0.0000     0.0000     0.0000     0.0000     0.0000     0.0000     0.0000     0.0000     0.0000     0.0000     0.0000     0.0000     0.0000     0.0000     0.0000 </r>
        <r>     5.3753     0.0000     0.0000     0.0000     0.0000     0.0000     0.0000     0.0000     0.0000     0.0000     0.0000     0.0000     0.0000     0.0000     0.0000     0.0000     0.0000 </r>
        <r>     5.5371     0.0000     0.0000     0.0000     0.0000     0.0000     0.0000     0.0000     0.0000     0.0000     0.0000     0.0000     0.0000     0.0000     0.0000     0.0000     0.0000 </r>
        <r>     5.6990     0.0000     0.0000     0.0000     0.0000     0.0000     0.0000     0.0000     0.0000     0.0000     0.0000     0.0000     0.0000     0.0000     0.0000     0.0000     0.0000 </r>
        <r>     5.8609     0.0000     0.0000     0.0000     0.0000     0.0000     0.0000     0.0000     0.0000     0.0000     0.0000     0.0000     0.0000     0.0000     0.0000     0.0000     0.0000 </r>
        <r>     6.0228     0.0000     0.0000     0.0000     0.0000     0.0000     0.0000     0.0000     0.0000     0.0000     0.0000     0.0000     0.0000     0.0000     0.0000     0.0000     0.0000 </r>
        <r>     6.1847     0.0000     0.0000     0.0000     0.0000     0.0000     0.0000     0.0000     0.0000     0.0000     0.0000     0.0000     0.0000     0.0000     0.0000     0.0000     0.0000 </r>
       </set>
      </set>
     </set>
    </array>
   </partial>
  </dos>
  <projected>
   <eigenvalues>
    <array>
     <dimension dim="1">band</dimension>
     <dimension dim="2">kpoint</dimension>
     <dimension dim="3">spin</dimension>
     <field>eigene</field>
     <field>occ</field>
     <set>
      <set comment="spin 1">
       <set comment="kpoint 1">
        <r>  -40.1734    1.0000 </r>
        <r>  -19.7784    1.0000 </r>
        <r>  -19.7784    1.0000 </r>
        <r>  -19.7784    1.0000 </r>
        <r>   -3.6116    1.0000 </r>
        <r>   -2.1754    0.5000 </r>
        <r>   -2.1754    0.5000 </r>
        <r>   -1.7887    0.0000 </r>
        <r>   -1.7887    0.0000 </r>
        <r>   -1.7886    0.0000 </r>
        <r>   -0.6253    0.0000 </r>
        <r>   -0.6251    0.0000 </r>
        <r>   -0.6248    0.0000 </r>
        <r>   -0.0247    0.0000 </r>
        <r>    0.3368    0.0000 </r>
        <r>    0.3368    0.0000 </r>
        <r>    0.3371    0.0000 </r>
        <r>    0.3968    0.0000 </r>
        <r>    0.3968    0.0000 </r>
        <r>    0.3968    0.0000 </r>
        <r>    0.5139    0.0000 </r>
        <r>    0.9368    0.0000 </r>
        <r>    0.9369    0.0000 </r>
        <r>    1.7862    0.0000 </r>
        <r>    1.7893    0.0000 </r>
        <r>    1.8103    0.0000 </r>
        <r>    2.0005    0.0000 </r>
        <r>    2.2415    0.0000 </r>
        <r>    2.2985    0.0000 </r>
        <r>    2.3072    0.0000 </r>
        <r>    2.3656    0.0000 </r>
        <r>    2.3716    0.0000 </r>
        <r>    2.3800    0.0000 </r>
        <r>    2.4066    0.0000 </r>
        <r>    2.4718    0.0000 </r>
        <r>    3.8398    0.0000 </r>
       </set>
      </set>
      <set comment="spin 2">
       <set comment="kpoint 1">
        <r>  -40.0387    1.0000 </r>
        <r>  -19.5020    1.0000 </r>
        <r>  -19.5020    1.0000 </r>
        <r>  -19.5020    1.0000 </r>
        <r>   -3.2552    1.0000 </r>
        <r>   -1.6046    0.0000 </r>
        <r>   -1.6044    0.0000 </r>
        <r>   -1.6043    0.0000 </r>
        <r>   -1.4514    0.0000 </r>
        <r>   -1.4513    0.0000 </r>
        <r>   -0.3987    0.0000 </r>
        <r>   -0.3986    0.0000 </r>
        <r>   -0.3982    0.0000 </r>
        <r>    0.0533    0.0000 </r>
        <r>    0.4861    0.0000 </r>
        <r>    0.5745    0.0000 </r>
        <r>    0.5745    0.0000 </r>
        <r>    0.5746    0.0000 </r>
        <r>    0.6681    0.0000 </r>
        <r>    0.6683    0.0000 </r>
        <r>    0.6683    0.0000 </r>
        <r>    1.1081    0.0000 </r>
        <r>    1.1084    0.0000 </r>
        <r>    1.8732    0.0000 </r>
        <r>    1.8764    0.0000 </r>
        <r>    1.8855    0.0000 </r>
        <r>    2.0730    0.0000 </r>
        <r>    2.3504    0.0000 </r>
        <r>    2.3777    0.0000 </r>
        <r>    2.3874    0.0000 </r>
        <r>    2.4154    0.0000 </r>
        <r>    2.4339    0.0000 </r>
        <r>    2.4963    0.0000 </r>
        <r>    2.5895    0.0000 </r>
        <r>    2.8699    0.0000 </r>
        <r>    3.9772    0.0000 </r>
       </set>
      </set>
     </set>
    </array>
   </eigenvalues>
   <array>
    <dimension dim="1">ion</dimension>
    <dimension dim="2">band</dimension>
    <dimension dim="3">kpoint</dimension>
    <dimension dim="4">spin</dimension>
    <field>    s</field>
    <field>   py</field>
    <field>   pz</field>
    <field>   px</field>
    <field>  dxy</field>
    <field>  dyz</field>
    <field>  dz2</field>
    <field>  dxz</field>
    <field>x2-y2</field>
    <field>fy3x2</field>
    <field> fxyz</field>
    <field> fyz2</field>
    <field>  fz3</field>
    <field> fxz2</field>
    <field> fzx2</field>
    <field>  fx3</field>
    <set>
     <set comment="spin1">
      <set comment="kpoint 1">
       <set comment="band 1">
        <r>  0.9835  0.0000  0.0000  0.0000  0.0000  0.0000  0.0000  0.0000  0.0000  0.0000  0.0000  0.0000  0.0000  0.0000  0.0000  0.0000 </r>
       </set>
       <set comment="band 2">
        <r>  0.0000  0.0006  0.9019  0.0006  0.0000  0.0000  0.0000  0.0000  0.0000  0.0000  0.0000  0.0000  0.0000  0.0000  0.0000  0.0000 </r>
       </set>
       <set comment="band 3">
        <r>  0.0000  0.8862  0.0004  0.0165  0.0000  0.0000  0.0000  0.0000  0.0000  0.0000  0.0000  0.0000  0.0000  0.0000  0.0000  0.0000 </r>
       </set>
       <set comment="band 4">
        <r>  0.0000  0.0164  0.0008  0.8860  0.0000  0.0000  0.0000  0.0000  0.0000  0.0000  0.0000  0.0000  0.0000  0.0000  0.0000  0.0000 </r>
       </set>
       <set comment="band 5">
        <r>  0.1372  0.0000  0.0000  0.0000  0.0000  0.0000  0.0000  0.0000  0.0000  0.0000  0.0000  0.0000  0.0000  0.0000  0.0000  0.0000 </r>
       </set>
       <set comment="band 6">
        <r>  0.0000  0.0000  0.0000  0.0000  0.0000  0.0000  0.1367  0.0000  0.2539  0.0000  0.0000  0.0000  0.0000  0.0000  0.0000  0.0000 </r>
       </set>
       <set comment="band 7">
        <r>  0.0000  0.0000  0.0000  0.0000  0.0000  0.0000  0.2538  0.0000  0.1366  0.0000  0.0000  0.0000  0.0000  0.0000  0.0000  0.0000 </r>
       </set>
       <set comment="band 8">
        <r>  0.0000  0.0000  0.0000  0.0000  0.1975  0.1606  0.0000  0.0439  0.0000  0.0000  0.0000  0.0000  0.0000  0.0000  0.0000  0.0000 </r>
       </set>
       <set comment="band 9">
        <r>  0.0000  0.0000  0.0000  0.0000  0.1585  0.2360  0.0000  0.0071  0.0000  0.0000  0.0000  0.0000  0.0000  0.0000  0.0000  0.0000 </r>
       </set>
       <set comment="band 10">
        <r>  0.0000  0.0000  0.0000  0.0000  0.0458  0.0052  0.0000  0.3502  0.0000  0.0000  0.0000  0.0000  0.0000  0.0000  0.0000  0.0000 </r>
       </set>
       <set comment="band 11">
        <r>  0.0000  0.0006  0.0028  0.0511  0.0000  0.0000  0.0000  0.0000  0.0000  0.0000  0.0000  0.0000  0.0001  0.0006  0.0000  0.0010 </r>
       </set>
       <set comment="band 12">
        <r>  0.0000  0.0333  0.0209  0.0002  0.0000  0.0000  0.0000  0.0000  0.0000  0.0006  0.0000  0.0003  0.0006  0.0000  0.0000  0.0000 </r>
       </set>
       <set comment="band 13">
        <r>  0.0000  0.0207  0.0304  0.0032  0.0000  0.0000  0.0000  0.0000  0.0000  0.0005  0.0000  0.0002  0.0009  0.0000  0.0000  0.0001 </r>
       </set>
       <set comment="band 14">
        <r>  0.0311  0.0000  0.0000  0.0000  0.0000  0.0000  0.0000  0.0000  0.0000  0.0000  0.0000  0.0000  0.0000  0.0000  0.0000  0.0000 </r>
       </set>
       <set comment="band 15">
        <r>  0.0000  0.0000  0.0001  0.0001  0.0000  0.0000  0.0000  0.0000  0.0000  0.0027  0.0000  0.0024  0.3616  0.1572  0.0000  0.2595 </r>
       </set>
       <set comment="band 16">
        <r>  0.0000  0.0000  0.0001  0.0001  0.0000  0.0000  0.0000  0.0000  0.0000  0.0003  0.0002  0.0000  0.4190  0.1433  0.0000  0.2212 </r>
       </set>
       <set comment="band 17">
        <r>  0.0000  0.0001  0.0000  0.0000  0.0000  0.0000  0.0000  0.0000  0.0000  0.4945  0.0000  0.2798  0.0033  0.0012  0.0040  0.0008 </r>
       </set>
       <set comment="band 18">
        <r>  0.0000  0.0000  0.0000  0.0000  0.0000  0.0000  0.0000  0.0000  0.0000  0.0684  0.0000  0.1262  0.0000  0.3592  0.0023  0.2331 </r>
       </set>
       <set comment="band 19">
        <r>  0.0000  0.0000  0.0000  0.0000  0.0000  0.0000  0.0000  0.0000  0.0000  0.1419  0.0003  0.3015  0.0000  0.0814  0.2232  0.0422 </r>
       </set>
       <set comment="band 20">
        <r>  0.0000  0.0000  0.0000  0.0000  0.0000  0.0000  0.0000  0.0000  0.0000  0.0783  0.0005  0.0785  0.0000  0.0438  0.5605  0.0288 </r>
       </set>
       <set comment="band 21">
        <r>  0.0000  0.0000  0.0000  0.0000  0.0000  0.0000  0.0000  0.0000  0.0000  0.0000  0.8104  0.0001  0.0000  0.0000  0.0008  0.0002 </r>
       </set>
       <set comment="band 22">
        <r>  0.0000  0.0000  0.0000  0.0000  0.0000  0.0000  0.0123  0.0000  0.0527  0.0000  0.0000  0.0000  0.0000  0.0000  0.0000  0.0000 </r>
       </set>
       <set comment="band 23">
        <r>  0.0000  0.0000  0.0000  0.0000  0.0000  0.0000  0.0524  0.0000  0.0123  0.0000  0.0000  0.0000  0.0000  0.0000  0.0000  0.0000 </r>
       </set>
       <set comment="band 24">
        <r>  0.0001  0.0029  0.0138  0.0001  0.0000  0.0000  0.0000  0.0001  0.0000  0.0034  0.0000  0.0015  0.0248  0.0001  0.0001  0.0002 </r>
       </set>
       <set comment="band 25">
        <r>  0.0000  0.0032  0.0002  0.0129  0.0000  0.0001  0.0000  0.0000  0.0000  0.0036  0.0000  0.0023  0.0004  0.0128  0.0000  0.0116 </r>
       </set>
       <set comment="band 26">
        <r>  0.0002  0.0101  0.0027  0.0030  0.0001  0.0000  0.0001  0.0002  0.0000  0.0098  0.0000  0.0097  0.0048  0.0058  0.0001  0.0013 </r>
       </set>
       <set comment="band 27">
        <r>  0.0276  0.0002  0.0000  0.0000  0.0000  0.0000  0.0000  0.0000  0.0000  0.0001  0.0000  0.0002  0.0000  0.0000  0.0000  0.0000 </r>
       </set>
       <set comment="band 28">
        <r>  0.0000  0.0000  0.0000  0.0001  0.0010  0.0011  0.0000  0.0001  0.0000  0.0067  0.0000  0.0121  0.0000  0.0125  0.0073  0.0108 </r>
       </set>
       <set comment="band 29">
        <r>  0.0000  0.0000  0.0000  0.0001  0.0023  0.0093  0.0027  0.0058  0.0000  0.0065  0.0000  0.0094  0.0000  0.0023  0.0124  0.0030 </r>
       </set>
       <set comment="band 30">
        <r>  0.0000  0.0000  0.0000  0.0000  0.0076  0.0078  0.0013  0.0132  0.0001  0.0011  0.0000  0.0011  0.0000  0.0055  0.0181  0.0044 </r>
       </set>
       <set comment="band 31">
        <r>  0.0000  0.0002  0.0002  0.0002  0.0036  0.0023  0.0095  0.0046  0.0016  0.0032  0.0000  0.0013  0.0003  0.0045  0.0018  0.0061 </r>
       </set>
       <set comment="band 32">
        <r>  0.0000  0.0000  0.0000  0.0000  0.0494  0.0015  0.0001  0.0183  0.0001  0.0023  0.0000  0.0034  0.0000  0.0000  0.0030  0.0000 </r>
       </set>
       <set comment="band 33">
        <r>  0.0000  0.0000  0.0000  0.0000  0.0117  0.0614  0.0003  0.0000  0.0001  0.0011  0.0000  0.0014  0.0000  0.0000  0.0034  0.0000 </r>
       </set>
       <set comment="band 34">
        <r>  0.0000  0.0000  0.0000  0.0000  0.0091  0.0002  0.0038  0.0400  0.0029  0.0001  0.0000  0.0000  0.0000  0.0009  0.0033  0.0008 </r>
       </set>
       <set comment="band 35">
        <r>  0.0000  0.0000  0.0000  0.0000  0.0000  0.0015  0.0038  0.0042  0.0163  0.0000  0.0000  0.0000  0.0000  0.0000  0.0001  0.0000 </r>
       </set>
       <set comment="band 36">
        <r>  0.0008  0.0000  0.0000  0.0000  0.0139  0.0170  0.0000  0.0005  0.0000  0.0002  0.0069  0.0001  0.0000  0.0000  0.0000  0.0000 </r>
       </set>
      </set>
     </set>
     <set comment="spin2">
      <set comment="kpoint 1">
       <set comment="band 1">
        <r>  0.9832  0.0000  0.0000  0.0000  0.0000  0.0000  0.0000  0.0000  0.0000  0.0000  0.0000  0.0000  0.0000  0.0000  0.0000  0.0000 </r>
       </set>
       <set comment="band 2">
        <r>  0.0000  0.3769  0.5402  0.0000  0.0000  0.0000  0.0000  0.0000  0.0000  0.0000  0.0000  0.0000  0.0000  0.0000  0.0000  0.0000 </r>
       </set>
       <set comment="band 3">
        <r>  0.0000  0.2789  0.1950  0.4432  0.0000  0.0000  0.0000  0.0000  0.0000  0.0000  0.0000  0.0000  0.0000  0.0000  0.0000  0.0000 </r>
       </set>
       <set comment="band 4">
        <r>  0.0000  0.2613  0.1819  0.4739  0.0000  0.0000  0.0000  0.0000  0.0000  0.0000  0.0000  0.0000  0.0000  0.0000  0.0000  0.0000 </r>
       </set>
       <set comment="band 5">
        <r>  0.1333  0.0000  0.0000  0.0000  0.0000  0.0000  0.0000  0.0000  0.0000  0.0000  0.0000  0.0000  0.0000  0.0000  0.0000  0.0000 </r>
       </set>
       <set comment="band 6">
        <r>  0.0000  0.0000  0.0000  0.0000  0.2698  0.1210  0.0000  0.0060  0.0003  0.0000  0.0000  0.0000  0.0000  0.0000  0.0000  0.0000 </r>
       </set>
       <set comment="band 7">
        <r>  0.0000  0.0000  0.0000  0.0000  0.0446  0.1681  0.0004  0.1830  0.0005  0.0000  0.0000  0.0000  0.0000  0.0000  0.0000  0.0000 </r>
       </set>
       <set comment="band 8">
        <r>  0.0000  0.0000  0.0000  0.0000  0.0826  0.1057  0.0001  0.2072  0.0008  0.0000  0.0000  0.0000  0.0000  0.0000  0.0000  0.0000 </r>
       </set>
       <set comment="band 9">
        <r>  0.0000  0.0000  0.0000  0.0000  0.0000  0.0012  0.0573  0.0002  0.3115  0.0000  0.0000  0.0000  0.0000  0.0000  0.0000  0.0000 </r>
       </set>
       <set comment="band 10">
        <r>  0.0000  0.0000  0.0000  0.0000  0.0001  0.0004  0.3128  0.0003  0.0571  0.0000  0.0000  0.0000  0.0000  0.0000  0.0000  0.0000 </r>
       </set>
       <set comment="band 11">
        <r>  0.0000  0.0090  0.0374  0.0028  0.0000  0.0000  0.0000  0.0000  0.0000  0.0001  0.0000  0.0001  0.0009  0.0000  0.0000  0.0001 </r>
       </set>
       <set comment="band 12">
        <r>  0.0000  0.0396  0.0068  0.0028  0.0000  0.0000  0.0000  0.0000  0.0000  0.0009  0.0000  0.0003  0.0002  0.0000  0.0000  0.0000 </r>
       </set>
       <set comment="band 13">
        <r>  0.0000  0.0007  0.0050  0.0436  0.0000  0.0000  0.0000  0.0000  0.0000  0.0000  0.0000  0.0001  0.0005  0.0005  0.0000  0.0004 </r>
       </set>
       <set comment="band 14">
        <r>  0.0312  0.0000  0.0000  0.0000  0.0000  0.0000  0.0000  0.0000  0.0000  0.0000  0.0000  0.0000  0.0000  0.0000  0.0000  0.0000 </r>
       </set>
       <set comment="band 15">
        <r>  0.0000  0.0000  0.0000  0.0000  0.0000  0.0000  0.0000  0.0000  0.0000  0.0003  0.8092  0.0001  0.0000  0.0001  0.0000  0.0000 </r>
       </set>
       <set comment="band 16">
        <r>  0.0000  0.0000  0.0000  0.0000  0.0000  0.0000  0.0000  0.0000  0.0000  0.1949  0.0001  0.3219  0.0013  0.1383  0.0634  0.0767 </r>
       </set>
       <set comment="band 17">
        <r>  0.0000  0.0000  0.0000  0.0000  0.0000  0.0000  0.0000  0.0000  0.0000  0.0227  0.0001  0.0441  0.0001  0.0019  0.7265  0.0017 </r>
       </set>
       <set comment="band 18">
        <r>  0.0000  0.0000  0.0000  0.0000  0.0000  0.0000  0.0000  0.0000  0.0000  0.0763  0.0003  0.1354  0.0000  0.3690  0.0074  0.2096 </r>
       </set>
       <set comment="band 19">
        <r>  0.0000  0.0000  0.0002  0.0001  0.0000  0.0000  0.0000  0.0000  0.0000  0.0410  0.0000  0.0341  0.4483  0.0932  0.0001  0.1874 </r>
       </set>
       <set comment="band 20">
        <r>  0.0000  0.0000  0.0001  0.0002  0.0000  0.0000  0.0000  0.0000  0.0000  0.0096  0.0000  0.0024  0.3335  0.1735  0.0000  0.2848 </r>
       </set>
       <set comment="band 21">
        <r>  0.0000  0.0003  0.0000  0.0000  0.0000  0.0000  0.0000  0.0000  0.0000  0.4564  0.0001  0.2610  0.0203  0.0244  0.0000  0.0418 </r>
       </set>
       <set comment="band 22">
        <r>  0.0000  0.0000  0.0000  0.0000  0.0000  0.0000  0.0631  0.0000  0.0115  0.0000  0.0000  0.0000  0.0000  0.0000  0.0000  0.0000 </r>
       </set>
       <set comment="band 23">
        <r>  0.0000  0.0000  0.0000  0.0000  0.0000  0.0000  0.0116  0.0000  0.0633  0.0000  0.0000  0.0000  0.0000  0.0000  0.0000  0.0000 </r>
       </set>
       <set comment="band 24">
        <r>  0.0001  0.0000  0.0002  0.0184  0.0001  0.0000  0.0000  0.0000  0.0000  0.0000  0.0000  0.0000  0.0002  0.0083  0.0002  0.0108 </r>
       </set>
       <set comment="band 25">
        <r>  0.0000  0.0013  0.0169  0.0002  0.0000  0.0000  0.0000  0.0003  0.0000  0.0019  0.0000  0.0001  0.0182  0.0000  0.0001  0.0002 </r>
       </set>
       <set comment="band 26">
        <r>  0.0000  0.0167  0.0013  0.0000  0.0001  0.0000  0.0000  0.0000  0.0001  0.0129  0.0000  0.0051  0.0015  0.0003  0.0007  0.0001 </r>
       </set>
       <set comment="band 27">
        <r>  0.0281  0.0000  0.0000  0.0001  0.0000  0.0000  0.0000  0.0000  0.0000  0.0000  0.0000  0.0000  0.0000  0.0001  0.0000  0.0000 </r>
       </set>
       <set comment="band 28">
        <r>  0.0000  0.0000  0.0000  0.0000  0.0003  0.0003  0.0000  0.0165  0.0002  0.0107  0.0000  0.0198  0.0000  0.0042  0.0020  0.0023 </r>
       </set>
       <set comment="band 29">
        <r>  0.0000  0.0002  0.0001  0.0001  0.0005  0.0020  0.0028  0.0058  0.0019  0.0008  0.0000  0.0002  0.0001  0.0068  0.0210  0.0058 </r>
       </set>
       <set comment="band 30">
        <r>  0.0000  0.0000  0.0000  0.0000  0.0287  0.0061  0.0000  0.0088  0.0000  0.0005  0.0000  0.0011  0.0000  0.0073  0.0105  0.0040 </r>
       </set>
       <set comment="band 31">
        <r>  0.0000  0.0001  0.0000  0.0000  0.0538  0.0051  0.0000  0.0060  0.0001  0.0000  0.0000  0.0000  0.0000  0.0017  0.0081  0.0011 </r>
       </set>
       <set comment="band 32">
        <r>  0.0000  0.0000  0.0000  0.0000  0.0003  0.0718  0.0000  0.0042  0.0002  0.0001  0.0000  0.0004  0.0000  0.0021  0.0008  0.0015 </r>
       </set>
       <set comment="band 33">
        <r>  0.0000  0.0000  0.0001  0.0000  0.0005  0.0000  0.0047  0.0279  0.0074  0.0021  0.0000  0.0037  0.0000  0.0003  0.0023  0.0001 </r>
       </set>
       <set comment="band 34">
        <r>  0.0000  0.0000  0.0000  0.0000  0.0001  0.0003  0.0151  0.0000  0.0097  0.0000  0.0000  0.0000  0.0000  0.0002  0.0003  0.0001 </r>
       </set>
       <set comment="band 35">
        <r>  0.0046  0.0001  0.0000  0.0001  0.0011  0.0003  0.0013  0.0141  0.0033  0.0015  0.0014  0.0055  0.0000  0.0038  0.0018  0.0035 </r>
       </set>
       <set comment="band 36">
        <r>  0.0000  0.0000  0.0002  0.0001  0.0001  0.0295  0.0000  0.0066  0.0000  0.0000  0.0004  0.0000  0.0001  0.0000  0.0000  0.0000 </r>
       </set>
      </set>
     </set>
    </set>
   </array>
  </projected>
 </calculation>
 <structure name="finalpos" >
  <crystal>
   <varray name="basis" >
    <v>      10.00000000       0.00000000       0.00000000 </v>
    <v>       0.00000000      10.00000000       0.00000000 </v>
    <v>       0.00000000       0.00000000      10.00000000 </v>
   </varray>
   <i name="volume">   1000.00000000 </i>
   <varray name="rec_basis" >
    <v>       0.10000000       0.00000000       0.00000000 </v>
    <v>       0.00000000       0.10000000       0.00000000 </v>
    <v>       0.00000000       0.00000000       0.10000000 </v>
   </varray>
  </crystal>
  <varray name="positions" >
   <v>       0.50000000       0.50000000       0.50000000 </v>
  </varray>
 </structure>
</modeling>
