       N       E                     dE             d eps       ncg     rms          ort
DAV:   1     0.846837794230E+01    0.84684E+01   -0.84998E+02    36   0.640E+01
DAV:   2     0.262782824733E+01   -0.58405E+01   -0.58388E+01    36   0.827E+00
DAV:   3     0.203183151696E+01   -0.59600E+00   -0.58150E+00    36   0.396E+00
DAV:   4     0.857499176296E+00   -0.11743E+01   -0.10477E+01    36   0.183E+00
DAV:   5     0.306469298012E+00   -0.55103E+00   -0.55101E+00    36   0.181E+00
SDA:   6     0.294461675087E+00   -0.12008E-01   -0.44591E+00    36   0.111E+01 0.000E+00
DMP:   7    -0.319663934912E-01   -0.32643E+00   -0.17550E+00    36   0.254E+00 0.485E+00
DMP:   8    -0.136824217008E+00   -0.10486E+00   -0.27131E-01    36   0.609E-01 0.183E-01
DMP:   9    -0.157445762625E+00   -0.20622E-01   -0.24206E-01    36   0.643E-01-0.998E-02
DMP:  10    -0.179346175578E+00   -0.21900E-01   -0.19434E-01    36   0.344E-01 0.371E-01
DMP:  11    -0.195671520109E+00   -0.16325E-01   -0.10888E-01    36   0.152E-01 0.314E-01
DMP:  12    -0.205391727991E+00   -0.97202E-02   -0.69363E-02    36   0.953E-02 0.204E-01
DMP:  13    -0.211684994614E+00   -0.62933E-02   -0.43115E-02    36   0.561E-02 0.135E-01
DMP:  14    -0.215401317033E+00   -0.37163E-02   -0.22202E-02    36   0.266E-02 0.757E-02
DMP:  15    -0.217242023843E+00   -0.18407E-02   -0.10172E-02    36   0.117E-02 0.359E-02
DMP:  16    -0.218073463655E+00   -0.83144E-03   -0.44601E-03    36   0.503E-03 0.160E-02
DMP:  17    -0.218433657669E+00   -0.36019E-03   -0.18382E-03    36   0.198E-03 0.684E-03
DMP:  18    -0.218579816625E+00   -0.14616E-03   -0.70900E-04    36   0.736E-04 0.271E-03
DMP:  19    -0.218635747478E+00   -0.55931E-04   -0.26825E-04    36   0.278E-04 0.103E-03
DMP:  20    -0.218656982852E+00   -0.21235E-04   -0.10564E-04    36   0.116E-04 0.388E-04
   1 F= -.21865698E+00 E0= -.20455150E+00  d E =-.218657E+00  mag=     1.0000
