       N       E                     dE             d eps       ncg     rms          ort
DAV:   1     0.135263935642E+03    0.13526E+03   -0.38263E+03    36   0.260E+02
DAV:   2     0.133778671078E+02   -0.12189E+03   -0.12130E+03    36   0.599E+01
DAV:   3     0.106484000885E+01   -0.12313E+02   -0.12313E+02    36   0.290E+01
DAV:   4     0.146015829800E+00   -0.91882E+00   -0.91882E+00    36   0.106E+01
DAV:   5     0.483166901874E-01   -0.97699E-01   -0.97699E-01    36   0.304E+00
SDA:   6     0.105514973257E-02   -0.47262E-01   -0.33075E-01    36   0.827E-01 0.000E+00
DMP:   7    -0.136871500163E-01   -0.14742E-01   -0.42760E-02    36   0.143E-01-0.957E-02
DMP:   8    -0.158591301183E-01   -0.21720E-02   -0.32854E-02    36   0.828E-02-0.180E-03
DMP:   9    -0.170537266845E-01   -0.11946E-02   -0.45430E-03    36   0.204E-02-0.236E-02
DMP:  10    -0.172654754158E-01   -0.21175E-03   -0.51320E-03    36   0.131E-02-0.690E-04
DMP:  11    -0.174938372033E-01   -0.22836E-03   -0.84944E-04    36   0.257E-03-0.117E-03
DMP:  12    -0.175375350909E-01   -0.43698E-04   -0.94651E-04    36   0.234E-03 0.704E-05
DMP:  13    -0.175963584509E-01   -0.58823E-04   -0.18275E-04    36   0.278E-04 0.469E-04
DMP:  14    -0.176036782018E-01   -0.73198E-05   -0.75018E-05    36   0.240E-04-0.138E-04
   1 F= -.17603678E-01 E0= -.17603678E-01  d E =-.176037E-01  mag=     0.0000
