       N       E                     dE             d eps       ncg     rms          ort
DAV:   1     0.585292920324E+02    0.58529E+02   -0.20080E+03    36   0.150E+02
DAV:   2     0.385012054208E+02   -0.20028E+02   -0.20022E+02    36   0.205E+01
DAV:   3     0.282666820547E+02   -0.10235E+02   -0.10158E+02    36   0.111E+01
DAV:   4     0.140405598318E+02   -0.14226E+02   -0.14226E+02    36   0.143E+01
DAV:   5     0.523717387212E+01   -0.88034E+01   -0.88030E+01    36   0.144E+01
SDA:   6     0.683432804664E+01    0.15972E+01   -0.10296E+02    36   0.257E+02 0.000E+00
DMP:   7     0.107642578953E+01   -0.57579E+01   -0.15377E+01    36   0.253E+01 0.344E+01
DMP:   8     0.478789556363E+00   -0.59764E+00   -0.67333E+00    36   0.216E+01-0.124E+01
DMP:   9     0.493111925352E-01   -0.42948E+00   -0.35594E+00    36   0.755E+00 0.353E+00
DMP:  10    -0.115846305036E+00   -0.16516E+00   -0.51167E-01    36   0.159E+00-0.816E-01
DMP:  11    -0.135438226401E+00   -0.19592E-01   -0.56584E-01    36   0.159E+00-0.464E-01
DMP:  12    -0.176991068910E+00   -0.41553E-01   -0.30002E-01    36   0.513E-01 0.620E-01
DMP:  13    -0.195185278492E+00   -0.18194E-01   -0.77707E-02    36   0.136E-01 0.153E-01
DMP:  14    -0.200417548845E+00   -0.52323E-02   -0.50940E-02    36   0.103E-01 0.642E-02
DMP:  15    -0.204386839872E+00   -0.39693E-02   -0.27089E-02    36   0.410E-02 0.700E-02
DMP:  16    -0.206328400713E+00   -0.19416E-02   -0.98343E-03    36   0.135E-02 0.291E-02
DMP:  17    -0.207050756281E+00   -0.72236E-03   -0.44858E-03    36   0.683E-03 0.115E-02
DMP:  18    -0.207396239553E+00   -0.34548E-03   -0.19911E-03    36   0.267E-03 0.605E-03
DMP:  19    -0.207542175708E+00   -0.14594E-03   -0.67278E-04    36   0.798E-04 0.231E-03
DMP:  20    -0.207590779131E+00   -0.48603E-04   -0.24810E-04    36   0.337E-04 0.741E-04
   1 F= -.20759078E+00 E0= -.18831170E+00  d E =-.207591E+00  mag=     1.0000
