<?xml version="1.0" encoding="ISO-8859-1"?>
<modeling>
 <generator>
  <i name="program" type="string">vasp </i>
  <i name="version" type="string">5.4.4.18Apr17-6-g9f103f2a35  </i>
  <i name="subversion" type="string">(build Nov 08 2019 15:19:53) gamma-only         parallel </i>
  <i name="platform" type="string">LinuxIFC </i>
  <i name="date" type="string">2020 11 30 </i>
  <i name="time" type="string">09:31:14 </i>
 </generator>
 <incar>
  <i type="string" name="PREC">accurate</i>
  <i type="string" name="ALGO"> D</i>
  <i type="int" name="ISPIN">     2</i>
  <i type="int" name="NELM">   300</i>
  <i type="int" name="IBRION">     2</i>
  <i name="EDIFF">      0.00005000</i>
  <i type="int" name="NSW">    99</i>
  <i type="int" name="ISIF">     2</i>
  <i name="ENCUT">    520.00000000</i>
  <v name="MAGMOM">      0.60000000</v>
  <i type="string" name="LREAL"> Auto</i>
  <i type="int" name="ISMEAR">     0</i>
  <i name="SIGMA">      0.05000000</i>
  <i type="logical" name="LWAVE"> F  </i>
  <i type="int" name="LORBIT">    11</i>
  <i type="logical" name="LASPH"> T  </i>
  <v type="int" name="KPOINT_BSE">    -1     0     0     0</v>
  <i type="int" name="NELM">   300</i>
  <i type="logical" name="LASPH"> T  </i>
 </incar>
 <structure name="primitive_cell" >
  <crystal>
   <varray name="basis" >
    <v>      10.00000000       0.00000000       0.00000000 </v>
    <v>       0.00000000      10.00000000       0.00000000 </v>
    <v>       0.00000000       0.00000000      10.00000000 </v>
   </varray>
   <i name="volume">   1000.00000000 </i>
   <varray name="rec_basis" >
    <v>       0.10000000       0.00000000       0.00000000 </v>
    <v>       0.00000000       0.10000000       0.00000000 </v>
    <v>       0.00000000       0.00000000       0.10000000 </v>
   </varray>
  </crystal>
  <varray name="positions" >
   <v>      -0.50000000      -0.50000000      -0.50000000 </v>
  </varray>
 </structure>
 <varray name="primitive_index" >
  <v type="int" >        1 </v>
 </varray>
 <kpoints>
  <generation param="Gamma">
   <v type="int" name="divisions">       1        1        1 </v>
   <v name="usershift">      0.00000000       0.00000000       0.00000000 </v>
   <v name="genvec1">      1.00000000       0.00000000       0.00000000 </v>
   <v name="genvec2">      0.00000000       1.00000000       0.00000000 </v>
   <v name="genvec3">      0.00000000       0.00000000       1.00000000 </v>
   <v name="shift">      0.00000000       0.00000000       0.00000000 </v>
  </generation>
  <varray name="kpointlist" >
   <v>       0.00000000       0.00000000       0.00000000 </v>
  </varray>
  <varray name="weights" >
   <v>       1.00000000 </v>
  </varray>
 </kpoints>
 <parameters>
  <separator name="general" >
   <i type="string" name="SYSTEM">unknown system</i>
   <i type="logical" name="LCOMPAT"> F  </i>
  </separator>
  <separator name="electronic" >
   <i type="string" name="PREC">accura</i>
   <i name="ENMAX">    520.00000000</i>
   <i name="ENAUG">    370.13900000</i>
   <i name="EDIFF">      0.00005000</i>
   <i type="int" name="IALGO">    53</i>
   <i type="int" name="IWAVPR">    11</i>
   <i type="int" name="NBANDS">    36</i>
   <i name="NELECT">      7.00000000</i>
   <i type="int" name="TURBO">     0</i>
   <i type="int" name="IRESTART">     0</i>
   <i type="int" name="NREBOOT">     0</i>
   <i type="int" name="NMIN">     0</i>
   <i name="EREF">      0.00000000</i>
   <separator name="electronic smearing" >
    <i type="int" name="ISMEAR">     0</i>
    <i name="SIGMA">      0.05000000</i>
    <i name="KSPACING">      0.50000000</i>
    <i type="logical" name="KGAMMA"> T  </i>
   </separator>
   <separator name="electronic projectors" >
    <i type="logical" name="LREAL"> T  </i>
    <v name="ROPT">     -0.00025000</v>
    <i type="int" name="LMAXPAW">  -100</i>
    <i type="int" name="LMAXMIX">     2</i>
    <i type="logical" name="NLSPLINE"> F  </i>
   </separator>
   <separator name="electronic startup" >
    <i type="int" name="ISTART">     0</i>
    <i type="int" name="ICHARG">     2</i>
    <i type="int" name="INIWAV">     1</i>
   </separator>
   <separator name="electronic spin" >
    <i type="int" name="ISPIN">     2</i>
    <i type="logical" name="LNONCOLLINEAR"> F  </i>
    <v name="MAGMOM">      0.60000000</v>
    <i name="NUPDOWN">     -1.00000000</i>
    <i type="logical" name="LSORBIT"> F  </i>
    <v name="SAXIS">      0.00000000      0.00000000      1.00000000</v>
    <i type="logical" name="LSPIRAL"> F  </i>
    <v name="QSPIRAL">      0.00000000      0.00000000      0.00000000</v>
    <i type="logical" name="LZEROZ"> F  </i>
   </separator>
   <separator name="electronic exchange-correlation" >
    <i type="logical" name="LASPH"> T  </i>
    <i type="logical" name="LMETAGGA"> F  </i>
   </separator>
   <separator name="electronic convergence" >
    <i type="int" name="NELM">   300</i>
    <i type="int" name="NELMDL">    -5</i>
    <i type="int" name="NELMIN">     2</i>
    <i name="ENINI">    520.00000000</i>
    <separator name="electronic convergence detail" >
     <i type="logical" name="LDIAG"> T  </i>
     <i type="logical" name="LSUBROT"> F  </i>
     <i name="WEIMIN">      0.00100000</i>
     <i name="EBREAK">      0.00000035</i>
     <i name="DEPER">      0.30000000</i>
     <i type="int" name="NRMM">     4</i>
     <i name="TIME">      0.40000000</i>
    </separator>
   </separator>
   <separator name="electronic mixer" >
    <i name="AMIX">      0.40000000</i>
    <i name="BMIX">      1.00000000</i>
    <i name="AMIN">      0.10000000</i>
    <i name="AMIX_MAG">      1.60000000</i>
    <i name="BMIX_MAG">      1.00000000</i>
    <separator name="electronic mixer details" >
     <i type="int" name="IMIX">     4</i>
     <i type="logical" name="MIXFIRST"> F  </i>
     <i type="int" name="MAXMIX">   -45</i>
     <i name="WC">    100.00000000</i>
     <i type="int" name="INIMIX">     1</i>
     <i type="int" name="MIXPRE">     1</i>
     <i type="int" name="MREMOVE">     5</i>
    </separator>
   </separator>
   <separator name="electronic dipolcorrection" >
    <i type="logical" name="LDIPOL"> F  </i>
    <i type="logical" name="LMONO"> F  </i>
    <i type="int" name="IDIPOL">     0</i>
    <i name="EPSILON">      1.00000000</i>
    <v name="DIPOL">   -100.00000000   -100.00000000   -100.00000000</v>
    <i name="EFIELD">      0.00000000</i>
   </separator>
  </separator>
  <separator name="grids" >
   <i type="int" name="NGX">    80</i>
   <i type="int" name="NGY">    80</i>
   <i type="int" name="NGZ">    80</i>
   <i type="int" name="NGXF">   160</i>
   <i type="int" name="NGYF">   160</i>
   <i type="int" name="NGZF">   160</i>
   <i type="logical" name="ADDGRID"> F  </i>
  </separator>
  <separator name="ionic" >
   <i type="int" name="NSW">    99</i>
   <i type="int" name="IBRION">     2</i>
   <i type="int" name="MDALGO">     0</i>
   <i type="int" name="ISIF">     2</i>
   <i name="PSTRESS">      0.00000000</i>
   <i name="EDIFFG">      0.00050000</i>
   <i type="int" name="NFREE">     1</i>
   <i name="POTIM">      0.50000000</i>
   <i name="SMASS">     -3.00000000</i>
   <i name="SCALEE">      1.00000000</i>
  </separator>
  <separator name="ionic md" >
   <i name="TEBEG">      0.00010000</i>
   <i name="TEEND">      0.00010000</i>
   <i type="int" name="NBLOCK">     1</i>
   <i type="int" name="KBLOCK">    99</i>
   <i type="int" name="NPACO">   256</i>
   <i name="APACO">     16.00000000</i>
  </separator>
  <separator name="symmetry" >
   <i type="int" name="ISYM">     2</i>
   <i name="SYMPREC">      0.00001000</i>
  </separator>
  <separator name="dos" >
   <i type="int" name="LORBIT">    11</i>
   <v name="RWIGS">     -1.00000000</v>
   <i type="int" name="NEDOS">   301</i>
   <i name="EMIN">     10.00000000</i>
   <i name="EMAX">    -10.00000000</i>
   <i name="EFERMI">      0.00000000</i>
  </separator>
  <separator name="writing" >
   <i type="int" name="NWRITE">     2</i>
   <i type="logical" name="LWAVE"> F  </i>
   <i type="logical" name="LDOWNSAMPLE"> F  </i>
   <i type="logical" name="LCHARG"> T  </i>
   <i type="logical" name="LPARD"> F  </i>
   <i type="logical" name="LVTOT"> F  </i>
   <i type="logical" name="LVHAR"> F  </i>
   <i type="logical" name="LELF"> F  </i>
   <i type="logical" name="LOPTICS"> F  </i>
   <v name="STM">      0.00000000      0.00000000      0.00000000      0.00000000      0.00000000      0.00000000      0.00000000</v>
  </separator>
  <separator name="performance" >
   <i type="int" name="NPAR">    36</i>
   <i type="int" name="NSIM">     4</i>
   <i type="int" name="NBLK">    -1</i>
   <i type="logical" name="LPLANE"> T  </i>
   <i type="logical" name="LSCALAPACK"> T  </i>
   <i type="logical" name="LSCAAWARE"> F  </i>
   <i type="logical" name="LSCALU"> F  </i>
   <i type="logical" name="LASYNC"> F  </i>
   <i type="logical" name="LORBITALREAL"> F  </i>
  </separator>
  <separator name="miscellaneous" >
   <i type="int" name="IDIOT">     3</i>
   <i type="int" name="ISPECIAL">     0</i>
   <i type="logical" name="LMUSIC"> F  </i>
   <v name="POMASS">    126.90400000</v>
   <v name="DARWINR">      0.00000000</v>
   <v name="DARWINV">      1.00000000</v>
   <i type="logical" name="LCORR"> T  </i>
  </separator>
  <i type="logical" name="GGA_COMPAT"> T  </i>
  <i type="logical" name="LBERRY"> F  </i>
  <i type="int" name="ICORELEVEL">     0</i>
  <i type="logical" name="LDAU"> F  </i>
  <i type="int" name="I_CONSTRAINED_M">     0</i>
  <separator name="electronic exchange-correlation" >
   <i type="string" name="GGA">--</i>
   <i type="int" name="VOSKOWN">     0</i>
   <i type="logical" name="LHFCALC"> F  </i>
   <i type="string" name="PRECFOCK"></i>
   <i type="logical" name="LSYMGRAD"> F  </i>
   <i type="logical" name="LHFONE"> F  </i>
   <i type="logical" name="LRHFCALC"> F  </i>
   <i type="logical" name="LTHOMAS"> F  </i>
   <i type="logical" name="LMODELHF"> F  </i>
   <i name="ENCUT4O">     -1.00000000</i>
   <i type="int" name="EXXOEP">     0</i>
   <i type="int" name="FOURORBIT">     0</i>
   <i name="AEXX">      0.00000000</i>
   <i name="HFALPHA">      0.00000000</i>
   <i name="MCALPHA">      0.00000000</i>
   <i name="ALDAX">      1.00000000</i>
   <i name="AGGAX">      1.00000000</i>
   <i name="ALDAC">      1.00000000</i>
   <i name="AGGAC">      1.00000000</i>
   <i type="int" name="NKREDX">     1</i>
   <i type="int" name="NKREDY">     1</i>
   <i type="int" name="NKREDZ">     1</i>
   <i type="logical" name="SHIFTRED"> F  </i>
   <i type="logical" name="ODDONLY"> F  </i>
   <i type="logical" name="EVENONLY"> F  </i>
   <i type="int" name="LMAXFOCK">     0</i>
   <i type="int" name="NMAXFOCKAE">     0</i>
   <i type="logical" name="LFOCKAEDFT"> F  </i>
   <i name="HFSCREEN">      0.00000000</i>
   <i name="HFSCREENC">      0.00000000</i>
   <i type="int" name="NBANDSGWLOW">     0</i>
  </separator>
  <separator name="vdW DFT" >
   <i type="logical" name="LUSE_VDW"> F  </i>
   <i name="Zab_VDW">     -0.84910000</i>
   <i name="PARAM1">      0.12340000</i>
   <i name="PARAM2">      1.00000000</i>
   <i name="PARAM3">      0.00000000</i>
  </separator>
  <separator name="model GW" >
   <i type="int" name="MODEL_GW">     0</i>
   <i name="MODEL_EPS0">    600.00000000</i>
   <i name="MODEL_ALPHA">      1.00000000</i>
  </separator>
  <separator name="linear response parameters" >
   <i type="logical" name="LEPSILON"> F  </i>
   <i type="logical" name="LRPA"> F  </i>
   <i type="logical" name="LNABLA"> F  </i>
   <i type="logical" name="LVEL"> F  </i>
   <i type="int" name="KINTER">     0</i>
   <i name="CSHIFT">      0.10000000</i>
   <i name="OMEGAMAX">     -1.00000000</i>
   <i name="DEG_THRESHOLD">      0.00200000</i>
   <i name="RTIME">     -0.10000000</i>
   <i name="WPLASMAI">      0.00000000</i>
   <v name="DFIELD">      0.00000000      0.00000000      0.00000000</v>
   <v name="WPLASMA">      0.00000000      0.00000000      0.00000000      0.00000000      0.00000000      0.00000000      0.00000000      0.00000000      0.00000000</v>
  </separator>
  <separator name="orbital magnetization" >
   <i type="logical" name="NUCIND"> F  </i>
   <v name="MAGPOS">      0.00000000      0.00000000      0.00000000</v>
   <i type="logical" name="LNICSALL"> T  </i>
   <i type="logical" name="ORBITALMAG"> F  </i>
   <i type="logical" name="LMAGBLOCH"> F  </i>
   <i type="logical" name="LCHIMAG"> F  </i>
   <i type="logical" name="LGAUGE"> T  </i>
   <i type="int" name="MAGATOM">     0</i>
   <v name="MAGDIPOL">      0.00000000      0.00000000      0.00000000</v>
   <v name="AVECCONST">      0.00000000      0.00000000      0.00000000</v>
  </separator>
  <separator name="response functions" >
   <i type="logical" name="LADDER"> F  </i>
   <i type="logical" name="LRPAFORCE"> F  </i>
   <i type="logical" name="LFXC"> F  </i>
   <i type="logical" name="LHARTREE"> T  </i>
   <i type="int" name="IBSE">     0</i>
   <v type="int" name="KPOINT">    -1     0     0     0</v>
   <i type="logical" name="LTCTE"> F  </i>
   <i type="logical" name="LTETE"> F  </i>
   <i type="logical" name="LTRIPLET"> F  </i>
   <i type="logical" name="LFXCEPS"> F  </i>
   <i type="logical" name="LFXHEG"> F  </i>
   <i type="int" name="NATURALO">     2</i>
   <i type="logical" name="L2ORDER"> F  </i>
   <i type="logical" name="LMP2LT"> F  </i>
   <i type="logical" name="LUSEW"> F  </i>
   <i name="ENCUTGW">     -2.00000000</i>
   <i name="ENCUTGWSOFT">     -2.00000000</i>
   <i name="ENCUTLF">     -1.00000000</i>
   <i type="int" name="LMAXMP2">    -1</i>
   <i name="SCISSOR">      0.00000000</i>
   <i type="int" name="NOMEGA">     0</i>
   <i type="int" name="NOMEGAR">     0</i>
   <i type="int" name="NBANDSGW">    -1</i>
   <i type="int" name="NBANDSO">    -1</i>
   <i type="int" name="NBANDSV">    -1</i>
   <i type="int" name="NELM">   300</i>
   <i type="int" name="NELMHF">     1</i>
   <i type="int" name="DIM">     3</i>
   <i type="int" name="ANTIRES">     0</i>
   <i name="OMEGAMAX">    -30.00000000</i>
   <i name="OMEGAMIN">    -30.00000000</i>
   <i name="OMEGATL">   -200.00000000</i>
   <i type="int" name="OMEGAGRID">   140</i>
   <i name="CSHIFT">     -0.10000000</i>
   <i type="logical" name="SELFENERGY"> F  </i>
   <i type="logical" name="LSPECTRAL"> F  </i>
   <i type="logical" name="LSPECTRALGW"> F  </i>
   <i type="logical" name="LSINGLES"> F  </i>
   <i type="logical" name="LFERMIGW"> F  </i>
   <i type="logical" name="ODDONLYGW"> F  </i>
   <i type="logical" name="EVENONLYGW"> F  </i>
   <i type="int" name="NKREDLFX">     1</i>
   <i type="int" name="NKREDLFY">     1</i>
   <i type="int" name="NKREDLFZ">     1</i>
   <i type="int" name="MAXMEM">  2800</i>
   <i type="int" name="TELESCOPE">     0</i>
   <i type="int" name="TAUPAR">     1</i>
   <i type="int" name="OMEGAPAR">    -1</i>
   <i name="LAMBDA">      1.00000000</i>
  </separator>
  <separator name="External order field" >
   <i name="OFIELD_KAPPA">      0.00000000</i>
   <v name="OFIELD_K">      0.00000000      0.00000000      0.00000000</v>
   <i name="OFIELD_Q6_NEAR">      0.00000000</i>
   <i name="OFIELD_Q6_FAR">      0.00000000</i>
   <i name="OFIELD_A">      0.00000000</i>
  </separator>
 </parameters>
 <atominfo>
  <atoms>       1 </atoms>
  <types>       1 </types>
  <array name="atoms" >
   <dimension dim="1">ion</dimension>
   <field type="string">element</field>
   <field type="int">atomtype</field>
   <set>
    <rc><c>I </c><c>   1</c></rc>
   </set>
  </array>
  <array name="atomtypes" >
   <dimension dim="1">type</dimension>
   <field type="int">atomspertype</field>
   <field type="string">element</field>
   <field>mass</field>
   <field>valence</field>
   <field type="string">pseudopotential</field>
   <set>
    <rc><c>   1</c><c>I </c><c>    126.90400000</c><c>      7.00000000</c><c>  PAW_PBE I 08Apr2002                   </c></rc>
   </set>
  </array>
 </atominfo>
 <structure name="initialpos" >
  <crystal>
   <varray name="basis" >
    <v>      10.00000000       0.00000000       0.00000000 </v>
    <v>       0.00000000      10.00000000       0.00000000 </v>
    <v>       0.00000000       0.00000000      10.00000000 </v>
   </varray>
   <i name="volume">   1000.00000000 </i>
   <varray name="rec_basis" >
    <v>       0.10000000       0.00000000       0.00000000 </v>
    <v>       0.00000000       0.10000000       0.00000000 </v>
    <v>       0.00000000       0.00000000       0.10000000 </v>
   </varray>
  </crystal>
  <varray name="positions" >
   <v>       0.50000000       0.50000000       0.50000000 </v>
  </varray>
 </structure>
 <calculation>
  <scstep>
   <time name="total">    0.87    0.88</time>
   <energy>
    <i name="alphaZ">      0.13309265 </i>
    <i name="ewald">   -100.09837603 </i>
    <i name="hartreedc">   -160.52856007 </i>
    <i name="XCdc">    -13.90778824 </i>
    <i name="pawpsdc">    271.90492591 </i>
    <i name="pawaedc">   -245.62043113 </i>
    <i name="eentropy">     -0.00000047 </i>
    <i name="bandstr">     -9.22051882 </i>
    <i name="atom">    315.86694822 </i>
    <i name="e_fr_energy">     58.52929203 </i>
    <i name="e_wo_entrp">     58.52929250 </i>
    <i name="e_0_energy">     58.52929227 </i>
   </energy>
  </scstep>
  <scstep>
   <time name="total">    0.39    0.39</time>
   <energy>
    <i name="e_fr_energy">     38.50120542 </i>
    <i name="e_wo_entrp">     38.51847588 </i>
    <i name="e_0_energy">     38.50984065 </i>
   </energy>
  </scstep>
  <scstep>
   <time name="total">    0.40    0.40</time>
   <energy>
    <i name="e_fr_energy">     28.26668205 </i>
    <i name="e_wo_entrp">     28.26668206 </i>
    <i name="e_0_energy">     28.26668206 </i>
   </energy>
  </scstep>
  <scstep>
   <time name="total">    0.39    0.39</time>
   <energy>
    <i name="e_fr_energy">     14.04055983 </i>
    <i name="e_wo_entrp">     14.04114803 </i>
    <i name="e_0_energy">     14.04085393 </i>
   </energy>
  </scstep>
  <scstep>
   <time name="total">    0.62    0.62</time>
   <energy>
    <i name="e_fr_energy">      5.23717387 </i>
    <i name="e_wo_entrp">      5.24100705 </i>
    <i name="e_0_energy">      5.23909046 </i>
   </energy>
  </scstep>
  <scstep>
   <time name="total">    0.95    0.96</time>
   <energy>
    <i name="e_fr_energy">      6.83432805 </i>
    <i name="e_wo_entrp">      6.83868024 </i>
    <i name="e_0_energy">      6.83650414 </i>
   </energy>
  </scstep>
  <scstep>
   <time name="total">    0.92    0.92</time>
   <energy>
    <i name="e_fr_energy">      1.07642579 </i>
    <i name="e_wo_entrp">      1.09268977 </i>
    <i name="e_0_energy">      1.08455778 </i>
   </energy>
  </scstep>
  <scstep>
   <time name="total">    0.91    0.91</time>
   <energy>
    <i name="e_fr_energy">      0.47878956 </i>
    <i name="e_wo_entrp">      0.50608309 </i>
    <i name="e_0_energy">      0.49243632 </i>
   </energy>
  </scstep>
  <scstep>
   <time name="total">    0.90    0.90</time>
   <energy>
    <i name="e_fr_energy">      0.04931119 </i>
    <i name="e_wo_entrp">      0.07085114 </i>
    <i name="e_0_energy">      0.06008116 </i>
   </energy>
  </scstep>
  <scstep>
   <time name="total">    0.92    0.93</time>
   <energy>
    <i name="e_fr_energy">     -0.11584631 </i>
    <i name="e_wo_entrp">     -0.09430031 </i>
    <i name="e_0_energy">     -0.10507331 </i>
   </energy>
  </scstep>
  <scstep>
   <time name="total">    0.93    0.93</time>
   <energy>
    <i name="e_fr_energy">     -0.13543823 </i>
    <i name="e_wo_entrp">     -0.11003293 </i>
    <i name="e_0_energy">     -0.12273558 </i>
   </energy>
  </scstep>
  <scstep>
   <time name="total">    0.91    0.91</time>
   <energy>
    <i name="e_fr_energy">     -0.17699107 </i>
    <i name="e_wo_entrp">     -0.14675929 </i>
    <i name="e_0_energy">     -0.16187518 </i>
   </energy>
  </scstep>
  <scstep>
   <time name="total">    0.93    0.93</time>
   <energy>
    <i name="e_fr_energy">     -0.19518528 </i>
    <i name="e_wo_entrp">     -0.16113071 </i>
    <i name="e_0_energy">     -0.17815799 </i>
   </energy>
  </scstep>
  <scstep>
   <time name="total">    0.92    0.92</time>
   <energy>
    <i name="e_fr_energy">     -0.20041755 </i>
    <i name="e_wo_entrp">     -0.16402752 </i>
    <i name="e_0_energy">     -0.18222253 </i>
   </energy>
  </scstep>
  <scstep>
   <time name="total">    0.93    0.93</time>
   <energy>
    <i name="e_fr_energy">     -0.20438684 </i>
    <i name="e_wo_entrp">     -0.16678607 </i>
    <i name="e_0_energy">     -0.18558645 </i>
   </energy>
  </scstep>
  <scstep>
   <time name="total">    0.92    0.92</time>
   <energy>
    <i name="e_fr_energy">     -0.20632840 </i>
    <i name="e_wo_entrp">     -0.16816451 </i>
    <i name="e_0_energy">     -0.18724645 </i>
   </energy>
  </scstep>
  <scstep>
   <time name="total">    0.91    0.91</time>
   <energy>
    <i name="e_fr_energy">     -0.20705076 </i>
    <i name="e_wo_entrp">     -0.16864399 </i>
    <i name="e_0_energy">     -0.18784737 </i>
   </energy>
  </scstep>
  <scstep>
   <time name="total">    0.93    0.93</time>
   <energy>
    <i name="e_fr_energy">     -0.20739624 </i>
    <i name="e_wo_entrp">     -0.16889059 </i>
    <i name="e_0_energy">     -0.18814341 </i>
   </energy>
  </scstep>
  <scstep>
   <time name="total">    0.93    0.93</time>
   <energy>
    <i name="e_fr_energy">     -0.20754218 </i>
    <i name="e_wo_entrp">     -0.16899820 </i>
    <i name="e_0_energy">     -0.18827019 </i>
   </energy>
  </scstep>
  <scstep>
   <time name="total">    0.96    0.97</time>
   <energy>
    <i name="alphaZ">      0.13309265 </i>
    <i name="ewald">   -100.09837603 </i>
    <i name="hartreedc">   -160.63995961 </i>
    <i name="XCdc">    -13.85019454 </i>
    <i name="pawpsdc">    278.77221241 </i>
    <i name="pawaedc">   -252.49264325 </i>
    <i name="eentropy">     -0.03855816 </i>
    <i name="bandstr">    -67.86012664 </i>
    <i name="atom">    315.86694822 </i>
    <i name="e_fr_energy">     -0.20759078 </i>
    <i name="e_wo_entrp">     -0.16903262 </i>
    <i name="e_0_energy">     -0.18831170 </i>
   </energy>
  </scstep>
  <structure>
   <crystal>
    <varray name="basis" >
     <v>      10.00000000       0.00000000       0.00000000 </v>
     <v>       0.00000000      10.00000000       0.00000000 </v>
     <v>       0.00000000       0.00000000      10.00000000 </v>
    </varray>
    <i name="volume">   1000.00000000 </i>
    <varray name="rec_basis" >
     <v>       0.10000000       0.00000000       0.00000000 </v>
     <v>       0.00000000       0.10000000       0.00000000 </v>
     <v>       0.00000000       0.00000000       0.10000000 </v>
    </varray>
   </crystal>
   <varray name="positions" >
    <v>       0.50000000       0.50000000       0.50000000 </v>
   </varray>
  </structure>
  <varray name="forces" >
   <v>       0.00000000       0.00000000       0.00000000 </v>
  </varray>
  <varray name="stress" >
   <v>       0.00781852       0.00000000      -0.00000000 </v>
   <v>       0.00000000       0.00781852      -0.00000000 </v>
   <v>       0.00000000      -0.00000000       0.00781852 </v>
  </varray>
  <energy>
   <i name="e_fr_energy">     -0.20759078 </i>
   <i name="e_wo_entrp">     -0.18831170 </i>
   <i name="e_0_energy">     -0.03855816 </i>
  </energy>
  <time name="totalsc">   23.27   23.53</time>
  <eigenvalues>
   <array>
    <dimension dim="1">band</dimension>
    <dimension dim="2">kpoint</dimension>
    <dimension dim="3">spin</dimension>
    <field>eigene</field>
    <field>occ</field>
    <set>
     <set comment="spin 1">
      <set comment="kpoint 1">
       <r>  -17.3288    1.0000 </r>
       <r>   -7.0148    1.0000 </r>
       <r>   -7.0148    1.0000 </r>
       <r>   -7.0148    1.0000 </r>
       <r>   -0.4592    0.0000 </r>
       <r>    1.0689    0.0000 </r>
       <r>    1.0695    0.0000 </r>
       <r>    1.2467    0.0000 </r>
       <r>    1.2527    0.0000 </r>
       <r>    1.2559    0.0000 </r>
       <r>    1.3052    0.0000 </r>
       <r>    1.7597    0.0000 </r>
       <r>    1.7607    0.0000 </r>
       <r>    1.7608    0.0000 </r>
       <r>    2.6246    0.0000 </r>
       <r>    2.6266    0.0000 </r>
       <r>    2.8594    0.0000 </r>
       <r>    2.8613    0.0000 </r>
       <r>    2.8681    0.0000 </r>
       <r>    2.8842    0.0000 </r>
       <r>    2.8942    0.0000 </r>
       <r>    2.9081    0.0000 </r>
       <r>    3.1205    0.0000 </r>
       <r>    3.8111    0.0000 </r>
       <r>    3.8124    0.0000 </r>
       <r>    3.8155    0.0000 </r>
       <r>    3.8970    0.0000 </r>
       <r>    3.9073    0.0000 </r>
       <r>    4.0914    0.0000 </r>
       <r>    4.4105    0.0000 </r>
       <r>    4.4846    0.0000 </r>
       <r>    4.6150    0.0000 </r>
       <r>    4.8693    0.0000 </r>
       <r>    5.2799    0.0000 </r>
       <r>    5.3700    0.0000 </r>
       <r>    6.1892    0.0000 </r>
      </set>
     </set>
     <set comment="spin 2">
      <set comment="kpoint 1">
       <r>  -16.7141    1.0000 </r>
       <r>   -6.3865    0.6733 </r>
       <r>   -6.3865    0.6699 </r>
       <r>   -6.3865    0.6568 </r>
       <r>   -0.3719    0.0000 </r>
       <r>    1.1544    0.0000 </r>
       <r>    1.1550    0.0000 </r>
       <r>    1.3224    0.0000 </r>
       <r>    1.3225    0.0000 </r>
       <r>    1.3286    0.0000 </r>
       <r>    1.3672    0.0000 </r>
       <r>    1.9423    0.0000 </r>
       <r>    1.9427    0.0000 </r>
       <r>    1.9434    0.0000 </r>
       <r>    2.7041    0.0000 </r>
       <r>    2.7051    0.0000 </r>
       <r>    2.8868    0.0000 </r>
       <r>    2.8870    0.0000 </r>
       <r>    2.9167    0.0000 </r>
       <r>    2.9238    0.0000 </r>
       <r>    2.9613    0.0000 </r>
       <r>    3.0322    0.0000 </r>
       <r>    3.1286    0.0000 </r>
       <r>    3.8749    0.0000 </r>
       <r>    3.8855    0.0000 </r>
       <r>    3.8890    0.0000 </r>
       <r>    4.0743    0.0000 </r>
       <r>    4.0921    0.0000 </r>
       <r>    4.1084    0.0000 </r>
       <r>    4.5099    0.0000 </r>
       <r>    4.5735    0.0000 </r>
       <r>    4.5780    0.0000 </r>
       <r>    4.6505    0.0000 </r>
       <r>    5.6348    0.0000 </r>
       <r>    5.9421    0.0000 </r>
       <r>    6.3066    0.0000 </r>
      </set>
     </set>
    </set>
   </array>
  </eigenvalues>
  <separator name="orbital magnetization" >
   <v name="MAGDIPOLOUT">      0.00000000      0.00000000      0.00000000</v>
  </separator>
  <dos>
   <i name="efermi">     -6.37124831 </i>
   <total>
    <array>
     <dimension dim="1">gridpoints</dimension>
     <dimension dim="2">spin</dimension>
     <field>energy</field>
     <field>total</field>
     <field>integrated</field>
     <set>
      <set comment="spin 1">
       <r>   -18.5106     0.0000     0.0000 </r>
       <r>   -18.4239     0.0000     0.0000 </r>
       <r>   -18.3373     0.0000     0.0000 </r>
       <r>   -18.2506     0.0000     0.0000 </r>
       <r>   -18.1639     0.0000     0.0000 </r>
       <r>   -18.0773     0.0000     0.0000 </r>
       <r>   -17.9906     0.0000     0.0000 </r>
       <r>   -17.9039     0.0000     0.0000 </r>
       <r>   -17.8173     0.0000     0.0000 </r>
       <r>   -17.7306     0.0000     0.0000 </r>
       <r>   -17.6440     0.0000     0.0000 </r>
       <r>   -17.5573     0.0000     0.0000 </r>
       <r>   -17.4706     0.0003     0.0000 </r>
       <r>   -17.3840     0.6850     0.0594 </r>
       <r>   -17.2973     8.7030     0.8136 </r>
       <r>   -17.2106     2.1457     0.9996 </r>
       <r>   -17.1240     0.0048     1.0000 </r>
       <r>   -17.0373     0.0000     1.0000 </r>
       <r>   -16.9507     0.0000     1.0000 </r>
       <r>   -16.8640     0.0000     1.0000 </r>
       <r>   -16.7773     0.0000     1.0000 </r>
       <r>   -16.6907     0.0000     1.0000 </r>
       <r>   -16.6040     0.0000     1.0000 </r>
       <r>   -16.5173     0.0000     1.0000 </r>
       <r>   -16.4307     0.0000     1.0000 </r>
       <r>   -16.3440     0.0000     1.0000 </r>
       <r>   -16.2573     0.0000     1.0000 </r>
       <r>   -16.1707     0.0000     1.0000 </r>
       <r>   -16.0840     0.0000     1.0000 </r>
       <r>   -15.9974     0.0000     1.0000 </r>
       <r>   -15.9107     0.0000     1.0000 </r>
       <r>   -15.8240     0.0000     1.0000 </r>
       <r>   -15.7374     0.0000     1.0000 </r>
       <r>   -15.6507     0.0000     1.0000 </r>
       <r>   -15.5640     0.0000     1.0000 </r>
       <r>   -15.4774     0.0000     1.0000 </r>
       <r>   -15.3907     0.0000     1.0000 </r>
       <r>   -15.3040     0.0000     1.0000 </r>
       <r>   -15.2174     0.0000     1.0000 </r>
       <r>   -15.1307     0.0000     1.0000 </r>
       <r>   -15.0441     0.0000     1.0000 </r>
       <r>   -14.9574     0.0000     1.0000 </r>
       <r>   -14.8707     0.0000     1.0000 </r>
       <r>   -14.7841     0.0000     1.0000 </r>
       <r>   -14.6974     0.0000     1.0000 </r>
       <r>   -14.6107     0.0000     1.0000 </r>
       <r>   -14.5241     0.0000     1.0000 </r>
       <r>   -14.4374     0.0000     1.0000 </r>
       <r>   -14.3508     0.0000     1.0000 </r>
       <r>   -14.2641     0.0000     1.0000 </r>
       <r>   -14.1774     0.0000     1.0000 </r>
       <r>   -14.0908     0.0000     1.0000 </r>
       <r>   -14.0041     0.0000     1.0000 </r>
       <r>   -13.9174     0.0000     1.0000 </r>
       <r>   -13.8308     0.0000     1.0000 </r>
       <r>   -13.7441     0.0000     1.0000 </r>
       <r>   -13.6574     0.0000     1.0000 </r>
       <r>   -13.5708     0.0000     1.0000 </r>
       <r>   -13.4841     0.0000     1.0000 </r>
       <r>   -13.3975     0.0000     1.0000 </r>
       <r>   -13.3108     0.0000     1.0000 </r>
       <r>   -13.2241     0.0000     1.0000 </r>
       <r>   -13.1375     0.0000     1.0000 </r>
       <r>   -13.0508     0.0000     1.0000 </r>
       <r>   -12.9641     0.0000     1.0000 </r>
       <r>   -12.8775     0.0000     1.0000 </r>
       <r>   -12.7908     0.0000     1.0000 </r>
       <r>   -12.7041     0.0000     1.0000 </r>
       <r>   -12.6175     0.0000     1.0000 </r>
       <r>   -12.5308     0.0000     1.0000 </r>
       <r>   -12.4442     0.0000     1.0000 </r>
       <r>   -12.3575     0.0000     1.0000 </r>
       <r>   -12.2708     0.0000     1.0000 </r>
       <r>   -12.1842     0.0000     1.0000 </r>
       <r>   -12.0975     0.0000     1.0000 </r>
       <r>   -12.0108     0.0000     1.0000 </r>
       <r>   -11.9242     0.0000     1.0000 </r>
       <r>   -11.8375     0.0000     1.0000 </r>
       <r>   -11.7508     0.0000     1.0000 </r>
       <r>   -11.6642     0.0000     1.0000 </r>
       <r>   -11.5775     0.0000     1.0000 </r>
       <r>   -11.4909     0.0000     1.0000 </r>
       <r>   -11.4042     0.0000     1.0000 </r>
       <r>   -11.3175     0.0000     1.0000 </r>
       <r>   -11.2309     0.0000     1.0000 </r>
       <r>   -11.1442     0.0000     1.0000 </r>
       <r>   -11.0575     0.0000     1.0000 </r>
       <r>   -10.9709     0.0000     1.0000 </r>
       <r>   -10.8842     0.0000     1.0000 </r>
       <r>   -10.7976     0.0000     1.0000 </r>
       <r>   -10.7109     0.0000     1.0000 </r>
       <r>   -10.6242     0.0000     1.0000 </r>
       <r>   -10.5376     0.0000     1.0000 </r>
       <r>   -10.4509     0.0000     1.0000 </r>
       <r>   -10.3642     0.0000     1.0000 </r>
       <r>   -10.2776     0.0000     1.0000 </r>
       <r>   -10.1909     0.0000     1.0000 </r>
       <r>   -10.1042     0.0000     1.0000 </r>
       <r>   -10.0176     0.0000     1.0000 </r>
       <r>    -9.9309     0.0000     1.0000 </r>
       <r>    -9.8443     0.0000     1.0000 </r>
       <r>    -9.7576     0.0000     1.0000 </r>
       <r>    -9.6709     0.0000     1.0000 </r>
       <r>    -9.5843     0.0000     1.0000 </r>
       <r>    -9.4976     0.0000     1.0000 </r>
       <r>    -9.4109     0.0000     1.0000 </r>
       <r>    -9.3243     0.0000     1.0000 </r>
       <r>    -9.2376     0.0000     1.0000 </r>
       <r>    -9.1509     0.0000     1.0000 </r>
       <r>    -9.0643     0.0000     1.0000 </r>
       <r>    -8.9776     0.0000     1.0000 </r>
       <r>    -8.8910     0.0000     1.0000 </r>
       <r>    -8.8043     0.0000     1.0000 </r>
       <r>    -8.7176     0.0000     1.0000 </r>
       <r>    -8.6310     0.0000     1.0000 </r>
       <r>    -8.5443     0.0000     1.0000 </r>
       <r>    -8.4576     0.0000     1.0000 </r>
       <r>    -8.3710     0.0000     1.0000 </r>
       <r>    -8.2843     0.0000     1.0000 </r>
       <r>    -8.1977     0.0000     1.0000 </r>
       <r>    -8.1110     0.0000     1.0000 </r>
       <r>    -8.0243     0.0000     1.0000 </r>
       <r>    -7.9377     0.0000     1.0000 </r>
       <r>    -7.8510     0.0000     1.0000 </r>
       <r>    -7.7643     0.0000     1.0000 </r>
       <r>    -7.6777     0.0000     1.0000 </r>
       <r>    -7.5910     0.0000     1.0000 </r>
       <r>    -7.5043     0.0000     1.0000 </r>
       <r>    -7.4177     0.0000     1.0000 </r>
       <r>    -7.3310     0.0000     1.0000 </r>
       <r>    -7.2444     0.0000     1.0000 </r>
       <r>    -7.1577     0.0009     1.0001 </r>
       <r>    -7.0710     1.9289     1.1672 </r>
       <r>    -6.9844    25.9375     3.4151 </r>
       <r>    -6.8977     6.7332     3.9986 </r>
       <r>    -6.8110     0.0161     4.0000 </r>
       <r>    -6.7244     0.0000     4.0000 </r>
       <r>    -6.6377     0.0000     4.0000 </r>
       <r>    -6.5510     0.0000     4.0000 </r>
       <r>    -6.4644     0.0000     4.0000 </r>
       <r>    -6.3777     0.0000     4.0000 </r>
       <r>    -6.2911     0.0000     4.0000 </r>
       <r>    -6.2044     0.0000     4.0000 </r>
       <r>    -6.1177     0.0000     4.0000 </r>
       <r>    -6.0311     0.0000     4.0000 </r>
       <r>    -5.9444     0.0000     4.0000 </r>
       <r>    -5.8577     0.0000     4.0000 </r>
       <r>    -5.7711     0.0000     4.0000 </r>
       <r>    -5.6844     0.0000     4.0000 </r>
       <r>    -5.5978     0.0000     4.0000 </r>
       <r>    -5.5111     0.0000     4.0000 </r>
       <r>    -5.4244     0.0000     4.0000 </r>
       <r>    -5.3378     0.0000     4.0000 </r>
       <r>    -5.2511     0.0000     4.0000 </r>
       <r>    -5.1644     0.0000     4.0000 </r>
       <r>    -5.0778     0.0000     4.0000 </r>
       <r>    -4.9911     0.0000     4.0000 </r>
       <r>    -4.9044     0.0000     4.0000 </r>
       <r>    -4.8178     0.0000     4.0000 </r>
       <r>    -4.7311     0.0000     4.0000 </r>
       <r>    -4.6445     0.0000     4.0000 </r>
       <r>    -4.5578     0.0000     4.0000 </r>
       <r>    -4.4711     0.0000     4.0000 </r>
       <r>    -4.3845     0.0000     4.0000 </r>
       <r>    -4.2978     0.0000     4.0000 </r>
       <r>    -4.2111     0.0000     4.0000 </r>
       <r>    -4.1245     0.0000     4.0000 </r>
       <r>    -4.0378     0.0000     4.0000 </r>
       <r>    -3.9511     0.0000     4.0000 </r>
       <r>    -3.8645     0.0000     4.0000 </r>
       <r>    -3.7778     0.0000     4.0000 </r>
       <r>    -3.6912     0.0000     4.0000 </r>
       <r>    -3.6045     0.0000     4.0000 </r>
       <r>    -3.5178     0.0000     4.0000 </r>
       <r>    -3.4312     0.0000     4.0000 </r>
       <r>    -3.3445     0.0000     4.0000 </r>
       <r>    -3.2578     0.0000     4.0000 </r>
       <r>    -3.1712     0.0000     4.0000 </r>
       <r>    -3.0845     0.0000     4.0000 </r>
       <r>    -2.9979     0.0000     4.0000 </r>
       <r>    -2.9112     0.0000     4.0000 </r>
       <r>    -2.8245     0.0000     4.0000 </r>
       <r>    -2.7379     0.0000     4.0000 </r>
       <r>    -2.6512     0.0000     4.0000 </r>
       <r>    -2.5645     0.0000     4.0000 </r>
       <r>    -2.4779     0.0000     4.0000 </r>
       <r>    -2.3912     0.0000     4.0000 </r>
       <r>    -2.3045     0.0000     4.0000 </r>
       <r>    -2.2179     0.0000     4.0000 </r>
       <r>    -2.1312     0.0000     4.0000 </r>
       <r>    -2.0446     0.0000     4.0000 </r>
       <r>    -1.9579     0.0000     4.0000 </r>
       <r>    -1.8712     0.0000     4.0000 </r>
       <r>    -1.7846     0.0000     4.0000 </r>
       <r>    -1.6979     0.0000     4.0000 </r>
       <r>    -1.6112     0.0000     4.0000 </r>
       <r>    -1.5246     0.0000     4.0000 </r>
       <r>    -1.4379     0.0000     4.0000 </r>
       <r>    -1.3512     0.0000     4.0000 </r>
       <r>    -1.2646     0.0000     4.0000 </r>
       <r>    -1.1779     0.0000     4.0000 </r>
       <r>    -1.0913     0.0000     4.0000 </r>
       <r>    -1.0046     0.0000     4.0000 </r>
       <r>    -0.9179     0.0000     4.0000 </r>
       <r>    -0.8313     0.0000     4.0000 </r>
       <r>    -0.7446     0.0000     4.0000 </r>
       <r>    -0.6579     0.0000     4.0000 </r>
       <r>    -0.5713     0.0088     4.0008 </r>
       <r>    -0.4846     2.7152     4.2361 </r>
       <r>    -0.3979     8.3347     4.9584 </r>
       <r>    -0.3113     0.4800     5.0000 </r>
       <r>    -0.2246     0.0002     5.0000 </r>
       <r>    -0.1380     0.0000     5.0000 </r>
       <r>    -0.0513     0.0000     5.0000 </r>
       <r>     0.0354     0.0000     5.0000 </r>
       <r>     0.1220     0.0000     5.0000 </r>
       <r>     0.2087     0.0000     5.0000 </r>
       <r>     0.2954     0.0000     5.0000 </r>
       <r>     0.3820     0.0000     5.0000 </r>
       <r>     0.4687     0.0000     5.0000 </r>
       <r>     0.5553     0.0000     5.0000 </r>
       <r>     0.6420     0.0000     5.0000 </r>
       <r>     0.7287     0.0000     5.0000 </r>
       <r>     0.8153     0.0000     5.0000 </r>
       <r>     0.9020     0.0000     5.0000 </r>
       <r>     0.9887     0.2617     5.0227 </r>
       <r>     1.0753    12.8566     6.1369 </r>
       <r>     1.1620    10.0599     7.0087 </r>
       <r>     1.2487    16.6361     8.4505 </r>
       <r>     1.3353    26.8218    10.7749 </r>
       <r>     1.4220     2.5916    10.9995 </r>
       <r>     1.5086     0.0055    11.0000 </r>
       <r>     1.5953     0.0001    11.0000 </r>
       <r>     1.6820     0.4582    11.0397 </r>
       <r>     1.7686    20.0225    12.7749 </r>
       <r>     1.8553    14.0096    13.9890 </r>
       <r>     1.9420     0.1264    14.0000 </r>
       <r>     2.0286     0.0000    14.0000 </r>
       <r>     2.1153     0.0000    14.0000 </r>
       <r>     2.2020     0.0000    14.0000 </r>
       <r>     2.2886     0.0000    14.0000 </r>
       <r>     2.3753     0.0000    14.0000 </r>
       <r>     2.4619     0.0000    14.0000 </r>
       <r>     2.5486     0.3407    14.0295 </r>
       <r>     2.6353    13.6880    15.2158 </r>
       <r>     2.7219     8.9759    15.9937 </r>
       <r>     2.8086     2.5644    16.2159 </r>
       <r>     2.8953    43.0578    19.9474 </r>
       <r>     2.9819    23.3494    21.9710 </r>
       <r>     3.0686     1.1534    22.0709 </r>
       <r>     3.1552     8.8400    22.8370 </r>
       <r>     3.2419     1.8770    22.9997 </r>
       <r>     3.3286     0.0034    23.0000 </r>
       <r>     3.4152     0.0000    23.0000 </r>
       <r>     3.5019     0.0000    23.0000 </r>
       <r>     3.5886     0.0000    23.0000 </r>
       <r>     3.6752     0.0017    23.0001 </r>
       <r>     3.7619     2.5722    23.2231 </r>
       <r>     3.8486    28.1216    25.6602 </r>
       <r>     3.9352    22.8967    27.6445 </r>
       <r>     4.0219     4.3778    28.0239 </r>
       <r>     4.1085     7.6448    28.6864 </r>
       <r>     4.1952     3.5994    28.9983 </r>
       <r>     4.2819     0.0207    29.0001 </r>
       <r>     4.3685     1.3627    29.1182 </r>
       <r>     4.4552    11.3233    30.0996 </r>
       <r>     4.5419    10.0033    30.9665 </r>
       <r>     4.6285     7.8800    31.6494 </r>
       <r>     4.7152     4.0194    31.9977 </r>
       <r>     4.8019     0.3510    32.0281 </r>
       <r>     4.8885     7.8238    32.7062 </r>
       <r>     4.9752     3.3746    32.9986 </r>
       <r>     5.0618     0.0159    33.0000 </r>
       <r>     5.1485     0.0012    33.0001 </r>
       <r>     5.2352     1.1864    33.1029 </r>
       <r>     5.3218     9.9892    33.9686 </r>
       <r>     5.4085    10.3048    34.8617 </r>
       <r>     5.4952     1.5940    34.9998 </r>
       <r>     5.5818     0.0023    35.0000 </r>
       <r>     5.6685     0.0000    35.0000 </r>
       <r>     5.7551     0.0000    35.0000 </r>
       <r>     5.8418     0.0000    35.0000 </r>
       <r>     5.9285     0.0000    35.0000 </r>
       <r>     6.0151     0.0000    35.0000 </r>
       <r>     6.1018     0.0773    35.0067 </r>
       <r>     6.1885     5.5918    35.4913 </r>
       <r>     6.2751     5.7826    35.9924 </r>
       <r>     6.3618     0.0873    36.0000 </r>
       <r>     6.4485     0.0000    36.0000 </r>
       <r>     6.5351     0.0000    36.0000 </r>
       <r>     6.6218     0.0000    36.0000 </r>
       <r>     6.7084     0.0000    36.0000 </r>
       <r>     6.7951     0.0000    36.0000 </r>
       <r>     6.8818     0.0000    36.0000 </r>
       <r>     6.9684     0.0000    36.0000 </r>
       <r>     7.0551     0.0000    36.0000 </r>
       <r>     7.1418     0.0000    36.0000 </r>
       <r>     7.2284     0.0000    36.0000 </r>
       <r>     7.3151     0.0000    36.0000 </r>
       <r>     7.4018     0.0000    36.0000 </r>
       <r>     7.4884     0.0000    36.0000 </r>
      </set>
      <set comment="spin 2">
       <r>   -18.5106     0.0000     0.0000 </r>
       <r>   -18.4239     0.0000     0.0000 </r>
       <r>   -18.3373     0.0000     0.0000 </r>
       <r>   -18.2506     0.0000     0.0000 </r>
       <r>   -18.1639     0.0000     0.0000 </r>
       <r>   -18.0773     0.0000     0.0000 </r>
       <r>   -17.9906     0.0000     0.0000 </r>
       <r>   -17.9039     0.0000     0.0000 </r>
       <r>   -17.8173     0.0000     0.0000 </r>
       <r>   -17.7306     0.0000     0.0000 </r>
       <r>   -17.6440     0.0000     0.0000 </r>
       <r>   -17.5573     0.0000     0.0000 </r>
       <r>   -17.4706     0.0000     0.0000 </r>
       <r>   -17.3840     0.0000     0.0000 </r>
       <r>   -17.2973     0.0000     0.0000 </r>
       <r>   -17.2106     0.0000     0.0000 </r>
       <r>   -17.1240     0.0000     0.0000 </r>
       <r>   -17.0373     0.0000     0.0000 </r>
       <r>   -16.9507     0.0000     0.0000 </r>
       <r>   -16.8640     0.0001     0.0000 </r>
       <r>   -16.7773     0.4247     0.0368 </r>
       <r>   -16.6907     8.1847     0.7461 </r>
       <r>   -16.6040     2.9187     0.9991 </r>
       <r>   -16.5173     0.0107     1.0000 </r>
       <r>   -16.4307     0.0000     1.0000 </r>
       <r>   -16.3440     0.0000     1.0000 </r>
       <r>   -16.2573     0.0000     1.0000 </r>
       <r>   -16.1707     0.0000     1.0000 </r>
       <r>   -16.0840     0.0000     1.0000 </r>
       <r>   -15.9974     0.0000     1.0000 </r>
       <r>   -15.9107     0.0000     1.0000 </r>
       <r>   -15.8240     0.0000     1.0000 </r>
       <r>   -15.7374     0.0000     1.0000 </r>
       <r>   -15.6507     0.0000     1.0000 </r>
       <r>   -15.5640     0.0000     1.0000 </r>
       <r>   -15.4774     0.0000     1.0000 </r>
       <r>   -15.3907     0.0000     1.0000 </r>
       <r>   -15.3040     0.0000     1.0000 </r>
       <r>   -15.2174     0.0000     1.0000 </r>
       <r>   -15.1307     0.0000     1.0000 </r>
       <r>   -15.0441     0.0000     1.0000 </r>
       <r>   -14.9574     0.0000     1.0000 </r>
       <r>   -14.8707     0.0000     1.0000 </r>
       <r>   -14.7841     0.0000     1.0000 </r>
       <r>   -14.6974     0.0000     1.0000 </r>
       <r>   -14.6107     0.0000     1.0000 </r>
       <r>   -14.5241     0.0000     1.0000 </r>
       <r>   -14.4374     0.0000     1.0000 </r>
       <r>   -14.3508     0.0000     1.0000 </r>
       <r>   -14.2641     0.0000     1.0000 </r>
       <r>   -14.1774     0.0000     1.0000 </r>
       <r>   -14.0908     0.0000     1.0000 </r>
       <r>   -14.0041     0.0000     1.0000 </r>
       <r>   -13.9174     0.0000     1.0000 </r>
       <r>   -13.8308     0.0000     1.0000 </r>
       <r>   -13.7441     0.0000     1.0000 </r>
       <r>   -13.6574     0.0000     1.0000 </r>
       <r>   -13.5708     0.0000     1.0000 </r>
       <r>   -13.4841     0.0000     1.0000 </r>
       <r>   -13.3975     0.0000     1.0000 </r>
       <r>   -13.3108     0.0000     1.0000 </r>
       <r>   -13.2241     0.0000     1.0000 </r>
       <r>   -13.1375     0.0000     1.0000 </r>
       <r>   -13.0508     0.0000     1.0000 </r>
       <r>   -12.9641     0.0000     1.0000 </r>
       <r>   -12.8775     0.0000     1.0000 </r>
       <r>   -12.7908     0.0000     1.0000 </r>
       <r>   -12.7041     0.0000     1.0000 </r>
       <r>   -12.6175     0.0000     1.0000 </r>
       <r>   -12.5308     0.0000     1.0000 </r>
       <r>   -12.4442     0.0000     1.0000 </r>
       <r>   -12.3575     0.0000     1.0000 </r>
       <r>   -12.2708     0.0000     1.0000 </r>
       <r>   -12.1842     0.0000     1.0000 </r>
       <r>   -12.0975     0.0000     1.0000 </r>
       <r>   -12.0108     0.0000     1.0000 </r>
       <r>   -11.9242     0.0000     1.0000 </r>
       <r>   -11.8375     0.0000     1.0000 </r>
       <r>   -11.7508     0.0000     1.0000 </r>
       <r>   -11.6642     0.0000     1.0000 </r>
       <r>   -11.5775     0.0000     1.0000 </r>
       <r>   -11.4909     0.0000     1.0000 </r>
       <r>   -11.4042     0.0000     1.0000 </r>
       <r>   -11.3175     0.0000     1.0000 </r>
       <r>   -11.2309     0.0000     1.0000 </r>
       <r>   -11.1442     0.0000     1.0000 </r>
       <r>   -11.0575     0.0000     1.0000 </r>
       <r>   -10.9709     0.0000     1.0000 </r>
       <r>   -10.8842     0.0000     1.0000 </r>
       <r>   -10.7976     0.0000     1.0000 </r>
       <r>   -10.7109     0.0000     1.0000 </r>
       <r>   -10.6242     0.0000     1.0000 </r>
       <r>   -10.5376     0.0000     1.0000 </r>
       <r>   -10.4509     0.0000     1.0000 </r>
       <r>   -10.3642     0.0000     1.0000 </r>
       <r>   -10.2776     0.0000     1.0000 </r>
       <r>   -10.1909     0.0000     1.0000 </r>
       <r>   -10.1042     0.0000     1.0000 </r>
       <r>   -10.0176     0.0000     1.0000 </r>
       <r>    -9.9309     0.0000     1.0000 </r>
       <r>    -9.8443     0.0000     1.0000 </r>
       <r>    -9.7576     0.0000     1.0000 </r>
       <r>    -9.6709     0.0000     1.0000 </r>
       <r>    -9.5843     0.0000     1.0000 </r>
       <r>    -9.4976     0.0000     1.0000 </r>
       <r>    -9.4109     0.0000     1.0000 </r>
       <r>    -9.3243     0.0000     1.0000 </r>
       <r>    -9.2376     0.0000     1.0000 </r>
       <r>    -9.1509     0.0000     1.0000 </r>
       <r>    -9.0643     0.0000     1.0000 </r>
       <r>    -8.9776     0.0000     1.0000 </r>
       <r>    -8.8910     0.0000     1.0000 </r>
       <r>    -8.8043     0.0000     1.0000 </r>
       <r>    -8.7176     0.0000     1.0000 </r>
       <r>    -8.6310     0.0000     1.0000 </r>
       <r>    -8.5443     0.0000     1.0000 </r>
       <r>    -8.4576     0.0000     1.0000 </r>
       <r>    -8.3710     0.0000     1.0000 </r>
       <r>    -8.2843     0.0000     1.0000 </r>
       <r>    -8.1977     0.0000     1.0000 </r>
       <r>    -8.1110     0.0000     1.0000 </r>
       <r>    -8.0243     0.0000     1.0000 </r>
       <r>    -7.9377     0.0000     1.0000 </r>
       <r>    -7.8510     0.0000     1.0000 </r>
       <r>    -7.7643     0.0000     1.0000 </r>
       <r>    -7.6777     0.0000     1.0000 </r>
       <r>    -7.5910     0.0000     1.0000 </r>
       <r>    -7.5043     0.0000     1.0000 </r>
       <r>    -7.4177     0.0000     1.0000 </r>
       <r>    -7.3310     0.0000     1.0000 </r>
       <r>    -7.2444     0.0000     1.0000 </r>
       <r>    -7.1577     0.0000     1.0000 </r>
       <r>    -7.0710     0.0000     1.0000 </r>
       <r>    -6.9844     0.0000     1.0000 </r>
       <r>    -6.8977     0.0000     1.0000 </r>
       <r>    -6.8110     0.0000     1.0000 </r>
       <r>    -6.7244     0.0000     1.0000 </r>
       <r>    -6.6377     0.0000     1.0000 </r>
       <r>    -6.5510     0.0001     1.0000 </r>
       <r>    -6.4644     0.4769     1.0413 </r>
       <r>    -6.3777    20.2167     2.7934 </r>
       <r>    -6.2911    13.8026     3.9896 </r>
       <r>    -6.2044     0.1204     4.0000 </r>
       <r>    -6.1177     0.0000     4.0000 </r>
       <r>    -6.0311     0.0000     4.0000 </r>
       <r>    -5.9444     0.0000     4.0000 </r>
       <r>    -5.8577     0.0000     4.0000 </r>
       <r>    -5.7711     0.0000     4.0000 </r>
       <r>    -5.6844     0.0000     4.0000 </r>
       <r>    -5.5978     0.0000     4.0000 </r>
       <r>    -5.5111     0.0000     4.0000 </r>
       <r>    -5.4244     0.0000     4.0000 </r>
       <r>    -5.3378     0.0000     4.0000 </r>
       <r>    -5.2511     0.0000     4.0000 </r>
       <r>    -5.1644     0.0000     4.0000 </r>
       <r>    -5.0778     0.0000     4.0000 </r>
       <r>    -4.9911     0.0000     4.0000 </r>
       <r>    -4.9044     0.0000     4.0000 </r>
       <r>    -4.8178     0.0000     4.0000 </r>
       <r>    -4.7311     0.0000     4.0000 </r>
       <r>    -4.6445     0.0000     4.0000 </r>
       <r>    -4.5578     0.0000     4.0000 </r>
       <r>    -4.4711     0.0000     4.0000 </r>
       <r>    -4.3845     0.0000     4.0000 </r>
       <r>    -4.2978     0.0000     4.0000 </r>
       <r>    -4.2111     0.0000     4.0000 </r>
       <r>    -4.1245     0.0000     4.0000 </r>
       <r>    -4.0378     0.0000     4.0000 </r>
       <r>    -3.9511     0.0000     4.0000 </r>
       <r>    -3.8645     0.0000     4.0000 </r>
       <r>    -3.7778     0.0000     4.0000 </r>
       <r>    -3.6912     0.0000     4.0000 </r>
       <r>    -3.6045     0.0000     4.0000 </r>
       <r>    -3.5178     0.0000     4.0000 </r>
       <r>    -3.4312     0.0000     4.0000 </r>
       <r>    -3.3445     0.0000     4.0000 </r>
       <r>    -3.2578     0.0000     4.0000 </r>
       <r>    -3.1712     0.0000     4.0000 </r>
       <r>    -3.0845     0.0000     4.0000 </r>
       <r>    -2.9979     0.0000     4.0000 </r>
       <r>    -2.9112     0.0000     4.0000 </r>
       <r>    -2.8245     0.0000     4.0000 </r>
       <r>    -2.7379     0.0000     4.0000 </r>
       <r>    -2.6512     0.0000     4.0000 </r>
       <r>    -2.5645     0.0000     4.0000 </r>
       <r>    -2.4779     0.0000     4.0000 </r>
       <r>    -2.3912     0.0000     4.0000 </r>
       <r>    -2.3045     0.0000     4.0000 </r>
       <r>    -2.2179     0.0000     4.0000 </r>
       <r>    -2.1312     0.0000     4.0000 </r>
       <r>    -2.0446     0.0000     4.0000 </r>
       <r>    -1.9579     0.0000     4.0000 </r>
       <r>    -1.8712     0.0000     4.0000 </r>
       <r>    -1.7846     0.0000     4.0000 </r>
       <r>    -1.6979     0.0000     4.0000 </r>
       <r>    -1.6112     0.0000     4.0000 </r>
       <r>    -1.5246     0.0000     4.0000 </r>
       <r>    -1.4379     0.0000     4.0000 </r>
       <r>    -1.3512     0.0000     4.0000 </r>
       <r>    -1.2646     0.0000     4.0000 </r>
       <r>    -1.1779     0.0000     4.0000 </r>
       <r>    -1.0913     0.0000     4.0000 </r>
       <r>    -1.0046     0.0000     4.0000 </r>
       <r>    -0.9179     0.0000     4.0000 </r>
       <r>    -0.8313     0.0000     4.0000 </r>
       <r>    -0.7446     0.0000     4.0000 </r>
       <r>    -0.6579     0.0000     4.0000 </r>
       <r>    -0.5713     0.0000     4.0000 </r>
       <r>    -0.4846     0.0083     4.0007 </r>
       <r>    -0.3979     2.6515     4.2305 </r>
       <r>    -0.3113     8.3799     4.9567 </r>
       <r>    -0.2246     0.4990     5.0000 </r>
       <r>    -0.1380     0.0002     5.0000 </r>
       <r>    -0.0513     0.0000     5.0000 </r>
       <r>     0.0354     0.0000     5.0000 </r>
       <r>     0.1220     0.0000     5.0000 </r>
       <r>     0.2087     0.0000     5.0000 </r>
       <r>     0.2954     0.0000     5.0000 </r>
       <r>     0.3820     0.0000     5.0000 </r>
       <r>     0.4687     0.0000     5.0000 </r>
       <r>     0.5553     0.0000     5.0000 </r>
       <r>     0.6420     0.0000     5.0000 </r>
       <r>     0.7287     0.0000     5.0000 </r>
       <r>     0.8153     0.0000     5.0000 </r>
       <r>     0.9020     0.0000     5.0000 </r>
       <r>     0.9887     0.0000     5.0000 </r>
       <r>     1.0753     0.2859     5.0248 </r>
       <r>     1.1620    13.1391     6.1635 </r>
       <r>     1.2487    10.1299     7.0413 </r>
       <r>     1.3353    23.1015     9.0434 </r>
       <r>     1.4220    21.7720    10.9302 </r>
       <r>     1.5086     0.8047    11.0000 </r>
       <r>     1.5953     0.0004    11.0000 </r>
       <r>     1.6820     0.0000    11.0000 </r>
       <r>     1.7686     0.0000    11.0000 </r>
       <r>     1.8553     0.2309    11.0200 </r>
       <r>     1.9420    16.7515    12.4718 </r>
       <r>     2.0286    17.3711    13.9772 </r>
       <r>     2.1153     0.2632    14.0000 </r>
       <r>     2.2020     0.0000    14.0000 </r>
       <r>     2.2886     0.0000    14.0000 </r>
       <r>     2.3753     0.0000    14.0000 </r>
       <r>     2.4619     0.0000    14.0000 </r>
       <r>     2.5486     0.0001    14.0000 </r>
       <r>     2.6353     0.5751    14.0498 </r>
       <r>     2.7219    15.2983    15.3756 </r>
       <r>     2.8086     7.4944    16.0251 </r>
       <r>     2.8953    19.3177    17.6993 </r>
       <r>     2.9819    34.7094    20.7073 </r>
       <r>     3.0686    13.6653    21.8916 </r>
       <r>     3.1552    10.1845    22.7742 </r>
       <r>     3.2419     2.5976    22.9993 </r>
       <r>     3.3286     0.0078    23.0000 </r>
       <r>     3.4152     0.0000    23.0000 </r>
       <r>     3.5019     0.0000    23.0000 </r>
       <r>     3.5886     0.0000    23.0000 </r>
       <r>     3.6752     0.0000    23.0000 </r>
       <r>     3.7619     0.0127    23.0011 </r>
       <r>     3.8486     5.7937    23.5032 </r>
       <r>     3.9352    26.2840    25.7811 </r>
       <r>     4.0219     3.6762    26.0997 </r>
       <r>     4.1085    22.0944    28.0144 </r>
       <r>     4.1952    11.2672    28.9909 </r>
       <r>     4.2819     0.1051    29.0000 </r>
       <r>     4.3685     0.0004    29.0000 </r>
       <r>     4.4552     0.7102    29.0616 </r>
       <r>     4.5419    12.6434    30.1573 </r>
       <r>     4.6285    22.7747    32.1310 </r>
       <r>     4.7152     9.6388    32.9664 </r>
       <r>     4.8019     0.3881    33.0000 </r>
       <r>     4.8885     0.0001    33.0000 </r>
       <r>     4.9752     0.0000    33.0000 </r>
       <r>     5.0618     0.0000    33.0000 </r>
       <r>     5.1485     0.0000    33.0000 </r>
       <r>     5.2352     0.0000    33.0000 </r>
       <r>     5.3218     0.0000    33.0000 </r>
       <r>     5.4085     0.0000    33.0000 </r>
       <r>     5.4952     0.0005    33.0000 </r>
       <r>     5.5818     0.7728    33.0670 </r>
       <r>     5.6685     8.8000    33.8296 </r>
       <r>     5.7551     1.9619    33.9997 </r>
       <r>     5.8418     0.0302    34.0023 </r>
       <r>     5.9285     4.0144    34.3502 </r>
       <r>     6.0151     7.2744    34.9806 </r>
       <r>     6.1018     0.2238    35.0000 </r>
       <r>     6.1885     0.0048    35.0004 </r>
       <r>     6.2751     2.1457    35.1864 </r>
       <r>     6.3618     8.7030    35.9406 </r>
       <r>     6.4485     0.6850    36.0000 </r>
       <r>     6.5351     0.0003    36.0000 </r>
       <r>     6.6218     0.0000    36.0000 </r>
       <r>     6.7084     0.0000    36.0000 </r>
       <r>     6.7951     0.0000    36.0000 </r>
       <r>     6.8818     0.0000    36.0000 </r>
       <r>     6.9684     0.0000    36.0000 </r>
       <r>     7.0551     0.0000    36.0000 </r>
       <r>     7.1418     0.0000    36.0000 </r>
       <r>     7.2284     0.0000    36.0000 </r>
       <r>     7.3151     0.0000    36.0000 </r>
       <r>     7.4018     0.0000    36.0000 </r>
       <r>     7.4884     0.0000    36.0000 </r>
      </set>
     </set>
    </array>
   </total>
   <partial>
    <array>
     <dimension dim="1">gridpoints</dimension>
     <dimension dim="2">spin</dimension>
     <dimension dim="3">ion</dimension>
     <field>energy</field>
     <field>    s</field>
     <field>   py</field>
     <field>   pz</field>
     <field>   px</field>
     <field>  dxy</field>
     <field>  dyz</field>
     <field>  dz2</field>
     <field>  dxz</field>
     <field>x2-y2</field>
     <set>
      <set comment="ion 1">
       <set comment="spin 1">
        <r>   -18.5106     0.0000     0.0000     0.0000     0.0000     0.0000     0.0000     0.0000     0.0000     0.0000 </r>
        <r>   -18.4239     0.0000     0.0000     0.0000     0.0000     0.0000     0.0000     0.0000     0.0000     0.0000 </r>
        <r>   -18.3373     0.0000     0.0000     0.0000     0.0000     0.0000     0.0000     0.0000     0.0000     0.0000 </r>
        <r>   -18.2506     0.0000     0.0000     0.0000     0.0000     0.0000     0.0000     0.0000     0.0000     0.0000 </r>
        <r>   -18.1639     0.0000     0.0000     0.0000     0.0000     0.0000     0.0000     0.0000     0.0000     0.0000 </r>
        <r>   -18.0773     0.0000     0.0000     0.0000     0.0000     0.0000     0.0000     0.0000     0.0000     0.0000 </r>
        <r>   -17.9906     0.0000     0.0000     0.0000     0.0000     0.0000     0.0000     0.0000     0.0000     0.0000 </r>
        <r>   -17.9039     0.0000     0.0000     0.0000     0.0000     0.0000     0.0000     0.0000     0.0000     0.0000 </r>
        <r>   -17.8173     0.0000     0.0000     0.0000     0.0000     0.0000     0.0000     0.0000     0.0000     0.0000 </r>
        <r>   -17.7306     0.0000     0.0000     0.0000     0.0000     0.0000     0.0000     0.0000     0.0000     0.0000 </r>
        <r>   -17.6440     0.0000     0.0000     0.0000     0.0000     0.0000     0.0000     0.0000     0.0000     0.0000 </r>
        <r>   -17.5573     0.0000     0.0000     0.0000     0.0000     0.0000     0.0000     0.0000     0.0000     0.0000 </r>
        <r>   -17.4706     0.0003     0.0000     0.0000     0.0000     0.0000     0.0000     0.0000     0.0000     0.0000 </r>
        <r>   -17.3840     0.5278     0.0000     0.0000     0.0000     0.0000     0.0000     0.0000     0.0000     0.0000 </r>
        <r>   -17.2973     6.7060     0.0000     0.0000     0.0000     0.0000     0.0000     0.0000     0.0000     0.0000 </r>
        <r>   -17.2106     1.6534     0.0000     0.0000     0.0000     0.0000     0.0000     0.0000     0.0000     0.0000 </r>
        <r>   -17.1240     0.0037     0.0000     0.0000     0.0000     0.0000     0.0000     0.0000     0.0000     0.0000 </r>
        <r>   -17.0373     0.0000     0.0000     0.0000     0.0000     0.0000     0.0000     0.0000     0.0000     0.0000 </r>
        <r>   -16.9507     0.0000     0.0000     0.0000     0.0000     0.0000     0.0000     0.0000     0.0000     0.0000 </r>
        <r>   -16.8640     0.0000     0.0000     0.0000     0.0000     0.0000     0.0000     0.0000     0.0000     0.0000 </r>
        <r>   -16.7773     0.0000     0.0000     0.0000     0.0000     0.0000     0.0000     0.0000     0.0000     0.0000 </r>
        <r>   -16.6907     0.0000     0.0000     0.0000     0.0000     0.0000     0.0000     0.0000     0.0000     0.0000 </r>
        <r>   -16.6040     0.0000     0.0000     0.0000     0.0000     0.0000     0.0000     0.0000     0.0000     0.0000 </r>
        <r>   -16.5173     0.0000     0.0000     0.0000     0.0000     0.0000     0.0000     0.0000     0.0000     0.0000 </r>
        <r>   -16.4307     0.0000     0.0000     0.0000     0.0000     0.0000     0.0000     0.0000     0.0000     0.0000 </r>
        <r>   -16.3440     0.0000     0.0000     0.0000     0.0000     0.0000     0.0000     0.0000     0.0000     0.0000 </r>
        <r>   -16.2573     0.0000     0.0000     0.0000     0.0000     0.0000     0.0000     0.0000     0.0000     0.0000 </r>
        <r>   -16.1707     0.0000     0.0000     0.0000     0.0000     0.0000     0.0000     0.0000     0.0000     0.0000 </r>
        <r>   -16.0840     0.0000     0.0000     0.0000     0.0000     0.0000     0.0000     0.0000     0.0000     0.0000 </r>
        <r>   -15.9974     0.0000     0.0000     0.0000     0.0000     0.0000     0.0000     0.0000     0.0000     0.0000 </r>
        <r>   -15.9107     0.0000     0.0000     0.0000     0.0000     0.0000     0.0000     0.0000     0.0000     0.0000 </r>
        <r>   -15.8240     0.0000     0.0000     0.0000     0.0000     0.0000     0.0000     0.0000     0.0000     0.0000 </r>
        <r>   -15.7374     0.0000     0.0000     0.0000     0.0000     0.0000     0.0000     0.0000     0.0000     0.0000 </r>
        <r>   -15.6507     0.0000     0.0000     0.0000     0.0000     0.0000     0.0000     0.0000     0.0000     0.0000 </r>
        <r>   -15.5640     0.0000     0.0000     0.0000     0.0000     0.0000     0.0000     0.0000     0.0000     0.0000 </r>
        <r>   -15.4774     0.0000     0.0000     0.0000     0.0000     0.0000     0.0000     0.0000     0.0000     0.0000 </r>
        <r>   -15.3907     0.0000     0.0000     0.0000     0.0000     0.0000     0.0000     0.0000     0.0000     0.0000 </r>
        <r>   -15.3040     0.0000     0.0000     0.0000     0.0000     0.0000     0.0000     0.0000     0.0000     0.0000 </r>
        <r>   -15.2174     0.0000     0.0000     0.0000     0.0000     0.0000     0.0000     0.0000     0.0000     0.0000 </r>
        <r>   -15.1307     0.0000     0.0000     0.0000     0.0000     0.0000     0.0000     0.0000     0.0000     0.0000 </r>
        <r>   -15.0441     0.0000     0.0000     0.0000     0.0000     0.0000     0.0000     0.0000     0.0000     0.0000 </r>
        <r>   -14.9574     0.0000     0.0000     0.0000     0.0000     0.0000     0.0000     0.0000     0.0000     0.0000 </r>
        <r>   -14.8707     0.0000     0.0000     0.0000     0.0000     0.0000     0.0000     0.0000     0.0000     0.0000 </r>
        <r>   -14.7841     0.0000     0.0000     0.0000     0.0000     0.0000     0.0000     0.0000     0.0000     0.0000 </r>
        <r>   -14.6974     0.0000     0.0000     0.0000     0.0000     0.0000     0.0000     0.0000     0.0000     0.0000 </r>
        <r>   -14.6107     0.0000     0.0000     0.0000     0.0000     0.0000     0.0000     0.0000     0.0000     0.0000 </r>
        <r>   -14.5241     0.0000     0.0000     0.0000     0.0000     0.0000     0.0000     0.0000     0.0000     0.0000 </r>
        <r>   -14.4374     0.0000     0.0000     0.0000     0.0000     0.0000     0.0000     0.0000     0.0000     0.0000 </r>
        <r>   -14.3508     0.0000     0.0000     0.0000     0.0000     0.0000     0.0000     0.0000     0.0000     0.0000 </r>
        <r>   -14.2641     0.0000     0.0000     0.0000     0.0000     0.0000     0.0000     0.0000     0.0000     0.0000 </r>
        <r>   -14.1774     0.0000     0.0000     0.0000     0.0000     0.0000     0.0000     0.0000     0.0000     0.0000 </r>
        <r>   -14.0908     0.0000     0.0000     0.0000     0.0000     0.0000     0.0000     0.0000     0.0000     0.0000 </r>
        <r>   -14.0041     0.0000     0.0000     0.0000     0.0000     0.0000     0.0000     0.0000     0.0000     0.0000 </r>
        <r>   -13.9174     0.0000     0.0000     0.0000     0.0000     0.0000     0.0000     0.0000     0.0000     0.0000 </r>
        <r>   -13.8308     0.0000     0.0000     0.0000     0.0000     0.0000     0.0000     0.0000     0.0000     0.0000 </r>
        <r>   -13.7441     0.0000     0.0000     0.0000     0.0000     0.0000     0.0000     0.0000     0.0000     0.0000 </r>
        <r>   -13.6574     0.0000     0.0000     0.0000     0.0000     0.0000     0.0000     0.0000     0.0000     0.0000 </r>
        <r>   -13.5708     0.0000     0.0000     0.0000     0.0000     0.0000     0.0000     0.0000     0.0000     0.0000 </r>
        <r>   -13.4841     0.0000     0.0000     0.0000     0.0000     0.0000     0.0000     0.0000     0.0000     0.0000 </r>
        <r>   -13.3975     0.0000     0.0000     0.0000     0.0000     0.0000     0.0000     0.0000     0.0000     0.0000 </r>
        <r>   -13.3108     0.0000     0.0000     0.0000     0.0000     0.0000     0.0000     0.0000     0.0000     0.0000 </r>
        <r>   -13.2241     0.0000     0.0000     0.0000     0.0000     0.0000     0.0000     0.0000     0.0000     0.0000 </r>
        <r>   -13.1375     0.0000     0.0000     0.0000     0.0000     0.0000     0.0000     0.0000     0.0000     0.0000 </r>
        <r>   -13.0508     0.0000     0.0000     0.0000     0.0000     0.0000     0.0000     0.0000     0.0000     0.0000 </r>
        <r>   -12.9641     0.0000     0.0000     0.0000     0.0000     0.0000     0.0000     0.0000     0.0000     0.0000 </r>
        <r>   -12.8775     0.0000     0.0000     0.0000     0.0000     0.0000     0.0000     0.0000     0.0000     0.0000 </r>
        <r>   -12.7908     0.0000     0.0000     0.0000     0.0000     0.0000     0.0000     0.0000     0.0000     0.0000 </r>
        <r>   -12.7041     0.0000     0.0000     0.0000     0.0000     0.0000     0.0000     0.0000     0.0000     0.0000 </r>
        <r>   -12.6175     0.0000     0.0000     0.0000     0.0000     0.0000     0.0000     0.0000     0.0000     0.0000 </r>
        <r>   -12.5308     0.0000     0.0000     0.0000     0.0000     0.0000     0.0000     0.0000     0.0000     0.0000 </r>
        <r>   -12.4442     0.0000     0.0000     0.0000     0.0000     0.0000     0.0000     0.0000     0.0000     0.0000 </r>
        <r>   -12.3575     0.0000     0.0000     0.0000     0.0000     0.0000     0.0000     0.0000     0.0000     0.0000 </r>
        <r>   -12.2708     0.0000     0.0000     0.0000     0.0000     0.0000     0.0000     0.0000     0.0000     0.0000 </r>
        <r>   -12.1842     0.0000     0.0000     0.0000     0.0000     0.0000     0.0000     0.0000     0.0000     0.0000 </r>
        <r>   -12.0975     0.0000     0.0000     0.0000     0.0000     0.0000     0.0000     0.0000     0.0000     0.0000 </r>
        <r>   -12.0108     0.0000     0.0000     0.0000     0.0000     0.0000     0.0000     0.0000     0.0000     0.0000 </r>
        <r>   -11.9242     0.0000     0.0000     0.0000     0.0000     0.0000     0.0000     0.0000     0.0000     0.0000 </r>
        <r>   -11.8375     0.0000     0.0000     0.0000     0.0000     0.0000     0.0000     0.0000     0.0000     0.0000 </r>
        <r>   -11.7508     0.0000     0.0000     0.0000     0.0000     0.0000     0.0000     0.0000     0.0000     0.0000 </r>
        <r>   -11.6642     0.0000     0.0000     0.0000     0.0000     0.0000     0.0000     0.0000     0.0000     0.0000 </r>
        <r>   -11.5775     0.0000     0.0000     0.0000     0.0000     0.0000     0.0000     0.0000     0.0000     0.0000 </r>
        <r>   -11.4909     0.0000     0.0000     0.0000     0.0000     0.0000     0.0000     0.0000     0.0000     0.0000 </r>
        <r>   -11.4042     0.0000     0.0000     0.0000     0.0000     0.0000     0.0000     0.0000     0.0000     0.0000 </r>
        <r>   -11.3175     0.0000     0.0000     0.0000     0.0000     0.0000     0.0000     0.0000     0.0000     0.0000 </r>
        <r>   -11.2309     0.0000     0.0000     0.0000     0.0000     0.0000     0.0000     0.0000     0.0000     0.0000 </r>
        <r>   -11.1442     0.0000     0.0000     0.0000     0.0000     0.0000     0.0000     0.0000     0.0000     0.0000 </r>
        <r>   -11.0575     0.0000     0.0000     0.0000     0.0000     0.0000     0.0000     0.0000     0.0000     0.0000 </r>
        <r>   -10.9709     0.0000     0.0000     0.0000     0.0000     0.0000     0.0000     0.0000     0.0000     0.0000 </r>
        <r>   -10.8842     0.0000     0.0000     0.0000     0.0000     0.0000     0.0000     0.0000     0.0000     0.0000 </r>
        <r>   -10.7976     0.0000     0.0000     0.0000     0.0000     0.0000     0.0000     0.0000     0.0000     0.0000 </r>
        <r>   -10.7109     0.0000     0.0000     0.0000     0.0000     0.0000     0.0000     0.0000     0.0000     0.0000 </r>
        <r>   -10.6242     0.0000     0.0000     0.0000     0.0000     0.0000     0.0000     0.0000     0.0000     0.0000 </r>
        <r>   -10.5376     0.0000     0.0000     0.0000     0.0000     0.0000     0.0000     0.0000     0.0000     0.0000 </r>
        <r>   -10.4509     0.0000     0.0000     0.0000     0.0000     0.0000     0.0000     0.0000     0.0000     0.0000 </r>
        <r>   -10.3642     0.0000     0.0000     0.0000     0.0000     0.0000     0.0000     0.0000     0.0000     0.0000 </r>
        <r>   -10.2776     0.0000     0.0000     0.0000     0.0000     0.0000     0.0000     0.0000     0.0000     0.0000 </r>
        <r>   -10.1909     0.0000     0.0000     0.0000     0.0000     0.0000     0.0000     0.0000     0.0000     0.0000 </r>
        <r>   -10.1042     0.0000     0.0000     0.0000     0.0000     0.0000     0.0000     0.0000     0.0000     0.0000 </r>
        <r>   -10.0176     0.0000     0.0000     0.0000     0.0000     0.0000     0.0000     0.0000     0.0000     0.0000 </r>
        <r>    -9.9309     0.0000     0.0000     0.0000     0.0000     0.0000     0.0000     0.0000     0.0000     0.0000 </r>
        <r>    -9.8443     0.0000     0.0000     0.0000     0.0000     0.0000     0.0000     0.0000     0.0000     0.0000 </r>
        <r>    -9.7576     0.0000     0.0000     0.0000     0.0000     0.0000     0.0000     0.0000     0.0000     0.0000 </r>
        <r>    -9.6709     0.0000     0.0000     0.0000     0.0000     0.0000     0.0000     0.0000     0.0000     0.0000 </r>
        <r>    -9.5843     0.0000     0.0000     0.0000     0.0000     0.0000     0.0000     0.0000     0.0000     0.0000 </r>
        <r>    -9.4976     0.0000     0.0000     0.0000     0.0000     0.0000     0.0000     0.0000     0.0000     0.0000 </r>
        <r>    -9.4109     0.0000     0.0000     0.0000     0.0000     0.0000     0.0000     0.0000     0.0000     0.0000 </r>
        <r>    -9.3243     0.0000     0.0000     0.0000     0.0000     0.0000     0.0000     0.0000     0.0000     0.0000 </r>
        <r>    -9.2376     0.0000     0.0000     0.0000     0.0000     0.0000     0.0000     0.0000     0.0000     0.0000 </r>
        <r>    -9.1509     0.0000     0.0000     0.0000     0.0000     0.0000     0.0000     0.0000     0.0000     0.0000 </r>
        <r>    -9.0643     0.0000     0.0000     0.0000     0.0000     0.0000     0.0000     0.0000     0.0000     0.0000 </r>
        <r>    -8.9776     0.0000     0.0000     0.0000     0.0000     0.0000     0.0000     0.0000     0.0000     0.0000 </r>
        <r>    -8.8910     0.0000     0.0000     0.0000     0.0000     0.0000     0.0000     0.0000     0.0000     0.0000 </r>
        <r>    -8.8043     0.0000     0.0000     0.0000     0.0000     0.0000     0.0000     0.0000     0.0000     0.0000 </r>
        <r>    -8.7176     0.0000     0.0000     0.0000     0.0000     0.0000     0.0000     0.0000     0.0000     0.0000 </r>
        <r>    -8.6310     0.0000     0.0000     0.0000     0.0000     0.0000     0.0000     0.0000     0.0000     0.0000 </r>
        <r>    -8.5443     0.0000     0.0000     0.0000     0.0000     0.0000     0.0000     0.0000     0.0000     0.0000 </r>
        <r>    -8.4576     0.0000     0.0000     0.0000     0.0000     0.0000     0.0000     0.0000     0.0000     0.0000 </r>
        <r>    -8.3710     0.0000     0.0000     0.0000     0.0000     0.0000     0.0000     0.0000     0.0000     0.0000 </r>
        <r>    -8.2843     0.0000     0.0000     0.0000     0.0000     0.0000     0.0000     0.0000     0.0000     0.0000 </r>
        <r>    -8.1977     0.0000     0.0000     0.0000     0.0000     0.0000     0.0000     0.0000     0.0000     0.0000 </r>
        <r>    -8.1110     0.0000     0.0000     0.0000     0.0000     0.0000     0.0000     0.0000     0.0000     0.0000 </r>
        <r>    -8.0243     0.0000     0.0000     0.0000     0.0000     0.0000     0.0000     0.0000     0.0000     0.0000 </r>
        <r>    -7.9377     0.0000     0.0000     0.0000     0.0000     0.0000     0.0000     0.0000     0.0000     0.0000 </r>
        <r>    -7.8510     0.0000     0.0000     0.0000     0.0000     0.0000     0.0000     0.0000     0.0000     0.0000 </r>
        <r>    -7.7643     0.0000     0.0000     0.0000     0.0000     0.0000     0.0000     0.0000     0.0000     0.0000 </r>
        <r>    -7.6777     0.0000     0.0000     0.0000     0.0000     0.0000     0.0000     0.0000     0.0000     0.0000 </r>
        <r>    -7.5910     0.0000     0.0000     0.0000     0.0000     0.0000     0.0000     0.0000     0.0000     0.0000 </r>
        <r>    -7.5043     0.0000     0.0000     0.0000     0.0000     0.0000     0.0000     0.0000     0.0000     0.0000 </r>
        <r>    -7.4177     0.0000     0.0000     0.0000     0.0000     0.0000     0.0000     0.0000     0.0000     0.0000 </r>
        <r>    -7.3310     0.0000     0.0000     0.0000     0.0000     0.0000     0.0000     0.0000     0.0000     0.0000 </r>
        <r>    -7.2444     0.0000     0.0000     0.0000     0.0000     0.0000     0.0000     0.0000     0.0000     0.0000 </r>
        <r>    -7.1577     0.0000     0.0002     0.0002     0.0002     0.0000     0.0000     0.0000     0.0000     0.0000 </r>
        <r>    -7.0710     0.0000     0.3430     0.3430     0.3429     0.0000     0.0000     0.0000     0.0000     0.0000 </r>
        <r>    -6.9844     0.0000     4.6117     4.6115     4.6113     0.0000     0.0000     0.0000     0.0000     0.0000 </r>
        <r>    -6.8977     0.0000     1.1971     1.1971     1.1971     0.0000     0.0000     0.0000     0.0000     0.0000 </r>
        <r>    -6.8110     0.0000     0.0029     0.0029     0.0029     0.0000     0.0000     0.0000     0.0000     0.0000 </r>
        <r>    -6.7244     0.0000     0.0000     0.0000     0.0000     0.0000     0.0000     0.0000     0.0000     0.0000 </r>
        <r>    -6.6377     0.0000     0.0000     0.0000     0.0000     0.0000     0.0000     0.0000     0.0000     0.0000 </r>
        <r>    -6.5510     0.0000     0.0000     0.0000     0.0000     0.0000     0.0000     0.0000     0.0000     0.0000 </r>
        <r>    -6.4644     0.0000     0.0000     0.0000     0.0000     0.0000     0.0000     0.0000     0.0000     0.0000 </r>
        <r>    -6.3777     0.0000     0.0000     0.0000     0.0000     0.0000     0.0000     0.0000     0.0000     0.0000 </r>
        <r>    -6.2911     0.0000     0.0000     0.0000     0.0000     0.0000     0.0000     0.0000     0.0000     0.0000 </r>
        <r>    -6.2044     0.0000     0.0000     0.0000     0.0000     0.0000     0.0000     0.0000     0.0000     0.0000 </r>
        <r>    -6.1177     0.0000     0.0000     0.0000     0.0000     0.0000     0.0000     0.0000     0.0000     0.0000 </r>
        <r>    -6.0311     0.0000     0.0000     0.0000     0.0000     0.0000     0.0000     0.0000     0.0000     0.0000 </r>
        <r>    -5.9444     0.0000     0.0000     0.0000     0.0000     0.0000     0.0000     0.0000     0.0000     0.0000 </r>
        <r>    -5.8577     0.0000     0.0000     0.0000     0.0000     0.0000     0.0000     0.0000     0.0000     0.0000 </r>
        <r>    -5.7711     0.0000     0.0000     0.0000     0.0000     0.0000     0.0000     0.0000     0.0000     0.0000 </r>
        <r>    -5.6844     0.0000     0.0000     0.0000     0.0000     0.0000     0.0000     0.0000     0.0000     0.0000 </r>
        <r>    -5.5978     0.0000     0.0000     0.0000     0.0000     0.0000     0.0000     0.0000     0.0000     0.0000 </r>
        <r>    -5.5111     0.0000     0.0000     0.0000     0.0000     0.0000     0.0000     0.0000     0.0000     0.0000 </r>
        <r>    -5.4244     0.0000     0.0000     0.0000     0.0000     0.0000     0.0000     0.0000     0.0000     0.0000 </r>
        <r>    -5.3378     0.0000     0.0000     0.0000     0.0000     0.0000     0.0000     0.0000     0.0000     0.0000 </r>
        <r>    -5.2511     0.0000     0.0000     0.0000     0.0000     0.0000     0.0000     0.0000     0.0000     0.0000 </r>
        <r>    -5.1644     0.0000     0.0000     0.0000     0.0000     0.0000     0.0000     0.0000     0.0000     0.0000 </r>
        <r>    -5.0778     0.0000     0.0000     0.0000     0.0000     0.0000     0.0000     0.0000     0.0000     0.0000 </r>
        <r>    -4.9911     0.0000     0.0000     0.0000     0.0000     0.0000     0.0000     0.0000     0.0000     0.0000 </r>
        <r>    -4.9044     0.0000     0.0000     0.0000     0.0000     0.0000     0.0000     0.0000     0.0000     0.0000 </r>
        <r>    -4.8178     0.0000     0.0000     0.0000     0.0000     0.0000     0.0000     0.0000     0.0000     0.0000 </r>
        <r>    -4.7311     0.0000     0.0000     0.0000     0.0000     0.0000     0.0000     0.0000     0.0000     0.0000 </r>
        <r>    -4.6445     0.0000     0.0000     0.0000     0.0000     0.0000     0.0000     0.0000     0.0000     0.0000 </r>
        <r>    -4.5578     0.0000     0.0000     0.0000     0.0000     0.0000     0.0000     0.0000     0.0000     0.0000 </r>
        <r>    -4.4711     0.0000     0.0000     0.0000     0.0000     0.0000     0.0000     0.0000     0.0000     0.0000 </r>
        <r>    -4.3845     0.0000     0.0000     0.0000     0.0000     0.0000     0.0000     0.0000     0.0000     0.0000 </r>
        <r>    -4.2978     0.0000     0.0000     0.0000     0.0000     0.0000     0.0000     0.0000     0.0000     0.0000 </r>
        <r>    -4.2111     0.0000     0.0000     0.0000     0.0000     0.0000     0.0000     0.0000     0.0000     0.0000 </r>
        <r>    -4.1245     0.0000     0.0000     0.0000     0.0000     0.0000     0.0000     0.0000     0.0000     0.0000 </r>
        <r>    -4.0378     0.0000     0.0000     0.0000     0.0000     0.0000     0.0000     0.0000     0.0000     0.0000 </r>
        <r>    -3.9511     0.0000     0.0000     0.0000     0.0000     0.0000     0.0000     0.0000     0.0000     0.0000 </r>
        <r>    -3.8645     0.0000     0.0000     0.0000     0.0000     0.0000     0.0000     0.0000     0.0000     0.0000 </r>
        <r>    -3.7778     0.0000     0.0000     0.0000     0.0000     0.0000     0.0000     0.0000     0.0000     0.0000 </r>
        <r>    -3.6912     0.0000     0.0000     0.0000     0.0000     0.0000     0.0000     0.0000     0.0000     0.0000 </r>
        <r>    -3.6045     0.0000     0.0000     0.0000     0.0000     0.0000     0.0000     0.0000     0.0000     0.0000 </r>
        <r>    -3.5178     0.0000     0.0000     0.0000     0.0000     0.0000     0.0000     0.0000     0.0000     0.0000 </r>
        <r>    -3.4312     0.0000     0.0000     0.0000     0.0000     0.0000     0.0000     0.0000     0.0000     0.0000 </r>
        <r>    -3.3445     0.0000     0.0000     0.0000     0.0000     0.0000     0.0000     0.0000     0.0000     0.0000 </r>
        <r>    -3.2578     0.0000     0.0000     0.0000     0.0000     0.0000     0.0000     0.0000     0.0000     0.0000 </r>
        <r>    -3.1712     0.0000     0.0000     0.0000     0.0000     0.0000     0.0000     0.0000     0.0000     0.0000 </r>
        <r>    -3.0845     0.0000     0.0000     0.0000     0.0000     0.0000     0.0000     0.0000     0.0000     0.0000 </r>
        <r>    -2.9979     0.0000     0.0000     0.0000     0.0000     0.0000     0.0000     0.0000     0.0000     0.0000 </r>
        <r>    -2.9112     0.0000     0.0000     0.0000     0.0000     0.0000     0.0000     0.0000     0.0000     0.0000 </r>
        <r>    -2.8245     0.0000     0.0000     0.0000     0.0000     0.0000     0.0000     0.0000     0.0000     0.0000 </r>
[...]
        <r>     3.5886     0.0000     0.0000     0.0000     0.0000     0.0000     0.0000     0.0000     0.0000     0.0000 </r>
        <r>     3.6752     0.0000     0.0000     0.0000     0.0000     0.0000     0.0000     0.0000     0.0000     0.0000 </r>
        <r>     3.7619     0.0000     0.0000     0.0000     0.0000     0.0001     0.0002     0.0000     0.0001     0.0000 </r>
        <r>     3.8486     0.0001     0.0005     0.0011     0.0002     0.0458     0.0703     0.0016     0.0564     0.0029 </r>
        <r>     3.9352     0.0002     0.0017     0.0038     0.0005     0.2768     0.2663     0.0077     0.2420     0.0152 </r>
        <r>     4.0219     0.0000     0.0002     0.0004     0.0002     0.0335     0.0208     0.0145     0.0216     0.0238 </r>
        <r>     4.1085     0.0000     0.0005     0.0024     0.0025     0.0001     0.0014     0.5770     0.0034     0.6391 </r>
        <r>     4.1952     0.0000     0.0002     0.0014     0.0014     0.0000     0.0006     0.4606     0.0017     0.3797 </r>
        <r>     4.2819     0.0000     0.0000     0.0000     0.0000     0.0000     0.0000     0.0057     0.0000     0.0035 </r>
        <r>     4.3685     0.0000     0.0000     0.0000     0.0000     0.0000     0.0000     0.0000     0.0000     0.0000 </r>
        <r>     4.4552     0.0013     0.0035     0.0010     0.0003     0.0000     0.0001     0.0001     0.0000     0.0000 </r>
        <r>     4.5419     0.0166     0.0462     0.0211     0.0195     0.0098     0.0190     0.0011     0.0110     0.0004 </r>
        <r>     4.6285     0.0258     0.0282     0.0506     0.0704     0.0471     0.0775     0.0019     0.0548     0.0015 </r>
        <r>     4.7152     0.0510     0.0070     0.0109     0.0144     0.0051     0.0071     0.0001     0.0060     0.0006 </r>
        <r>     4.8019     0.0024     0.0003     0.0003     0.0004     0.0000     0.0000     0.0000     0.0000     0.0000 </r>
        <r>     4.8885     0.0000     0.0000     0.0000     0.0000     0.0000     0.0000     0.0000     0.0000     0.0000 </r>
        <r>     4.9752     0.0000     0.0000     0.0000     0.0000     0.0000     0.0000     0.0000     0.0000     0.0000 </r>
        <r>     5.0618     0.0000     0.0000     0.0000     0.0000     0.0000     0.0000     0.0000     0.0000     0.0000 </r>
        <r>     5.1485     0.0000     0.0000     0.0000     0.0000     0.0000     0.0000     0.0000     0.0000     0.0000 </r>
        <r>     5.2352     0.0000     0.0000     0.0000     0.0000     0.0000     0.0000     0.0000     0.0000     0.0000 </r>
        <r>     5.3218     0.0000     0.0000     0.0000     0.0000     0.0000     0.0000     0.0000     0.0000     0.0000 </r>
        <r>     5.4085     0.0000     0.0000     0.0000     0.0000     0.0000     0.0000     0.0000     0.0000     0.0000 </r>
        <r>     5.4952     0.0000     0.0000     0.0000     0.0000     0.0000     0.0000     0.0000     0.0000     0.0000 </r>
        <r>     5.5818     0.0007     0.0000     0.0000     0.0000     0.0012     0.0402     0.0005     0.0191     0.0003 </r>
        <r>     5.6685     0.0080     0.0005     0.0001     0.0002     0.0140     0.4576     0.0061     0.2175     0.0035 </r>
        <r>     5.7551     0.0018     0.0001     0.0000     0.0000     0.0031     0.1020     0.0014     0.0485     0.0008 </r>
        <r>     5.8418     0.0000     0.0000     0.0000     0.0000     0.0003     0.0004     0.0001     0.0003     0.0001 </r>
        <r>     5.9285     0.0037     0.0055     0.0002     0.0007     0.0454     0.0366     0.0181     0.0305     0.0089 </r>
        <r>     6.0151     0.0067     0.0100     0.0004     0.0012     0.0823     0.0663     0.0328     0.0553     0.0162 </r>
        <r>     6.1018     0.0002     0.0003     0.0000     0.0000     0.0025     0.0020     0.0010     0.0017     0.0005 </r>
        <r>     6.1885     0.0000     0.0000     0.0000     0.0000     0.0000     0.0000     0.0000     0.0000     0.0000 </r>
        <r>     6.2751     0.0014     0.0023     0.0021     0.0019     0.0078     0.0005     0.0202     0.0052     0.0044 </r>
        <r>     6.3618     0.0055     0.0094     0.0083     0.0075     0.0318     0.0019     0.0819     0.0211     0.0180 </r>
        <r>     6.4485     0.0004     0.0007     0.0007     0.0006     0.0025     0.0002     0.0064     0.0017     0.0014 </r>
        <r>     6.5351     0.0000     0.0000     0.0000     0.0000     0.0000     0.0000     0.0000     0.0000     0.0000 </r>
        <r>     6.6218     0.0000     0.0000     0.0000     0.0000     0.0000     0.0000     0.0000     0.0000     0.0000 </r>
        <r>     6.7084     0.0000     0.0000     0.0000     0.0000     0.0000     0.0000     0.0000     0.0000     0.0000 </r>
        <r>     6.7951     0.0000     0.0000     0.0000     0.0000     0.0000     0.0000     0.0000     0.0000     0.0000 </r>
        <r>     6.8818     0.0000     0.0000     0.0000     0.0000     0.0000     0.0000     0.0000     0.0000     0.0000 </r>
        <r>     6.9684     0.0000     0.0000     0.0000     0.0000     0.0000     0.0000     0.0000     0.0000     0.0000 </r>
        <r>     7.0551     0.0000     0.0000     0.0000     0.0000     0.0000     0.0000     0.0000     0.0000     0.0000 </r>
        <r>     7.1418     0.0000     0.0000     0.0000     0.0000     0.0000     0.0000     0.0000     0.0000     0.0000 </r>
        <r>     7.2284     0.0000     0.0000     0.0000     0.0000     0.0000     0.0000     0.0000     0.0000     0.0000 </r>
        <r>     7.3151     0.0000     0.0000     0.0000     0.0000     0.0000     0.0000     0.0000     0.0000     0.0000 </r>
        <r>     7.4018     0.0000     0.0000     0.0000     0.0000     0.0000     0.0000     0.0000     0.0000     0.0000 </r>
        <r>     7.4884     0.0000     0.0000     0.0000     0.0000     0.0000     0.0000     0.0000     0.0000     0.0000 </r>
       </set>
      </set>
     </set>
    </array>
   </partial>
  </dos>
  <projected>
   <eigenvalues>
    <array>
     <dimension dim="1">band</dimension>
     <dimension dim="2">kpoint</dimension>
     <dimension dim="3">spin</dimension>
     <field>eigene</field>
     <field>occ</field>
     <set>
      <set comment="spin 1">
       <set comment="kpoint 1">
        <r>  -17.3288    1.0000 </r>
        <r>   -7.0148    1.0000 </r>
        <r>   -7.0148    1.0000 </r>
        <r>   -7.0148    1.0000 </r>
        <r>   -0.4592    0.0000 </r>
        <r>    1.0689    0.0000 </r>
        <r>    1.0695    0.0000 </r>
        <r>    1.2467    0.0000 </r>
        <r>    1.2527    0.0000 </r>
        <r>    1.2559    0.0000 </r>
        <r>    1.3052    0.0000 </r>
        <r>    1.7597    0.0000 </r>
        <r>    1.7607    0.0000 </r>
        <r>    1.7608    0.0000 </r>
        <r>    2.6246    0.0000 </r>
        <r>    2.6266    0.0000 </r>
        <r>    2.8594    0.0000 </r>
        <r>    2.8613    0.0000 </r>
        <r>    2.8681    0.0000 </r>
        <r>    2.8842    0.0000 </r>
        <r>    2.8942    0.0000 </r>
        <r>    2.9081    0.0000 </r>
        <r>    3.1205    0.0000 </r>
        <r>    3.8111    0.0000 </r>
        <r>    3.8124    0.0000 </r>
        <r>    3.8155    0.0000 </r>
        <r>    3.8970    0.0000 </r>
        <r>    3.9073    0.0000 </r>
        <r>    4.0914    0.0000 </r>
        <r>    4.4105    0.0000 </r>
        <r>    4.4846    0.0000 </r>
        <r>    4.6150    0.0000 </r>
        <r>    4.8693    0.0000 </r>
        <r>    5.2799    0.0000 </r>
        <r>    5.3700    0.0000 </r>
        <r>    6.1892    0.0000 </r>
       </set>
      </set>
      <set comment="spin 2">
       <set comment="kpoint 1">
        <r>  -16.7141    1.0000 </r>
        <r>   -6.3865    0.6667 </r>
        <r>   -6.3865    0.6667 </r>
        <r>   -6.3865    0.6667 </r>
        <r>   -0.3719    0.0000 </r>
        <r>    1.1544    0.0000 </r>
        <r>    1.1550    0.0000 </r>
        <r>    1.3224    0.0000 </r>
        <r>    1.3225    0.0000 </r>
        <r>    1.3286    0.0000 </r>
        <r>    1.3672    0.0000 </r>
        <r>    1.9423    0.0000 </r>
        <r>    1.9427    0.0000 </r>
        <r>    1.9434    0.0000 </r>
        <r>    2.7041    0.0000 </r>
        <r>    2.7051    0.0000 </r>
        <r>    2.8868    0.0000 </r>
        <r>    2.8870    0.0000 </r>
        <r>    2.9167    0.0000 </r>
        <r>    2.9238    0.0000 </r>
        <r>    2.9613    0.0000 </r>
        <r>    3.0322    0.0000 </r>
        <r>    3.1286    0.0000 </r>
        <r>    3.8749    0.0000 </r>
        <r>    3.8855    0.0000 </r>
        <r>    3.8890    0.0000 </r>
        <r>    4.0743    0.0000 </r>
        <r>    4.0921    0.0000 </r>
        <r>    4.1084    0.0000 </r>
        <r>    4.5099    0.0000 </r>
        <r>    4.5735    0.0000 </r>
        <r>    4.5780    0.0000 </r>
        <r>    4.6505    0.0000 </r>
        <r>    5.6348    0.0000 </r>
        <r>    5.9421    0.0000 </r>
        <r>    6.3066    0.0000 </r>
       </set>
      </set>
     </set>
    </array>
   </eigenvalues>
   <array>
    <dimension dim="1">ion</dimension>
    <dimension dim="2">band</dimension>
    <dimension dim="3">kpoint</dimension>
    <dimension dim="4">spin</dimension>
    <field>    s</field>
    <field>   py</field>
    <field>   pz</field>
    <field>   px</field>
    <field>  dxy</field>
    <field>  dyz</field>
    <field>  dz2</field>
    <field>  dxz</field>
    <field>x2-y2</field>
    <set>
     <set comment="spin1">
      <set comment="kpoint 1">
       <set comment="band 1">
        <r>  0.7705  0.0000  0.0000  0.0000  0.0000  0.0000  0.0000  0.0000  0.0000 </r>
       </set>
       <set comment="band 2">
        <r>  0.0000  0.1124  0.4128  0.0082  0.0000  0.0000  0.0000  0.0000  0.0000 </r>
       </set>
       <set comment="band 3">
        <r>  0.0000  0.3993  0.1201  0.0141  0.0000  0.0000  0.0000  0.0000  0.0000 </r>
       </set>
       <set comment="band 4">
        <r>  0.0000  0.0217  0.0006  0.5111  0.0000  0.0000  0.0000  0.0000  0.0000 </r>
       </set>
       <set comment="band 5">
        <r>  0.0206  0.0000  0.0000  0.0000  0.0000  0.0000  0.0000  0.0000  0.0000 </r>
       </set>
       <set comment="band 6">
        <r>  0.0000  0.0000  0.0000  0.0000  0.0000  0.0000  0.0089  0.0000  0.0091 </r>
       </set>
       <set comment="band 7">
        <r>  0.0000  0.0000  0.0000  0.0000  0.0000  0.0000  0.0088  0.0000  0.0086 </r>
       </set>
       <set comment="band 8">
        <r>  0.0000  0.0090  0.0144  0.0041  0.0000  0.0000  0.0000  0.0000  0.0000 </r>
       </set>
       <set comment="band 9">
        <r>  0.0003  0.0094  0.0000  0.0169  0.0003  0.0000  0.0000  0.0000  0.0000 </r>
       </set>
       <set comment="band 10">
        <r>  0.0003  0.0085  0.0125  0.0058  0.0001  0.0000  0.0000  0.0000  0.0000 </r>
       </set>
       <set comment="band 11">
        <r>  0.0193  0.0000  0.0001  0.0008  0.0000  0.0000  0.0000  0.0000  0.0000 </r>
       </set>
       <set comment="band 12">
        <r>  0.0000  0.0000  0.0000  0.0001  0.0411  0.0087  0.0000  0.0021  0.0000 </r>
       </set>
       <set comment="band 13">
        <r>  0.0000  0.0000  0.0000  0.0000  0.0004  0.0038  0.0000  0.0484  0.0000 </r>
       </set>
       <set comment="band 14">
        <r>  0.0000  0.0000  0.0000  0.0001  0.0103  0.0399  0.0000  0.0020  0.0000 </r>
       </set>
       <set comment="band 15">
        <r>  0.0000  0.0000  0.0000  0.0000  0.0000  0.0000  0.0039  0.0000  0.0267 </r>
       </set>
       <set comment="band 16">
        <r>  0.0000  0.0000  0.0000  0.0000  0.0000  0.0000  0.0258  0.0000  0.0033 </r>
       </set>
       <set comment="band 17">
        <r>  0.0000  0.0001  0.0000  0.0041  0.0000  0.0000  0.0000  0.0000  0.0000 </r>
       </set>
       <set comment="band 18">
        <r>  0.0000  0.0003  0.0094  0.0008  0.0000  0.0000  0.0004  0.0000  0.0000 </r>
       </set>
       <set comment="band 19">
        <r>  0.0000  0.0059  0.0004  0.0077  0.0000  0.0000  0.0000  0.0000  0.0000 </r>
       </set>
       <set comment="band 20">
        <r>  0.0013  0.0072  0.0027  0.0047  0.0000  0.0001  0.0003  0.0000  0.0001 </r>
       </set>
       <set comment="band 21">
        <r>  0.0014  0.0185  0.0027  0.0056  0.0000  0.0001  0.0000  0.0000  0.0001 </r>
       </set>
       <set comment="band 22">
        <r>  0.0011  0.0003  0.0123  0.0076  0.0000  0.0000  0.0007  0.0002  0.0005 </r>
       </set>
       <set comment="band 23">
        <r>  0.0171  0.0000  0.0044  0.0005  0.0000  0.0000  0.0001  0.0000  0.0000 </r>
       </set>
       <set comment="band 24">
        <r>  0.0000  0.0001  0.0001  0.0000  0.0034  0.0041  0.0002  0.0283  0.0019 </r>
       </set>
       <set comment="band 25">
        <r>  0.0000  0.0000  0.0000  0.0000  0.0237  0.0118  0.0000  0.0001  0.0000 </r>
       </set>
       <set comment="band 26">
        <r>  0.0000  0.0000  0.0000  0.0000  0.0089  0.0202  0.0000  0.0056  0.0029 </r>
       </set>
       <set comment="band 27">
        <r>  0.0000  0.0002  0.0002  0.0002  0.0000  0.0001  0.0155  0.0010  0.0748 </r>
       </set>
       <set comment="band 28">
        <r>  0.0000  0.0000  0.0000  0.0000  0.0002  0.0000  0.0798  0.0002  0.0162 </r>
       </set>
       <set comment="band 29">
        <r>  0.0002  0.0000  0.0002  0.0008  0.0000  0.0001  0.0002  0.0000  0.0000 </r>
       </set>
       <set comment="band 30">
        <r>  0.0009  0.0021  0.0001  0.0031  0.0003  0.0035  0.0000  0.0005  0.0002 </r>
       </set>
       <set comment="band 31">
        <r>  0.0009  0.0020  0.0027  0.0003  0.0004  0.0007  0.0001  0.0032  0.0001 </r>
       </set>
       <set comment="band 32">
        <r>  0.0063  0.0000  0.0012  0.0012  0.0000  0.0002  0.0000  0.0001  0.0000 </r>
       </set>
       <set comment="band 33">
        <r>  0.0000  0.0009  0.0016  0.0009  0.0442  0.0016  0.0000  0.0055  0.0000 </r>
       </set>
       <set comment="band 34">
        <r>  0.0018  0.0012  0.0007  0.0008  0.0333  0.0076  0.0004  0.0011  0.0000 </r>
       </set>
       <set comment="band 35">
        <r>  0.0004  0.0000  0.0001  0.0000  0.0110  0.0798  0.0002  0.0062  0.0001 </r>
       </set>
       <set comment="band 36">
        <r>  0.0010  0.0004  0.0003  0.0000  0.0002  0.0035  0.0014  0.0306  0.0001 </r>
       </set>
      </set>
     </set>
     <set comment="spin2">
      <set comment="kpoint 1">
       <set comment="band 1">
        <r>  0.7567  0.0000  0.0000  0.0000  0.0000  0.0000  0.0000  0.0000  0.0000 </r>
       </set>
       <set comment="band 2">
        <r>  0.0000  0.0028  0.1440  0.3754  0.0000  0.0000  0.0000  0.0000  0.0000 </r>
       </set>
       <set comment="band 3">
        <r>  0.0000  0.0384  0.3586  0.1252  0.0000  0.0000  0.0000  0.0000  0.0000 </r>
       </set>
       <set comment="band 4">
        <r>  0.0000  0.4809  0.0196  0.0216  0.0000  0.0000  0.0000  0.0000  0.0000 </r>
       </set>
       <set comment="band 5">
        <r>  0.0182  0.0000  0.0000  0.0000  0.0000  0.0000  0.0000  0.0000  0.0000 </r>
       </set>
       <set comment="band 6">
        <r>  0.0000  0.0000  0.0000  0.0000  0.0000  0.0000  0.0074  0.0000  0.0053 </r>
       </set>
       <set comment="band 7">
        <r>  0.0000  0.0000  0.0000  0.0000  0.0000  0.0000  0.0053  0.0000  0.0071 </r>
       </set>
       <set comment="band 8">
        <r>  0.0000  0.0002  0.0135  0.0111  0.0000  0.0000  0.0000  0.0000  0.0000 </r>
       </set>
       <set comment="band 9">
        <r>  0.0000  0.0248  0.0003  0.0000  0.0000  0.0000  0.0000  0.0000  0.0000 </r>
       </set>
       <set comment="band 10">
        <r>  0.0000  0.0002  0.0099  0.0135  0.0000  0.0000  0.0000  0.0000  0.0000 </r>
       </set>
       <set comment="band 11">
        <r>  0.0195  0.0000  0.0000  0.0000  0.0000  0.0000  0.0000  0.0000  0.0000 </r>
       </set>
       <set comment="band 12">
        <r>  0.0000  0.0000  0.0000  0.0000  0.0028  0.0289  0.0000  0.0080  0.0000 </r>
       </set>
       <set comment="band 13">
        <r>  0.0000  0.0000  0.0000  0.0000  0.0000  0.0090  0.0000  0.0316  0.0000 </r>
       </set>
       <set comment="band 14">
        <r>  0.0000  0.0000  0.0000  0.0000  0.0381  0.0022  0.0000  0.0006  0.0000 </r>
       </set>
       <set comment="band 15">
        <r>  0.0000  0.0000  0.0000  0.0000  0.0000  0.0000  0.0214  0.0000  0.0009 </r>
       </set>
       <set comment="band 16">
        <r>  0.0000  0.0001  0.0000  0.0000  0.0000  0.0000  0.0008  0.0000  0.0211 </r>
       </set>
       <set comment="band 17">
        <r>  0.0000  0.0000  0.0002  0.0001  0.0000  0.0000  0.0000  0.0001  0.0000 </r>
       </set>
       <set comment="band 18">
        <r>  0.0000  0.0000  0.0004  0.0011  0.0000  0.0000  0.0000  0.0000  0.0001 </r>
       </set>
       <set comment="band 19">
        <r>  0.0001  0.0129  0.0017  0.0009  0.0000  0.0001  0.0000  0.0000  0.0000 </r>
       </set>
       <set comment="band 20">
        <r>  0.0000  0.0150  0.0015  0.0080  0.0000  0.0000  0.0000  0.0001  0.0000 </r>
       </set>
       <set comment="band 21">
        <r>  0.0000  0.0035  0.0291  0.0002  0.0000  0.0001  0.0004  0.0008  0.0001 </r>
       </set>
       <set comment="band 22">
        <r>  0.0069  0.0013  0.0004  0.0162  0.0000  0.0000  0.0000  0.0001  0.0000 </r>
       </set>
       <set comment="band 23">
        <r>  0.0141  0.0004  0.0002  0.0075  0.0000  0.0000  0.0000  0.0001  0.0000 </r>
       </set>
       <set comment="band 24">
        <r>  0.0000  0.0002  0.0003  0.0001  0.0005  0.0193  0.0002  0.0098  0.0000 </r>
       </set>
       <set comment="band 25">
        <r>  0.0000  0.0000  0.0001  0.0000  0.0009  0.0103  0.0007  0.0178  0.0015 </r>
       </set>
       <set comment="band 26">
        <r>  0.0000  0.0000  0.0000  0.0000  0.0295  0.0014  0.0000  0.0001  0.0002 </r>
       </set>
       <set comment="band 27">
        <r>  0.0000  0.0001  0.0001  0.0001  0.0000  0.0000  0.0018  0.0000  0.0058 </r>
       </set>
       <set comment="band 28">
        <r>  0.0000  0.0000  0.0001  0.0000  0.0000  0.0002  0.0262  0.0004  0.0564 </r>
       </set>
       <set comment="band 29">
        <r>  0.0000  0.0000  0.0001  0.0002  0.0000  0.0000  0.0637  0.0000  0.0284 </r>
       </set>
       <set comment="band 30">
        <r>  0.0018  0.0049  0.0014  0.0004  0.0000  0.0001  0.0001  0.0000  0.0000 </r>
       </set>
       <set comment="band 31">
        <r>  0.0003  0.0006  0.0000  0.0076  0.0012  0.0067  0.0002  0.0000  0.0000 </r>
       </set>
       <set comment="band 32">
        <r>  0.0000  0.0012  0.0051  0.0000  0.0041  0.0021  0.0000  0.0061  0.0001 </r>
       </set>
       <set comment="band 33">
        <r>  0.0063  0.0007  0.0008  0.0011  0.0001  0.0001  0.0000  0.0001  0.0001 </r>
       </set>
       <set comment="band 34">
        <r>  0.0009  0.0001  0.0000  0.0000  0.0016  0.0520  0.0007  0.0247  0.0004 </r>
       </set>
       <set comment="band 35">
        <r>  0.0009  0.0014  0.0001  0.0002  0.0113  0.0091  0.0045  0.0076  0.0022 </r>
       </set>
       <set comment="band 36">
        <r>  0.0006  0.0011  0.0010  0.0009  0.0037  0.0002  0.0094  0.0024  0.0021 </r>
       </set>
      </set>
     </set>
    </set>
   </array>
  </projected>
 </calculation>
 <structure name="finalpos" >
  <crystal>
   <varray name="basis" >
    <v>      10.00000000       0.00000000       0.00000000 </v>
    <v>       0.00000000      10.00000000       0.00000000 </v>
    <v>       0.00000000       0.00000000      10.00000000 </v>
   </varray>
   <i name="volume">   1000.00000000 </i>
   <varray name="rec_basis" >
    <v>       0.10000000       0.00000000       0.00000000 </v>
    <v>       0.00000000       0.10000000       0.00000000 </v>
    <v>       0.00000000       0.00000000       0.10000000 </v>
   </varray>
  </crystal>
  <varray name="positions" >
   <v>       0.50000000       0.50000000       0.50000000 </v>
  </varray>
 </structure>
</modeling>
