       N       E                     dE             d eps       ncg     rms          ort
DAV:   1     0.219281458679E+03    0.21928E+03   -0.34906E+03    36   0.261E+02
DAV:   2     0.123766982732E+03   -0.95514E+02   -0.95436E+02    36   0.313E+01
DAV:   3     0.116308329839E+02   -0.11214E+03   -0.11188E+03    36   0.786E+01
DAV:   4     0.294861885302E+00   -0.11336E+02   -0.11334E+02    36   0.315E+01
DAV:   5    -0.126647251436E+01   -0.15613E+01   -0.15612E+01    36   0.965E+00
SDA:   6    -0.349880717963E+00    0.91659E+00   -0.22399E+01    36   0.560E+01 0.000E+00
DMP:   7    -0.135482133048E+01   -0.10049E+01   -0.95676E+00    36   0.261E+01-0.562E+00
DMP:   8    -0.160889713311E+01   -0.25408E+00   -0.56837E+00    36   0.182E+01-0.105E+01
DMP:   9    -0.174003306734E+01   -0.13114E+00   -0.65460E+00    36   0.198E+01-0.892E+00
DMP:  10    -0.177760166582E+01   -0.37569E-01   -0.77414E+00    36   0.249E+01-0.145E+01
DMP:  11    -0.182836191288E+01   -0.50760E-01   -0.61109E+00    36   0.216E+01-0.167E+01
DMP:  12    -0.193224367328E+01   -0.10388E+00   -0.25818E+00    36   0.103E+01-0.100E+01
DMP:  13    -0.201609393310E+01   -0.83850E-01   -0.37875E-01    36   0.180E+00-0.224E+00
DMP:  14    -0.203557277792E+01   -0.19479E-01   -0.12746E-01    36   0.308E-01 0.278E-02
DMP:  15    -0.203880712230E+01   -0.32343E-02   -0.10664E-01    36   0.325E-01-0.154E-01
DMP:  16    -0.204671927448E+01   -0.79122E-02   -0.10406E-01    36   0.184E-01 0.200E-01
DMP:  17    -0.206905234278E+01   -0.22333E-01   -0.29725E-01    36   0.431E-01 0.817E-01
DMP:  18    -0.209697029664E+01   -0.27918E-01   -0.40303E-01    36   0.854E-01 0.403E-01
DMP:  19    -0.213548318296E+01   -0.38513E-01   -0.37553E-01    36   0.578E-01 0.944E-01
DMP:  20    -0.217076549517E+01   -0.35282E-01   -0.37929E-01    36   0.646E-01 0.792E-01
DMP:  21    -0.220715259747E+01   -0.36387E-01   -0.36509E-01    36   0.582E-01 0.865E-01
DMP:  22    -0.224184014374E+01   -0.34688E-01   -0.35181E-01    36   0.564E-01 0.825E-01
DMP:  23    -0.227532096018E+01   -0.33481E-01   -0.34830E-01    36   0.570E-01 0.787E-01
DMP:  24    -0.230730356148E+01   -0.31983E-01   -0.37490E-01    36   0.667E-01 0.707E-01
DMP:  25    -0.233344614180E+01   -0.26143E-01   -0.20195E-01    36   0.367E-01 0.362E-01
DMP:  26    -0.234056085676E+01   -0.71147E-02   -0.21792E-02    36   0.305E-02 0.627E-02
DMP:  27    -0.234214369379E+01   -0.15828E-02   -0.97966E-03    36   0.148E-02 0.253E-02
DMP:  28    -0.234288446692E+01   -0.74077E-03   -0.43760E-03    36   0.624E-03 0.123E-02
DMP:  29    -0.234321492793E+01   -0.33046E-03   -0.18945E-03    36   0.265E-03 0.546E-03
DMP:  30    -0.234336083411E+01   -0.14591E-03   -0.91656E-04    36   0.132E-03 0.255E-03
DMP:  31    -0.234343443665E+01   -0.73603E-04   -0.50433E-04    36   0.721E-04 0.141E-03
DMP:  32    -0.234347635382E+01   -0.41917E-04   -0.29473E-04    36   0.412E-04 0.849E-04
   1 F= -.23434764E+01 E0= -.23434764E+01  d E =-.234348E+01  mag=     4.0000
