       N       E                     dE             d eps       ncg     rms          ort
DAV:   1     0.159401421061E+03    0.15940E+03   -0.36941E+03    36   0.260E+02
DAV:   2     0.130591438776E+03   -0.28810E+02   -0.28777E+02    36   0.281E+01
DAV:   3     0.486917572897E+02   -0.81900E+02   -0.81808E+02    36   0.375E+01
DAV:   4     0.668351339056E+01   -0.42008E+02   -0.41987E+02    36   0.493E+01
DAV:   5     0.214787327074E+00   -0.64687E+01   -0.64474E+01    36   0.184E+01
SDA:   6     0.368555132169E+01    0.34708E+01   -0.78964E+01    36   0.197E+02 0.000E+00
DMP:   7     0.258694994818E+01   -0.10986E+01   -0.11823E+02    36   0.535E+02-0.626E+02
DMP:   8     0.269969744128E+00   -0.23170E+01   -0.20149E+01    36   0.728E+01-0.587E+01
DMP:   9     0.203980434382E+01    0.17698E+01   -0.16738E+02    36   0.531E+02-0.296E+02
DMP:  10     0.717751808282E+00   -0.13221E+01   -0.22339E+01    36   0.783E+01-0.587E+01
DMP:  11     0.235585349395E+01    0.16381E+01   -0.16089E+02    36   0.564E+02-0.423E+02
DMP:  12     0.458784031135E+00   -0.18971E+01   -0.11719E+01    36   0.425E+01-0.346E+01
DMP:  13     0.259138739542E+01    0.21326E+01   -0.12182E+02    36   0.414E+02-0.288E+02
DMP:  14     0.602954774758E+00   -0.19884E+01   -0.12202E+01    36   0.434E+01-0.339E+01
DMP:  15     0.257094034046E+01    0.19680E+01   -0.12326E+02    36   0.428E+02-0.315E+02
DMP:  16     0.546089825505E+00   -0.20249E+01   -0.10220E+01    36   0.361E+01-0.276E+01
DMP:  17     0.255066318658E+01    0.20046E+01   -0.12419E+02    36   0.428E+02-0.308E+02
DMP:  18     0.521593529528E+00   -0.20291E+01   -0.93400E+00    36   0.329E+01-0.251E+01
DMP:  19     0.233936194678E+01    0.18178E+01   -0.14168E+02    36   0.493E+02-0.364E+02
DMP:  20     0.453629637966E+00   -0.18857E+01   -0.83447E+00    36   0.290E+01-0.213E+01
DMP:  21    -0.495541282759E-01   -0.50318E+00   -0.31655E+01    36   0.148E+02-0.181E+02
DMP:  22    -0.675484678047E+00   -0.62593E+00   -0.36229E+00    36   0.165E+01-0.195E+01
DMP:  23    -0.692290155397E+00   -0.16805E-01   -0.63823E+00    36   0.189E+01-0.762E+00
DMP:  24    -0.487635430505E+00    0.20465E+00   -0.10622E+01    36   0.311E+01-0.120E+01
DMP:  25    -0.159053824835E+00    0.32858E+00   -0.20047E+01    36   0.639E+01-0.360E+01
DMP:  26    -0.401528511466E+00   -0.24247E+00   -0.25865E+00    36   0.854E+00-0.544E+00
DMP:  27    -0.266579073085E+00    0.13495E+00   -0.44942E+00    36   0.167E+01-0.143E+01
DMP:  28    -0.594751505880E+00   -0.32817E+00   -0.62100E+00    36   0.219E+01-0.166E+01
DMP:  29    -0.584859159108E+00    0.98923E-02   -0.19559E+01    36   0.675E+01-0.486E+01
DMP:  30    -0.737256598379E+00   -0.15240E+00   -0.32304E+00    36   0.984E+00-0.463E+00
DMP:  31    -0.955743893237E+00   -0.21849E+00   -0.48025E+00    36   0.206E+01-0.224E+01
DMP:  32    -0.101686899405E+01   -0.61125E-01   -0.18454E+00    36   0.590E+00-0.336E+00
DMP:  33    -0.873888691992E+00    0.14298E+00   -0.19249E+01    36   0.581E+01-0.260E+01
DMP:  34    -0.926349488762E+00   -0.52461E-01   -0.12274E+00    36   0.423E+00-0.304E+00
DMP:  35    -0.102418087725E+01   -0.97831E-01   -0.26830E+00    36   0.171E+01-0.271E+01
DMP:  36    -0.108046382497E+01   -0.56283E-01   -0.39711E-01    36   0.143E+00-0.114E+00
DMP:  37    -0.107591965701E+01    0.45442E-02   -0.11574E+00    36   0.356E+00-0.175E+00
DMP:  38    -0.106389333919E+01    0.12026E-01   -0.10091E+00    36   0.317E+00-0.170E+00
DMP:  39    -0.100433787234E+01    0.59555E-01   -0.79139E+00    36   0.241E+01-0.113E+01
DMP:  40    -0.100806785399E+01   -0.37300E-02   -0.96581E-01    36   0.337E+00-0.251E+00
DMP:  41    -0.107581621074E+01   -0.67748E-01   -0.11042E+00    36   0.571E+00-0.772E+00
DMP:  42    -0.109410170150E+01   -0.18285E-01   -0.34491E-01    36   0.119E+00-0.852E-01
DMP:  43    -0.108651274121E+01    0.75890E-02   -0.12519E+00    36   0.389E+00-0.198E+00
DMP:  44    -0.107548662645E+01    0.11026E-01   -0.87180E-01    36   0.281E+00-0.164E+00
DMP:  45    -0.103444315091E+01    0.41043E-01   -0.57509E+00    36   0.179E+01-0.914E+00
DMP:  46    -0.103287509437E+01    0.15681E-02   -0.99016E-01    36   0.347E+00-0.260E+00
DMP:  47    -0.106711993150E+01   -0.34245E-01   -0.23089E+00    36   0.933E+00-0.931E+00
DMP:  48    -0.107762034313E+01   -0.10500E-01   -0.82367E-01    36   0.281E+00-0.195E+00
DMP:  49    -0.105341393599E+01    0.24206E-01   -0.41222E+00    36   0.131E+01-0.732E+00
DMP:  50    -0.104545109941E+01    0.79628E-02   -0.10425E+00    36   0.358E+00-0.256E+00
DMP:  51    -0.102804617682E+01    0.17405E-01   -0.59413E+00    36   0.207E+01-0.154E+01
DMP:  52    -0.103716435133E+01   -0.91182E-02   -0.99840E-01    36   0.349E+00-0.261E+00
DMP:  53    -0.103277817536E+01    0.43862E-02   -0.53864E+00    36   0.193E+01-0.153E+01
DMP:  54    -0.104311164607E+01   -0.10333E-01   -0.99872E-01    36   0.344E+00-0.248E+00
DMP:  55    -0.104211832749E+01    0.99332E-03   -0.46649E+00    36   0.161E+01-0.117E+01
DMP:  56    -0.104794897892E+01   -0.58307E-02   -0.98538E-01    36   0.338E+00-0.239E+00
DMP:  57    -0.104797522536E+01   -0.26246E-04   -0.42480E+00    36   0.148E+01-0.109E+01
DMP:  58    -0.105358706372E+01   -0.56118E-02   -0.97563E-01    36   0.337E+00-0.243E+00
DMP:  59    -0.105404141025E+01   -0.45435E-03   -0.37002E+00    36   0.129E+01-0.955E+00
DMP:  60    -0.105735999601E+01   -0.33186E-02   -0.97571E-01    36   0.337E+00-0.243E+00
DMP:  61    -0.103223282174E+01    0.25127E-01   -0.57277E+00    36   0.194E+01-0.134E+01
DMP:  62    -0.103785344550E+01   -0.56206E-02   -0.96421E-01    36   0.338E+00-0.255E+00
DMP:  63    -0.104846361283E+01   -0.10610E-01   -0.39694E+00    36   0.148E+01-0.127E+01
DMP:  64    -0.105680993143E+01   -0.83463E-02   -0.98263E-01    36   0.335E+00-0.233E+00
DMP:  65    -0.103521643046E+01    0.21594E-01   -0.56039E+00    36   0.183E+01-0.113E+01
DMP:  66    -0.103971387694E+01   -0.44974E-02   -0.93964E-01    36   0.327E+00-0.242E+00
DMP:  67    -0.106677533487E+01   -0.27061E-01   -0.24836E+00    36   0.964E+00-0.898E+00
DMP:  68    -0.107562950755E+01   -0.88542E-02   -0.82690E-01    36   0.282E+00-0.197E+00
DMP:  69    -0.105778609858E+01    0.17843E-01   -0.36585E+00    36   0.119E+01-0.713E+00
DMP:  70    -0.105292720843E+01    0.48589E-02   -0.98757E-01    36   0.340E+00-0.245E+00
DMP:  71    -0.102201712127E+01    0.30910E-01   -0.66366E+00    36   0.227E+01-0.160E+01
DMP:  72    -0.103284411641E+01   -0.10827E-01   -0.92834E-01    36   0.328E+00-0.252E+00
DMP:  73    -0.106532457247E+01   -0.32480E-01   -0.25441E+00    36   0.100E+01-0.957E+00
DMP:  74    -0.107366586347E+01   -0.83413E-02   -0.86281E-01    36   0.289E+00-0.192E+00
DMP:  75    -0.104516020868E+01    0.28506E-01   -0.49424E+00    36   0.157E+01-0.865E+00
DMP:  76    -0.104299723339E+01    0.21630E-02   -0.95096E-01    36   0.332E+00-0.246E+00
DMP:  77    -0.106697568424E+01   -0.23978E-01   -0.24728E+00    36   0.951E+00-0.872E+00
DMP:  78    -0.107491337861E+01   -0.79377E-02   -0.83457E-01    36   0.286E+00-0.202E+00
DMP:  79    -0.105926281173E+01    0.15651E-01   -0.34978E+00    36   0.114E+01-0.702E+00
DMP:  80    -0.105464502918E+01    0.46178E-02   -0.98532E-01    36   0.339E+00-0.243E+00
DMP:  81    -0.103352594610E+01    0.21119E-01   -0.55650E+00    36   0.192E+01-0.138E+01
DMP:  82    -0.104009101289E+01   -0.65651E-02   -0.96630E-01    36   0.338E+00-0.254E+00
DMP:  83    -0.105645993313E+01   -0.16369E-01   -0.34315E+00    36   0.126E+01-0.104E+01
DMP:  84    -0.106251330131E+01   -0.60534E-02   -0.95306E-01    36   0.323E+00-0.223E+00
DMP:  85    -0.104514881507E+01    0.17364E-01   -0.47153E+00    36   0.155E+01-0.984E+00
DMP:  86    -0.104709793579E+01   -0.19491E-02   -0.96066E-01    36   0.335E+00-0.249E+00
DMP:  87    -0.106428057259E+01   -0.17183E-01   -0.27305E+00    36   0.102E+01-0.875E+00
DMP:  88    -0.107042212477E+01   -0.61416E-02   -0.88621E-01    36   0.304E+00-0.215E+00
DMP:  89    -0.103858957594E+01    0.31833E-01   -0.53948E+00    36   0.176E+01-0.109E+01
DMP:  90    -0.103834197607E+01    0.24760E-03   -0.95646E-01    36   0.335E+00-0.251E+00
DMP:  91    -0.106245301927E+01   -0.24111E-01   -0.28794E+00    36   0.109E+01-0.976E+00
DMP:  92    -0.106999934561E+01   -0.75463E-02   -0.89764E-01    36   0.304E+00-0.209E+00
DMP:  93    -0.104991372477E+01    0.20086E-01   -0.43458E+00    36   0.141E+01-0.854E+00
DMP:  94    -0.104832841873E+01    0.15853E-02   -0.97154E-01    36   0.338E+00-0.249E+00
DMP:  95    -0.106200469649E+01   -0.13676E-01   -0.29254E+00    36   0.107E+01-0.895E+00
DMP:  96    -0.106758672700E+01   -0.55820E-02   -0.91212E-01    36   0.313E+00-0.223E+00
DMP:  97    -0.103936389848E+01    0.28223E-01   -0.52631E+00    36   0.174E+01-0.111E+01
DMP:  98    -0.103994812753E+01   -0.58423E-03   -0.96372E-01    36   0.337E+00-0.252E+00
DMP:  99    -0.106035546247E+01   -0.20407E-01   -0.30801E+00    36   0.115E+01-0.994E+00
DMP: 100    -0.106723626164E+01   -0.68808E-02   -0.92109E-01    36   0.313E+00-0.216E+00
DMP: 101    -0.104906847702E+01    0.18168E-01   -0.43800E+00    36   0.144E+01-0.890E+00
DMP: 102    -0.104863704120E+01    0.43144E-03   -0.97051E-01    36   0.338E+00-0.249E+00
DMP: 103    -0.106214832854E+01   -0.13511E-01   -0.29172E+00    36   0.107E+01-0.890E+00
DMP: 104    -0.106760881937E+01   -0.54605E-02   -0.91195E-01    36   0.313E+00-0.223E+00
DMP: 105    -0.103962919908E+01    0.27980E-01   -0.52377E+00    36   0.173E+01-0.111E+01
DMP: 106    -0.104015145528E+01   -0.52226E-03   -0.96449E-01    36   0.337E+00-0.252E+00
DMP: 107    -0.106019847276E+01   -0.20047E-01   -0.30959E+00    36   0.115E+01-0.995E+00
DMP: 108    -0.106702274939E+01   -0.68243E-02   -0.92267E-01    36   0.313E+00-0.217E+00
DMP: 109    -0.104912464249E+01    0.17898E-01   -0.43702E+00    36   0.143E+01-0.892E+00
DMP: 110    -0.104876494282E+01    0.35970E-03   -0.97063E-01    36   0.338E+00-0.249E+00
DMP: 111    -0.106206865720E+01   -0.13304E-01   -0.29252E+00    36   0.107E+01-0.890E+00
DMP: 112    -0.106748014883E+01   -0.54115E-02   -0.91299E-01    36   0.314E+00-0.223E+00
DMP: 113    -0.103965770048E+01    0.27822E-01   -0.52323E+00    36   0.173E+01-0.111E+01
DMP: 114    -0.104022359289E+01   -0.56589E-03   -0.96472E-01    36   0.337E+00-0.252E+00
DMP: 115    -0.106012455687E+01   -0.19901E-01   -0.31031E+00    36   0.116E+01-0.995E+00
DMP: 116    -0.106692587254E+01   -0.68013E-02   -0.92331E-01    36   0.314E+00-0.217E+00
DMP: 117    -0.104912905359E+01    0.17797E-01   -0.43681E+00    36   0.143E+01-0.892E+00
DMP: 118    -0.104880870262E+01    0.32035E-03   -0.97054E-01    36   0.338E+00-0.249E+00
DMP: 119    -0.106205994610E+01   -0.13251E-01   -0.29263E+00    36   0.107E+01-0.890E+00
DMP: 120    -0.106745896728E+01   -0.53990E-02   -0.91309E-01    36   0.314E+00-0.223E+00
DMP: 121    -0.103966695433E+01    0.27792E-01   -0.52309E+00    36   0.173E+01-0.111E+01
DMP: 122    -0.104024345331E+01   -0.57650E-03   -0.96469E-01    36   0.337E+00-0.252E+00
DMP: 123    -0.106011728836E+01   -0.19874E-01   -0.31040E+00    36   0.116E+01-0.995E+00
DMP: 124    -0.106691433564E+01   -0.67970E-02   -0.92333E-01    36   0.314E+00-0.217E+00
DMP: 125    -0.104913877634E+01    0.17776E-01   -0.43670E+00    36   0.143E+01-0.892E+00
DMP: 126    -0.104882514018E+01    0.31364E-03   -0.97047E-01    36   0.338E+00-0.249E+00
DMP: 127    -0.106206249522E+01   -0.13237E-01   -0.29263E+00    36   0.107E+01-0.889E+00
DMP: 128    -0.106745843531E+01   -0.53959E-02   -0.91305E-01    36   0.314E+00-0.223E+00
DMP: 129    -0.103967605716E+01    0.27782E-01   -0.52299E+00    36   0.173E+01-0.111E+01
DMP: 130    -0.104025365251E+01   -0.57760E-03   -0.96469E-01    36   0.337E+00-0.252E+00
DMP: 131    -0.106011392735E+01   -0.19860E-01   -0.31044E+00    36   0.116E+01-0.995E+00
DMP: 132    -0.106690711890E+01   -0.67932E-02   -0.92342E-01    36   0.314E+00-0.217E+00
DMP: 133    -0.104913407256E+01    0.17773E-01   -0.43673E+00    36   0.143E+01-0.893E+00
DMP: 134    -0.104882296567E+01    0.31111E-03   -0.97054E-01    36   0.338E+00-0.249E+00
DMP: 135    -0.106206088035E+01   -0.13238E-01   -0.29264E+00    36   0.107E+01-0.890E+00
DMP: 136    -0.106745049068E+01   -0.53896E-02   -0.91331E-01    36   0.314E+00-0.223E+00
DMP: 137    -0.103963499243E+01    0.27815E-01   -0.52339E+00    36   0.173E+01-0.111E+01
DMP: 138    -0.104021561222E+01   -0.58062E-03   -0.96488E-01    36   0.337E+00-0.252E+00
DMP: 139    -0.106012797737E+01   -0.19912E-01   -0.31028E+00    36   0.116E+01-0.995E+00
DMP: 140    -0.106692079464E+01   -0.67928E-02   -0.92367E-01    36   0.314E+00-0.217E+00
DMP: 141    -0.104907669981E+01    0.17844E-01   -0.43730E+00    36   0.143E+01-0.893E+00
DMP: 142    -0.104875322582E+01    0.32347E-03   -0.97104E-01    36   0.338E+00-0.249E+00
DMP: 143    -0.106205607490E+01   -0.13303E-01   -0.29262E+00    36   0.107E+01-0.890E+00
DMP: 144    -0.106745154375E+01   -0.53955E-02   -0.91377E-01    36   0.314E+00-0.223E+00
DMP: 145    -0.103955769831E+01    0.27894E-01   -0.52418E+00    36   0.173E+01-0.111E+01
DMP: 146    -0.104012630821E+01   -0.56861E-03   -0.96566E-01    36   0.338E+00-0.252E+00
DMP: 147    -0.106011906734E+01   -0.19993E-01   -0.31027E+00    36   0.116E+01-0.996E+00
DMP: 148    -0.106692156321E+01   -0.68025E-02   -0.92422E-01    36   0.314E+00-0.217E+00
DMP: 149    -0.104899364509E+01    0.17928E-01   -0.43810E+00    36   0.144E+01-0.894E+00
DMP: 150    -0.104864549256E+01    0.34815E-03   -0.97233E-01    36   0.338E+00-0.250E+00
DMP: 151    -0.106198324380E+01   -0.13338E-01   -0.29312E+00    36   0.107E+01-0.892E+00
DMP: 152    -0.106738796501E+01   -0.54047E-02   -0.91495E-01    36   0.314E+00-0.224E+00
DMP: 153    -0.103940198991E+01    0.27986E-01   -0.52562E+00    36   0.174E+01-0.111E+01
DMP: 154    -0.103998147509E+01   -0.57949E-03   -0.96662E-01    36   0.338E+00-0.252E+00
DMP: 155    -0.106010424027E+01   -0.20123E-01   -0.31025E+00    36   0.116E+01-0.997E+00
DMP: 156    -0.106693471251E+01   -0.68305E-02   -0.92453E-01    36   0.314E+00-0.217E+00
DMP: 157    -0.104892298838E+01    0.18012E-01   -0.43880E+00    36   0.144E+01-0.895E+00
DMP: 158    -0.104856839838E+01    0.35459E-03   -0.97246E-01    36   0.338E+00-0.250E+00
DMP: 159    -0.106202345297E+01   -0.13455E-01   -0.29270E+00    36   0.107E+01-0.892E+00
DMP: 160    -0.106745670290E+01   -0.54332E-02   -0.91436E-01    36   0.314E+00-0.224E+00
DMP: 161    -0.103945633156E+01    0.28000E-01   -0.52521E+00    36   0.174E+01-0.111E+01
DMP: 162    -0.104001470716E+01   -0.55838E-03   -0.96620E-01    36   0.338E+00-0.252E+00
DMP: 163    -0.106015237562E+01   -0.20138E-01   -0.30985E+00    36   0.116E+01-0.996E+00
DMP: 164    -0.106698469550E+01   -0.68323E-02   -0.92395E-01    36   0.314E+00-0.217E+00
DMP: 165    -0.104898089449E+01    0.18004E-01   -0.43831E+00    36   0.144E+01-0.893E+00
DMP: 166    -0.104860863650E+01    0.37226E-03   -0.97221E-01    36   0.338E+00-0.250E+00
DMP: 167    -0.106202021693E+01   -0.13412E-01   -0.29277E+00    36   0.107E+01-0.892E+00
DMP: 168    -0.106744459815E+01   -0.54244E-02   -0.91433E-01    36   0.314E+00-0.224E+00
DMP: 169    -0.103948402493E+01    0.27961E-01   -0.52491E+00    36   0.174E+01-0.111E+01
DMP: 170    -0.104004868880E+01   -0.56466E-03   -0.96605E-01    36   0.338E+00-0.252E+00
DMP: 171    -0.106014248637E+01   -0.20094E-01   -0.30997E+00    36   0.116E+01-0.996E+00
DMP: 172    -0.106696663225E+01   -0.68241E-02   -0.92399E-01    36   0.314E+00-0.217E+00
DMP: 173    -0.104899135560E+01    0.17975E-01   -0.43818E+00    36   0.144E+01-0.893E+00
DMP: 174    -0.104862922190E+01    0.36213E-03   -0.97206E-01    36   0.338E+00-0.250E+00
DMP: 175    -0.106202441966E+01   -0.13395E-01   -0.29275E+00    36   0.107E+01-0.891E+00
DMP: 176    -0.106744442870E+01   -0.54200E-02   -0.91426E-01    36   0.314E+00-0.224E+00
DMP: 177    -0.103949548998E+01    0.27949E-01   -0.52479E+00    36   0.174E+01-0.111E+01
DMP: 178    -0.104006157858E+01   -0.56609E-03   -0.96597E-01    36   0.338E+00-0.252E+00
DMP: 179    -0.106014141202E+01   -0.20080E-01   -0.31000E+00    36   0.116E+01-0.996E+00
DMP: 180    -0.106696294465E+01   -0.68215E-02   -0.92398E-01    36   0.314E+00-0.217E+00
DMP: 181    -0.104899728132E+01    0.17966E-01   -0.43812E+00    36   0.144E+01-0.893E+00
DMP: 182    -0.104863796759E+01    0.35931E-03   -0.97200E-01    36   0.338E+00-0.250E+00
DMP: 183    -0.106202637946E+01   -0.13388E-01   -0.29274E+00    36   0.107E+01-0.891E+00
DMP: 184    -0.106744466835E+01   -0.54183E-02   -0.91423E-01    36   0.314E+00-0.223E+00
DMP: 185    -0.103950062881E+01    0.27944E-01   -0.52474E+00    36   0.174E+01-0.111E+01
DMP: 186    -0.104006723414E+01   -0.56661E-03   -0.96593E-01    36   0.338E+00-0.252E+00
DMP: 187    -0.106014096805E+01   -0.20074E-01   -0.31001E+00    36   0.116E+01-0.996E+00
DMP: 188    -0.106696137555E+01   -0.68204E-02   -0.92397E-01    36   0.314E+00-0.217E+00
DMP: 189    -0.104899996137E+01    0.17961E-01   -0.43809E+00    36   0.144E+01-0.893E+00
DMP: 190    -0.104864187937E+01    0.35808E-03   -0.97197E-01    36   0.338E+00-0.250E+00
DMP: 191    -0.106202726016E+01   -0.13385E-01   -0.29274E+00    36   0.107E+01-0.891E+00
DMP: 192    -0.106744479041E+01   -0.54175E-02   -0.91422E-01    36   0.314E+00-0.223E+00
DMP: 193    -0.103950286835E+01    0.27942E-01   -0.52472E+00    36   0.174E+01-0.111E+01
DMP: 194    -0.104006971573E+01   -0.56685E-03   -0.96592E-01    36   0.338E+00-0.252E+00
DMP: 195    -0.106014081231E+01   -0.20071E-01   -0.31001E+00    36   0.116E+01-0.996E+00
DMP: 196    -0.106696073782E+01   -0.68199E-02   -0.92397E-01    36   0.314E+00-0.217E+00
DMP: 197    -0.104900118878E+01    0.17960E-01   -0.43808E+00    36   0.144E+01-0.893E+00
DMP: 198    -0.104864364066E+01    0.35755E-03   -0.97195E-01    36   0.338E+00-0.250E+00
DMP: 199    -0.106202767861E+01   -0.13384E-01   -0.29274E+00    36   0.107E+01-0.891E+00
DMP: 200    -0.106744487777E+01   -0.54172E-02   -0.91421E-01    36   0.314E+00-0.223E+00
DMP: 201    -0.103950388752E+01    0.27941E-01   -0.52471E+00    36   0.174E+01-0.111E+01
DMP: 202    -0.104007083817E+01   -0.56695E-03   -0.96591E-01    36   0.338E+00-0.252E+00
DMP: 203    -0.106014076082E+01   -0.20070E-01   -0.31001E+00    36   0.116E+01-0.996E+00
DMP: 204    -0.106696047473E+01   -0.68197E-02   -0.92396E-01    36   0.314E+00-0.217E+00
DMP: 205    -0.104900177619E+01    0.17959E-01   -0.43807E+00    36   0.144E+01-0.893E+00
DMP: 206    -0.104864446451E+01    0.35731E-03   -0.97195E-01    36   0.338E+00-0.250E+00
DMP: 207    -0.106202787954E+01   -0.13383E-01   -0.29274E+00    36   0.107E+01-0.891E+00
DMP: 208    -0.106744492683E+01   -0.54170E-02   -0.91421E-01    36   0.314E+00-0.223E+00
DMP: 209    -0.103950437447E+01    0.27941E-01   -0.52470E+00    36   0.174E+01-0.111E+01
DMP: 210    -0.104007137094E+01   -0.56700E-03   -0.96591E-01    36   0.338E+00-0.252E+00
DMP: 211    -0.106014074056E+01   -0.20069E-01   -0.31001E+00    36   0.116E+01-0.996E+00
DMP: 212    -0.106696035731E+01   -0.68196E-02   -0.92396E-01    36   0.314E+00-0.217E+00
DMP: 213    -0.104900207036E+01    0.17958E-01   -0.43807E+00    36   0.144E+01-0.893E+00
DMP: 214    -0.104864487044E+01    0.35720E-03   -0.97194E-01    36   0.338E+00-0.250E+00
DMP: 215    -0.106202798098E+01   -0.13383E-01   -0.29274E+00    36   0.107E+01-0.891E+00
DMP: 216    -0.106744495520E+01   -0.54170E-02   -0.91420E-01    36   0.314E+00-0.223E+00
DMP: 217    -0.103950462304E+01    0.27940E-01   -0.52470E+00    36   0.174E+01-0.111E+01
DMP: 218    -0.104007164120E+01   -0.56702E-03   -0.96590E-01    36   0.338E+00-0.252E+00
DMP: 219    -0.106014073170E+01   -0.20069E-01   -0.31001E+00    36   0.116E+01-0.996E+00
DMP: 220    -0.106696030018E+01   -0.68196E-02   -0.92396E-01    36   0.314E+00-0.217E+00
DMP: 221    -0.104900222680E+01    0.17958E-01   -0.43807E+00    36   0.144E+01-0.893E+00
DMP: 222    -0.104864508338E+01    0.35714E-03   -0.97194E-01    36   0.338E+00-0.250E+00
DMP: 223    -0.106202803536E+01   -0.13383E-01   -0.29274E+00    36   0.107E+01-0.891E+00
DMP: 224    -0.106744497171E+01   -0.54169E-02   -0.91420E-01    36   0.314E+00-0.223E+00
DMP: 225    -0.103950475910E+01    0.27940E-01   -0.52470E+00    36   0.174E+01-0.111E+01
DMP: 226    -0.104007178861E+01   -0.56703E-03   -0.96590E-01    36   0.338E+00-0.252E+00
DMP: 227    -0.106014072724E+01   -0.20069E-01   -0.31001E+00    36   0.116E+01-0.996E+00
DMP: 228    -0.106696026933E+01   -0.68195E-02   -0.92396E-01    36   0.314E+00-0.217E+00
DMP: 229    -0.104900231396E+01    0.17958E-01   -0.43807E+00    36   0.144E+01-0.893E+00
DMP: 230    -0.104864520198E+01    0.35711E-03   -0.97194E-01    36   0.338E+00-0.250E+00
DMP: 231    -0.106202806703E+01   -0.13383E-01   -0.29274E+00    36   0.107E+01-0.891E+00
DMP: 232    -0.106744498296E+01   -0.54169E-02   -0.91420E-01    36   0.314E+00-0.223E+00
DMP: 233    -0.103950484043E+01    0.27940E-01   -0.52470E+00    36   0.174E+01-0.111E+01
DMP: 234    -0.104007187395E+01   -0.56703E-03   -0.96590E-01    36   0.338E+00-0.252E+00
DMP: 235    -0.106014072508E+01   -0.20069E-01   -0.31001E+00    36   0.116E+01-0.996E+00
DMP: 236    -0.106696025228E+01   -0.68195E-02   -0.92396E-01    36   0.314E+00-0.217E+00
DMP: 237    -0.104900236730E+01    0.17958E-01   -0.43807E+00    36   0.144E+01-0.893E+00
DMP: 238    -0.104864527310E+01    0.35709E-03   -0.97194E-01    36   0.338E+00-0.250E+00
DMP: 239    -0.106202808589E+01   -0.13383E-01   -0.29274E+00    36   0.107E+01-0.891E+00
DMP: 240    -0.106744498937E+01   -0.54169E-02   -0.91420E-01    36   0.314E+00-0.223E+00
DMP: 241    -0.103950489089E+01    0.27940E-01   -0.52470E+00    36   0.174E+01-0.111E+01
DMP: 242    -0.104007192807E+01   -0.56704E-03   -0.96590E-01    36   0.338E+00-0.252E+00
DMP: 243    -0.106014072364E+01   -0.20069E-01   -0.31001E+00    36   0.116E+01-0.996E+00
DMP: 244    -0.106696024183E+01   -0.68195E-02   -0.92396E-01    36   0.314E+00-0.217E+00
DMP: 245    -0.104900240108E+01    0.17958E-01   -0.43807E+00    36   0.144E+01-0.893E+00
DMP: 246    -0.104864531871E+01    0.35708E-03   -0.97194E-01    36   0.338E+00-0.250E+00
DMP: 247    -0.106202809872E+01   -0.13383E-01   -0.29274E+00    36   0.107E+01-0.891E+00
DMP: 248    -0.106744499404E+01   -0.54169E-02   -0.91420E-01    36   0.314E+00-0.223E+00
DMP: 249    -0.103950492496E+01    0.27940E-01   -0.52470E+00    36   0.174E+01-0.111E+01
DMP: 250    -0.104007196292E+01   -0.56704E-03   -0.96590E-01    36   0.338E+00-0.252E+00
DMP: 251    -0.106014072267E+01   -0.20069E-01   -0.31001E+00    36   0.116E+01-0.996E+00
DMP: 252    -0.106696023457E+01   -0.68195E-02   -0.92396E-01    36   0.314E+00-0.217E+00
DMP: 253    -0.104900242292E+01    0.17958E-01   -0.43807E+00    36   0.144E+01-0.893E+00
DMP: 254    -0.104864534803E+01    0.35707E-03   -0.97194E-01    36   0.338E+00-0.250E+00
DMP: 255    -0.106202810809E+01   -0.13383E-01   -0.29274E+00    36   0.107E+01-0.891E+00
DMP: 256    -0.106744499885E+01   -0.54169E-02   -0.91420E-01    36   0.314E+00-0.223E+00
DMP: 257    -0.103950494968E+01    0.27940E-01   -0.52470E+00    36   0.174E+01-0.111E+01
DMP: 258    -0.104007198864E+01   -0.56704E-03   -0.96590E-01    36   0.338E+00-0.252E+00
DMP: 259    -0.106014072149E+01   -0.20069E-01   -0.31001E+00    36   0.116E+01-0.996E+00
DMP: 260    -0.106696022881E+01   -0.68195E-02   -0.92396E-01    36   0.314E+00-0.217E+00
DMP: 261    -0.104900243838E+01    0.17958E-01   -0.43807E+00    36   0.144E+01-0.893E+00
DMP: 262    -0.104864536867E+01    0.35707E-03   -0.97194E-01    36   0.338E+00-0.250E+00
DMP: 263    -0.106202811366E+01   -0.13383E-01   -0.29274E+00    36   0.107E+01-0.891E+00
DMP: 264    -0.106744500009E+01   -0.54169E-02   -0.91420E-01    36   0.314E+00-0.223E+00
DMP: 265    -0.103950496568E+01    0.27940E-01   -0.52470E+00    36   0.174E+01-0.111E+01
DMP: 266    -0.104007200522E+01   -0.56704E-03   -0.96590E-01    36   0.338E+00-0.252E+00
DMP: 267    -0.106014072195E+01   -0.20069E-01   -0.31001E+00    36   0.116E+01-0.996E+00
DMP: 268    -0.106696022632E+01   -0.68195E-02   -0.92396E-01    36   0.314E+00-0.217E+00
DMP: 269    -0.104900244925E+01    0.17958E-01   -0.43807E+00    36   0.144E+01-0.893E+00
DMP: 270    -0.104864538328E+01    0.35707E-03   -0.97194E-01    36   0.338E+00-0.250E+00
DMP: 271    -0.106202811793E+01   -0.13383E-01   -0.29274E+00    36   0.107E+01-0.891E+00
DMP: 272    -0.106744500237E+01   -0.54169E-02   -0.91420E-01    36   0.314E+00-0.223E+00
DMP: 273    -0.103950497738E+01    0.27940E-01   -0.52470E+00    36   0.174E+01-0.111E+01
DMP: 274    -0.104007201743E+01   -0.56704E-03   -0.96590E-01    36   0.338E+00-0.252E+00
DMP: 275    -0.106014072137E+01   -0.20069E-01   -0.31001E+00    36   0.116E+01-0.996E+00
DMP: 276    -0.106696022325E+01   -0.68195E-02   -0.92396E-01    36   0.314E+00-0.217E+00
DMP: 277    -0.104900245623E+01    0.17958E-01   -0.43807E+00    36   0.144E+01-0.893E+00
DMP: 278    -0.104864539262E+01    0.35706E-03   -0.97194E-01    36   0.338E+00-0.250E+00
DMP: 279    -0.106202812175E+01   -0.13383E-01   -0.29274E+00    36   0.107E+01-0.891E+00
DMP: 280    -0.106744500414E+01   -0.54169E-02   -0.91420E-01    36   0.314E+00-0.223E+00
DMP: 281    -0.103950498711E+01    0.27940E-01   -0.52470E+00    36   0.174E+01-0.111E+01
DMP: 282    -0.104007202668E+01   -0.56704E-03   -0.96590E-01    36   0.338E+00-0.252E+00
DMP: 283    -0.106014072115E+01   -0.20069E-01   -0.31001E+00    36   0.116E+01-0.996E+00
DMP: 284    -0.106696022140E+01   -0.68195E-02   -0.92396E-01    36   0.314E+00-0.217E+00
DMP: 285    -0.104900246210E+01    0.17958E-01   -0.43807E+00    36   0.144E+01-0.893E+00
DMP: 286    -0.104864540057E+01    0.35706E-03   -0.97194E-01    36   0.338E+00-0.250E+00
DMP: 287    -0.106202812362E+01   -0.13383E-01   -0.29274E+00    36   0.107E+01-0.891E+00
DMP: 288    -0.106744500499E+01   -0.54169E-02   -0.91420E-01    36   0.314E+00-0.223E+00
DMP: 289    -0.103950499387E+01    0.27940E-01   -0.52470E+00    36   0.174E+01-0.111E+01
DMP: 290    -0.104007203356E+01   -0.56704E-03   -0.96590E-01    36   0.338E+00-0.252E+00
DMP: 291    -0.106014072047E+01   -0.20069E-01   -0.31001E+00    36   0.116E+01-0.996E+00
DMP: 292    -0.106696021935E+01   -0.68195E-02   -0.92396E-01    36   0.314E+00-0.217E+00
DMP: 293    -0.104900246607E+01    0.17958E-01   -0.43807E+00    36   0.144E+01-0.893E+00
DMP: 294    -0.104864540611E+01    0.35706E-03   -0.97194E-01    36   0.338E+00-0.250E+00
DMP: 295    -0.106202812527E+01   -0.13383E-01   -0.29274E+00    36   0.107E+01-0.891E+00
DMP: 296    -0.106744500577E+01   -0.54169E-02   -0.91420E-01    36   0.314E+00-0.223E+00
DMP: 297    -0.103950499843E+01    0.27940E-01   -0.52470E+00    36   0.174E+01-0.111E+01
DMP: 298    -0.104007203815E+01   -0.56704E-03   -0.96590E-01    36   0.338E+00-0.252E+00
DMP: 299    -0.106014072043E+01   -0.20069E-01   -0.31001E+00    36   0.116E+01-0.996E+00
DMP: 300    -0.106696021858E+01   -0.68195E-02   -0.92396E-01    36   0.314E+00-0.217E+00
   1 F= -.10669602E+01 E0= -.10455634E+01  d E =-.106696E+01  mag=     2.0000
