<?xml version="1.0" encoding="ISO-8859-1"?>
<modeling>
 <generator>
  <i name="program" type="string">vasp </i>
  <i name="version" type="string">5.4.4.18Apr17-6-g9f103f2a35  </i>
  <i name="subversion" type="string">(build Nov 08 2019 15:19:53) gamma-only         parallel </i>
  <i name="platform" type="string">LinuxIFC </i>
  <i name="date" type="string">2020 11 30 </i>
  <i name="time" type="string">09:30:59 </i>
 </generator>
 <incar>
  <i type="string" name="PREC">accurate</i>
  <i type="string" name="ALGO"> D</i>
  <i type="int" name="ISPIN">     2</i>
  <i type="int" name="NELM">   300</i>
  <i type="int" name="IBRION">     2</i>
  <i name="EDIFF">      0.00005000</i>
  <i type="int" name="NSW">    99</i>
  <i type="int" name="ISIF">     2</i>
  <i name="ENCUT">    520.00000000</i>
  <v name="MAGMOM">      0.60000000</v>
  <i type="string" name="LREAL"> Auto</i>
  <i type="int" name="ISMEAR">     0</i>
  <i name="SIGMA">      0.05000000</i>
  <i type="logical" name="LWAVE"> F  </i>
  <i type="int" name="LORBIT">    11</i>
  <i type="logical" name="LASPH"> T  </i>
  <v type="int" name="KPOINT_BSE">    -1     0     0     0</v>
  <i type="int" name="NELM">   300</i>
  <i type="logical" name="LASPH"> T  </i>
 </incar>
 <structure name="primitive_cell" >
  <crystal>
   <varray name="basis" >
    <v>      10.00000000       0.00000000       0.00000000 </v>
    <v>       0.00000000      10.00000000       0.00000000 </v>
    <v>       0.00000000       0.00000000      10.00000000 </v>
   </varray>
   <i name="volume">   1000.00000000 </i>
   <varray name="rec_basis" >
    <v>       0.10000000       0.00000000       0.00000000 </v>
    <v>       0.00000000       0.10000000       0.00000000 </v>
    <v>       0.00000000       0.00000000       0.10000000 </v>
   </varray>
  </crystal>
  <varray name="positions" >
   <v>      -0.50000000      -0.50000000      -0.50000000 </v>
  </varray>
 </structure>
 <varray name="primitive_index" >
  <v type="int" >        1 </v>
 </varray>
 <kpoints>
  <generation param="Gamma">
   <v type="int" name="divisions">       1        1        1 </v>
   <v name="usershift">      0.00000000       0.00000000       0.00000000 </v>
   <v name="genvec1">      1.00000000       0.00000000       0.00000000 </v>
   <v name="genvec2">      0.00000000       1.00000000       0.00000000 </v>
   <v name="genvec3">      0.00000000       0.00000000       1.00000000 </v>
   <v name="shift">      0.00000000       0.00000000       0.00000000 </v>
  </generation>
  <varray name="kpointlist" >
   <v>       0.00000000       0.00000000       0.00000000 </v>
  </varray>
  <varray name="weights" >
   <v>       1.00000000 </v>
  </varray>
 </kpoints>
 <parameters>
  <separator name="general" >
   <i type="string" name="SYSTEM">unknown system</i>
   <i type="logical" name="LCOMPAT"> F  </i>
  </separator>
  <separator name="electronic" >
   <i type="string" name="PREC">accura</i>
   <i name="ENMAX">    520.00000000</i>
   <i name="ENAUG">    535.43100000</i>
   <i name="EDIFF">      0.00005000</i>
   <i type="int" name="IALGO">    53</i>
   <i type="int" name="IWAVPR">    11</i>
   <i type="int" name="NBANDS">    36</i>
   <i name="NELECT">     12.00000000</i>
   <i type="int" name="TURBO">     0</i>
   <i type="int" name="IRESTART">     0</i>
   <i type="int" name="NREBOOT">     0</i>
   <i type="int" name="NMIN">     0</i>
   <i name="EREF">      0.00000000</i>
   <separator name="electronic smearing" >
    <i type="int" name="ISMEAR">     0</i>
    <i name="SIGMA">      0.05000000</i>
    <i name="KSPACING">      0.50000000</i>
    <i type="logical" name="KGAMMA"> T  </i>
   </separator>
   <separator name="electronic projectors" >
    <i type="logical" name="LREAL"> T  </i>
    <v name="ROPT">     -0.00025000</v>
    <i type="int" name="LMAXPAW">  -100</i>
    <i type="int" name="LMAXMIX">     2</i>
    <i type="logical" name="NLSPLINE"> F  </i>
   </separator>
   <separator name="electronic startup" >
    <i type="int" name="ISTART">     0</i>
    <i type="int" name="ICHARG">     2</i>
    <i type="int" name="INIWAV">     1</i>
   </separator>
   <separator name="electronic spin" >
    <i type="int" name="ISPIN">     2</i>
    <i type="logical" name="LNONCOLLINEAR"> F  </i>
    <v name="MAGMOM">      0.60000000</v>
    <i name="NUPDOWN">     -1.00000000</i>
    <i type="logical" name="LSORBIT"> F  </i>
    <v name="SAXIS">      0.00000000      0.00000000      1.00000000</v>
    <i type="logical" name="LSPIRAL"> F  </i>
    <v name="QSPIRAL">      0.00000000      0.00000000      0.00000000</v>
    <i type="logical" name="LZEROZ"> F  </i>
   </separator>
   <separator name="electronic exchange-correlation" >
    <i type="logical" name="LASPH"> T  </i>
    <i type="logical" name="LMETAGGA"> F  </i>
   </separator>
   <separator name="electronic convergence" >
    <i type="int" name="NELM">   300</i>
    <i type="int" name="NELMDL">    -5</i>
    <i type="int" name="NELMIN">     2</i>
    <i name="ENINI">    520.00000000</i>
    <separator name="electronic convergence detail" >
     <i type="logical" name="LDIAG"> T  </i>
     <i type="logical" name="LSUBROT"> F  </i>
     <i name="WEIMIN">      0.00100000</i>
     <i name="EBREAK">      0.00000035</i>
     <i name="DEPER">      0.30000000</i>
     <i type="int" name="NRMM">     4</i>
     <i name="TIME">      0.40000000</i>
    </separator>
   </separator>
   <separator name="electronic mixer" >
    <i name="AMIX">      0.40000000</i>
    <i name="BMIX">      1.00000000</i>
    <i name="AMIN">      0.10000000</i>
    <i name="AMIX_MAG">      1.60000000</i>
    <i name="BMIX_MAG">      1.00000000</i>
    <separator name="electronic mixer details" >
     <i type="int" name="IMIX">     4</i>
     <i type="logical" name="MIXFIRST"> F  </i>
     <i type="int" name="MAXMIX">   -45</i>
     <i name="WC">    100.00000000</i>
     <i type="int" name="INIMIX">     1</i>
     <i type="int" name="MIXPRE">     1</i>
     <i type="int" name="MREMOVE">     5</i>
    </separator>
   </separator>
   <separator name="electronic dipolcorrection" >
    <i type="logical" name="LDIPOL"> F  </i>
    <i type="logical" name="LMONO"> F  </i>
    <i type="int" name="IDIPOL">     0</i>
    <i name="EPSILON">      1.00000000</i>
    <v name="DIPOL">   -100.00000000   -100.00000000   -100.00000000</v>
    <i name="EFIELD">      0.00000000</i>
   </separator>
  </separator>
  <separator name="grids" >
   <i type="int" name="NGX">    80</i>
   <i type="int" name="NGY">    80</i>
   <i type="int" name="NGZ">    80</i>
   <i type="int" name="NGXF">   160</i>
   <i type="int" name="NGYF">   160</i>
   <i type="int" name="NGZF">   160</i>
   <i type="logical" name="ADDGRID"> F  </i>
  </separator>
  <separator name="ionic" >
   <i type="int" name="NSW">    99</i>
   <i type="int" name="IBRION">     2</i>
   <i type="int" name="MDALGO">     0</i>
   <i type="int" name="ISIF">     2</i>
   <i name="PSTRESS">      0.00000000</i>
   <i name="EDIFFG">      0.00050000</i>
   <i type="int" name="NFREE">     1</i>
   <i name="POTIM">      0.50000000</i>
   <i name="SMASS">     -3.00000000</i>
   <i name="SCALEE">      1.00000000</i>
  </separator>
  <separator name="ionic md" >
   <i name="TEBEG">      0.00010000</i>
   <i name="TEEND">      0.00010000</i>
   <i type="int" name="NBLOCK">     1</i>
   <i type="int" name="KBLOCK">    99</i>
   <i type="int" name="NPACO">   256</i>
   <i name="APACO">     16.00000000</i>
  </separator>
  <separator name="symmetry" >
   <i type="int" name="ISYM">     2</i>
   <i name="SYMPREC">      0.00001000</i>
  </separator>
  <separator name="dos" >
   <i type="int" name="LORBIT">    11</i>
   <v name="RWIGS">     -1.00000000</v>
   <i type="int" name="NEDOS">   301</i>
   <i name="EMIN">     10.00000000</i>
   <i name="EMAX">    -10.00000000</i>
   <i name="EFERMI">      0.00000000</i>
  </separator>
  <separator name="writing" >
   <i type="int" name="NWRITE">     2</i>
   <i type="logical" name="LWAVE"> F  </i>
   <i type="logical" name="LDOWNSAMPLE"> F  </i>
   <i type="logical" name="LCHARG"> T  </i>
   <i type="logical" name="LPARD"> F  </i>
   <i type="logical" name="LVTOT"> F  </i>
   <i type="logical" name="LVHAR"> F  </i>
   <i type="logical" name="LELF"> F  </i>
   <i type="logical" name="LOPTICS"> F  </i>
   <v name="STM">      0.00000000      0.00000000      0.00000000      0.00000000      0.00000000      0.00000000      0.00000000</v>
  </separator>
  <separator name="performance" >
   <i type="int" name="NPAR">    36</i>
   <i type="int" name="NSIM">     4</i>
   <i type="int" name="NBLK">    -1</i>
   <i type="logical" name="LPLANE"> T  </i>
   <i type="logical" name="LSCALAPACK"> T  </i>
   <i type="logical" name="LSCAAWARE"> F  </i>
   <i type="logical" name="LSCALU"> F  </i>
   <i type="logical" name="LASYNC"> F  </i>
   <i type="logical" name="LORBITALREAL"> F  </i>
  </separator>
  <separator name="miscellaneous" >
   <i type="int" name="IDIOT">     3</i>
   <i type="int" name="ISPECIAL">     0</i>
   <i type="logical" name="LMUSIC"> F  </i>
   <v name="POMASS">    232.03900000</v>
   <v name="DARWINR">      0.00000000</v>
   <v name="DARWINV">      1.00000000</v>
   <i type="logical" name="LCORR"> T  </i>
  </separator>
  <i type="logical" name="GGA_COMPAT"> T  </i>
  <i type="logical" name="LBERRY"> F  </i>
  <i type="int" name="ICORELEVEL">     0</i>
  <i type="logical" name="LDAU"> F  </i>
  <i type="int" name="I_CONSTRAINED_M">     0</i>
  <separator name="electronic exchange-correlation" >
   <i type="string" name="GGA">--</i>
   <i type="int" name="VOSKOWN">     0</i>
   <i type="logical" name="LHFCALC"> F  </i>
   <i type="string" name="PRECFOCK"></i>
   <i type="logical" name="LSYMGRAD"> F  </i>
   <i type="logical" name="LHFONE"> F  </i>
   <i type="logical" name="LRHFCALC"> F  </i>
   <i type="logical" name="LTHOMAS"> F  </i>
   <i type="logical" name="LMODELHF"> F  </i>
   <i name="ENCUT4O">     -1.00000000</i>
   <i type="int" name="EXXOEP">     0</i>
   <i type="int" name="FOURORBIT">     0</i>
   <i name="AEXX">      0.00000000</i>
   <i name="HFALPHA">      0.00000000</i>
   <i name="MCALPHA">      0.00000000</i>
   <i name="ALDAX">      1.00000000</i>
   <i name="AGGAX">      1.00000000</i>
   <i name="ALDAC">      1.00000000</i>
   <i name="AGGAC">      1.00000000</i>
   <i type="int" name="NKREDX">     1</i>
   <i type="int" name="NKREDY">     1</i>
   <i type="int" name="NKREDZ">     1</i>
   <i type="logical" name="SHIFTRED"> F  </i>
   <i type="logical" name="ODDONLY"> F  </i>
   <i type="logical" name="EVENONLY"> F  </i>
   <i type="int" name="LMAXFOCK">     0</i>
   <i type="int" name="NMAXFOCKAE">     0</i>
   <i type="logical" name="LFOCKAEDFT"> F  </i>
   <i name="HFSCREEN">      0.00000000</i>
   <i name="HFSCREENC">      0.00000000</i>
   <i type="int" name="NBANDSGWLOW">     0</i>
  </separator>
  <separator name="vdW DFT" >
   <i type="logical" name="LUSE_VDW"> F  </i>
   <i name="Zab_VDW">     -0.84910000</i>
   <i name="PARAM1">      0.12340000</i>
   <i name="PARAM2">      1.00000000</i>
   <i name="PARAM3">      0.00000000</i>
  </separator>
  <separator name="model GW" >
   <i type="int" name="MODEL_GW">     0</i>
   <i name="MODEL_EPS0">    600.00000000</i>
   <i name="MODEL_ALPHA">      1.00000000</i>
  </separator>
  <separator name="linear response parameters" >
   <i type="logical" name="LEPSILON"> F  </i>
   <i type="logical" name="LRPA"> F  </i>
   <i type="logical" name="LNABLA"> F  </i>
   <i type="logical" name="LVEL"> F  </i>
   <i type="int" name="KINTER">     0</i>
   <i name="CSHIFT">      0.10000000</i>
   <i name="OMEGAMAX">     -1.00000000</i>
   <i name="DEG_THRESHOLD">      0.00200000</i>
   <i name="RTIME">     -0.10000000</i>
   <i name="WPLASMAI">      0.00000000</i>
   <v name="DFIELD">      0.00000000      0.00000000      0.00000000</v>
   <v name="WPLASMA">      0.00000000      0.00000000      0.00000000      0.00000000      0.00000000      0.00000000      0.00000000      0.00000000      0.00000000</v>
  </separator>
  <separator name="orbital magnetization" >
   <i type="logical" name="NUCIND"> F  </i>
   <v name="MAGPOS">      0.00000000      0.00000000      0.00000000</v>
   <i type="logical" name="LNICSALL"> T  </i>
   <i type="logical" name="ORBITALMAG"> F  </i>
   <i type="logical" name="LMAGBLOCH"> F  </i>
   <i type="logical" name="LCHIMAG"> F  </i>
   <i type="logical" name="LGAUGE"> T  </i>
   <i type="int" name="MAGATOM">     0</i>
   <v name="MAGDIPOL">      0.00000000      0.00000000      0.00000000</v>
   <v name="AVECCONST">      0.00000000      0.00000000      0.00000000</v>
  </separator>
  <separator name="response functions" >
   <i type="logical" name="LADDER"> F  </i>
   <i type="logical" name="LRPAFORCE"> F  </i>
   <i type="logical" name="LFXC"> F  </i>
   <i type="logical" name="LHARTREE"> T  </i>
   <i type="int" name="IBSE">     0</i>
   <v type="int" name="KPOINT">    -1     0     0     0</v>
   <i type="logical" name="LTCTE"> F  </i>
   <i type="logical" name="LTETE"> F  </i>
   <i type="logical" name="LTRIPLET"> F  </i>
   <i type="logical" name="LFXCEPS"> F  </i>
   <i type="logical" name="LFXHEG"> F  </i>
   <i type="int" name="NATURALO">     2</i>
   <i type="logical" name="L2ORDER"> F  </i>
   <i type="logical" name="LMP2LT"> F  </i>
   <i type="logical" name="LUSEW"> F  </i>
   <i name="ENCUTGW">     -2.00000000</i>
   <i name="ENCUTGWSOFT">     -2.00000000</i>
   <i name="ENCUTLF">     -1.00000000</i>
   <i type="int" name="LMAXMP2">    -1</i>
   <i name="SCISSOR">      0.00000000</i>
   <i type="int" name="NOMEGA">     0</i>
   <i type="int" name="NOMEGAR">     0</i>
   <i type="int" name="NBANDSGW">    -1</i>
   <i type="int" name="NBANDSO">    -1</i>
   <i type="int" name="NBANDSV">    -1</i>
   <i type="int" name="NELM">   300</i>
   <i type="int" name="NELMHF">     1</i>
   <i type="int" name="DIM">     3</i>
   <i type="int" name="ANTIRES">     0</i>
   <i name="OMEGAMAX">    -30.00000000</i>
   <i name="OMEGAMIN">    -30.00000000</i>
   <i name="OMEGATL">   -200.00000000</i>
   <i type="int" name="OMEGAGRID">   140</i>
   <i name="CSHIFT">     -0.10000000</i>
   <i type="logical" name="SELFENERGY"> F  </i>
   <i type="logical" name="LSPECTRAL"> F  </i>
   <i type="logical" name="LSPECTRALGW"> F  </i>
   <i type="logical" name="LSINGLES"> F  </i>
   <i type="logical" name="LFERMIGW"> F  </i>
   <i type="logical" name="ODDONLYGW"> F  </i>
   <i type="logical" name="EVENONLYGW"> F  </i>
   <i type="int" name="NKREDLFX">     1</i>
   <i type="int" name="NKREDLFY">     1</i>
   <i type="int" name="NKREDLFZ">     1</i>
   <i type="int" name="MAXMEM">  2800</i>
   <i type="int" name="TELESCOPE">     0</i>
   <i type="int" name="TAUPAR">     1</i>
   <i type="int" name="OMEGAPAR">    -1</i>
   <i name="LAMBDA">      1.00000000</i>
  </separator>
  <separator name="External order field" >
   <i name="OFIELD_KAPPA">      0.00000000</i>
   <v name="OFIELD_K">      0.00000000      0.00000000      0.00000000</v>
   <i name="OFIELD_Q6_NEAR">      0.00000000</i>
   <i name="OFIELD_Q6_FAR">      0.00000000</i>
   <i name="OFIELD_A">      0.00000000</i>
  </separator>
 </parameters>
 <atominfo>
  <atoms>       1 </atoms>
  <types>       1 </types>
  <array name="atoms" >
   <dimension dim="1">ion</dimension>
   <field type="string">element</field>
   <field type="int">atomtype</field>
   <set>
    <rc><c>Th</c><c>   1</c></rc>
   </set>
  </array>
  <array name="atomtypes" >
   <dimension dim="1">type</dimension>
   <field type="int">atomspertype</field>
   <field type="string">element</field>
   <field>mass</field>
   <field>valence</field>
   <field type="string">pseudopotential</field>
   <set>
    <rc><c>   1</c><c>Th</c><c>    232.03900000</c><c>     12.00000000</c><c>  PAW_PBE Th 07Sep2000                  </c></rc>
   </set>
  </array>
 </atominfo>
 <structure name="initialpos" >
  <crystal>
   <varray name="basis" >
    <v>      10.00000000       0.00000000       0.00000000 </v>
    <v>       0.00000000      10.00000000       0.00000000 </v>
    <v>       0.00000000       0.00000000      10.00000000 </v>
   </varray>
   <i name="volume">   1000.00000000 </i>
   <varray name="rec_basis" >
    <v>       0.10000000       0.00000000       0.00000000 </v>
    <v>       0.00000000       0.10000000       0.00000000 </v>
    <v>       0.00000000       0.00000000       0.10000000 </v>
   </varray>
  </crystal>
  <varray name="positions" >
   <v>       0.50000000       0.50000000       0.50000000 </v>
  </varray>
 </structure>
 <calculation>
  <scstep>
   <time name="total">    1.33    1.34</time>
   <energy>
    <i name="alphaZ">      3.06064392 </i>
    <i name="ewald">   -294.16665608 </i>
    <i name="hartreedc">   -503.01562280 </i>
    <i name="XCdc">     10.01981229 </i>
    <i name="pawpsdc">    778.16021875 </i>
    <i name="pawaedc">   -757.83971502 </i>
    <i name="eentropy">     -0.00000000 </i>
    <i name="bandstr">    -61.57160409 </i>
    <i name="atom">    984.75434408 </i>
    <i name="e_fr_energy">    159.40142106 </i>
    <i name="e_wo_entrp">    159.40142106 </i>
    <i name="e_0_energy">    159.40142106 </i>
   </energy>
  </scstep>
  <scstep>
   <time name="total">    0.38    0.38</time>
   <energy>
    <i name="e_fr_energy">    130.59143878 </i>
    <i name="e_wo_entrp">    130.62064465 </i>
    <i name="e_0_energy">    130.60604171 </i>
   </energy>
  </scstep>
  <scstep>
   <time name="total">    0.38    0.38</time>
   <energy>
    <i name="e_fr_energy">     48.69175729 </i>
    <i name="e_wo_entrp">     48.69567676 </i>
    <i name="e_0_energy">     48.69371702 </i>
   </energy>
  </scstep>
  <scstep>
   <time name="total">    0.39    0.39</time>
   <energy>
    <i name="e_fr_energy">      6.68351339 </i>
    <i name="e_wo_entrp">      6.71165121 </i>
    <i name="e_0_energy">      6.69758230 </i>
   </energy>
  </scstep>
  <scstep>
   <time name="total">    0.59    0.59</time>
   <energy>
    <i name="e_fr_energy">      0.21478733 </i>
    <i name="e_wo_entrp">      0.23220994 </i>
    <i name="e_0_energy">      0.22349864 </i>
   </energy>
  </scstep>
  <scstep>
   <time name="total">    1.39    1.39</time>
   <energy>
    <i name="e_fr_energy">      3.68555132 </i>
    <i name="e_wo_entrp">      3.74479533 </i>
    <i name="e_0_energy">      3.71517332 </i>
   </energy>
  </scstep>
  <scstep>
   <time name="total">    1.35    1.35</time>
   <energy>
    <i name="e_fr_energy">      2.58694995 </i>
    <i name="e_wo_entrp">      2.59324047 </i>
    <i name="e_0_energy">      2.59009521 </i>
   </energy>
  </scstep>
  <scstep>
   <time name="total">    1.35    1.35</time>
   <energy>
    <i name="e_fr_energy">      0.26996974 </i>
    <i name="e_wo_entrp">      0.33807057 </i>
    <i name="e_0_energy">      0.30402016 </i>
   </energy>
  </scstep>
  <scstep>
   <time name="total">    1.33    1.33</time>
   <energy>
    <i name="e_fr_energy">      2.03980434 </i>
    <i name="e_wo_entrp">      2.04005264 </i>
    <i name="e_0_energy">      2.03992849 </i>
   </energy>
  </scstep>
  <scstep>
   <time name="total">    1.34    1.34</time>
   <energy>
    <i name="e_fr_energy">      0.71775181 </i>
    <i name="e_wo_entrp">      0.78368872 </i>
    <i name="e_0_energy">      0.75072026 </i>
   </energy>
  </scstep>
  <scstep>
   <time name="total">    1.33    1.33</time>
   <energy>
    <i name="e_fr_energy">      2.35585349 </i>
    <i name="e_wo_entrp">      2.35593032 </i>
    <i name="e_0_energy">      2.35589191 </i>
   </energy>
  </scstep>
  <scstep>
   <time name="total">    1.34    1.34</time>
   <energy>
    <i name="e_fr_energy">      0.45878403 </i>
    <i name="e_wo_entrp">      0.51940088 </i>
    <i name="e_0_energy">      0.48909246 </i>
   </energy>
  </scstep>
  <scstep>
   <time name="total">    1.34    1.34</time>
   <energy>
    <i name="e_fr_energy">      2.59138740 </i>
    <i name="e_wo_entrp">      2.59158386 </i>
    <i name="e_0_energy">      2.59148563 </i>
   </energy>
  </scstep>
  <scstep>
   <time name="total">    1.34    1.34</time>
   <energy>
    <i name="e_fr_energy">      0.60295477 </i>
    <i name="e_wo_entrp">      0.66173052 </i>
    <i name="e_0_energy">      0.63234265 </i>
   </energy>
  </scstep>
  <scstep>
   <time name="total">    1.35    1.35</time>
   <energy>
    <i name="e_fr_energy">      2.57094034 </i>
    <i name="e_wo_entrp">      2.57129772 </i>
    <i name="e_0_energy">      2.57111903 </i>
   </energy>
  </scstep>
  <scstep>
   <time name="total">    1.34    1.34</time>
   <energy>
    <i name="e_fr_energy">      0.54608983 </i>
    <i name="e_wo_entrp">      0.60434607 </i>
    <i name="e_0_energy">      0.57521795 </i>
   </energy>
  </scstep>
  <scstep>
   <time name="total">    1.34    1.34</time>
   <energy>
    <i name="e_fr_energy">      2.55066319 </i>
    <i name="e_wo_entrp">      2.55083445 </i>
    <i name="e_0_energy">      2.55074882 </i>
   </energy>
  </scstep>
  <scstep>
   <time name="total">    1.34    1.34</time>
   <energy>
    <i name="e_fr_energy">      0.52159353 </i>
    <i name="e_wo_entrp">      0.58229166 </i>
    <i name="e_0_energy">      0.55194260 </i>
   </energy>
  </scstep>
  <scstep>
   <time name="total">    1.33    1.33</time>
   <energy>
    <i name="e_fr_energy">      2.33936195 </i>
    <i name="e_wo_entrp">      2.33937465 </i>
    <i name="e_0_energy">      2.33936830 </i>
   </energy>
  </scstep>
  <scstep>
   <time name="total">    1.33    1.33</time>
   <energy>
    <i name="e_fr_energy">      0.45362964 </i>
    <i name="e_wo_entrp">      0.51041070 </i>
    <i name="e_0_energy">      0.48202017 </i>
   </energy>
  </scstep>
  <scstep>
   <time name="total">    1.35    1.35</time>
   <energy>
    <i name="e_fr_energy">     -0.04955413 </i>
    <i name="e_wo_entrp">     -0.01215221 </i>
    <i name="e_0_energy">     -0.03085317 </i>
   </energy>
  </scstep>
  <scstep>
   <time name="total">    1.34    1.34</time>
   <energy>
    <i name="e_fr_energy">     -0.67548468 </i>
    <i name="e_wo_entrp">     -0.62977579 </i>
    <i name="e_0_energy">     -0.65263024 </i>
   </energy>
  </scstep>
  <scstep>
   <time name="total">    1.33    1.33</time>
   <energy>
    <i name="e_fr_energy">     -0.69229016 </i>
    <i name="e_wo_entrp">     -0.67762134 </i>
    <i name="e_0_energy">     -0.68495575 </i>
   </energy>
  </scstep>
  <scstep>
   <time name="total">    1.33    1.33</time>
   <energy>
    <i name="e_fr_energy">     -0.48763543 </i>
    <i name="e_wo_entrp">     -0.44640480 </i>
    <i name="e_0_energy">     -0.46702011 </i>
   </energy>
  </scstep>
  <scstep>
   <time name="total">    1.34    1.34</time>
   <energy>
    <i name="e_fr_energy">     -0.15905382 </i>
    <i name="e_wo_entrp">     -0.15332081 </i>
    <i name="e_0_energy">     -0.15618732 </i>
   </energy>
  </scstep>
  <scstep>
   <time name="total">    1.34    1.35</time>
   <energy>
    <i name="e_fr_energy">     -0.40152851 </i>
    <i name="e_wo_entrp">     -0.37267525 </i>
    <i name="e_0_energy">     -0.38710188 </i>
   </energy>
  </scstep>
  <scstep>
   <time name="total">    1.33    1.33</time>
   <energy>
    <i name="e_fr_energy">     -0.26657907 </i>
    <i name="e_wo_entrp">     -0.25778638 </i>
    <i name="e_0_energy">     -0.26218272 </i>
   </energy>
  </scstep>
  <scstep>
   <time name="total">    1.33    1.33</time>
   <energy>
    <i name="e_fr_energy">     -0.59475151 </i>
    <i name="e_wo_entrp">     -0.54787462 </i>
    <i name="e_0_energy">     -0.57131306 </i>
   </energy>
  </scstep>
  <scstep>
   <time name="total">    1.34    1.34</time>
   <energy>
    <i name="e_fr_energy">     -0.58485916 </i>
    <i name="e_wo_entrp">     -0.58235898 </i>
    <i name="e_0_energy">     -0.58360907 </i>
   </energy>
  </scstep>
  <scstep>
   <time name="total">    1.34    1.34</time>
   <energy>
    <i name="e_fr_energy">     -0.73725660 </i>
    <i name="e_wo_entrp">     -0.70040000 </i>
    <i name="e_0_energy">     -0.71882830 </i>
   </energy>
  </scstep>
  <scstep>
   <time name="total">    1.34    1.34</time>
   <energy>
    <i name="e_fr_energy">     -0.95574389 </i>
    <i name="e_wo_entrp">     -0.94021996 </i>
    <i name="e_0_energy">     -0.94798193 </i>
   </energy>
  </scstep>
  <scstep>
   <time name="total">    1.33    1.34</time>
   <energy>
    <i name="e_fr_energy">     -1.01686899 </i>
    <i name="e_wo_entrp">     -0.96915387 </i>
    <i name="e_0_energy">     -0.99301143 </i>
   </energy>
  </scstep>
  <scstep>
   <time name="total">    1.34    1.34</time>
   <energy>
    <i name="e_fr_energy">     -0.87388869 </i>
    <i name="e_wo_entrp">     -0.87231417 </i>
    <i name="e_0_energy">     -0.87310143 </i>
   </energy>
  </scstep>
  <scstep>
   <time name="total">    1.34    1.34</time>
   <energy>
    <i name="e_fr_energy">     -0.92634949 </i>
    <i name="e_wo_entrp">     -0.88161301 </i>
    <i name="e_0_energy">     -0.90398125 </i>
   </energy>
  </scstep>
  <scstep>
   <time name="total">    1.33    1.33</time>
   <energy>
    <i name="e_fr_energy">     -1.02418088 </i>
    <i name="e_wo_entrp">     -1.00163731 </i>
    <i name="e_0_energy">     -1.01290909 </i>
   </energy>
  </scstep>
  <scstep>
   <time name="total">    1.34    1.34</time>
   <energy>
    <i name="e_fr_energy">     -1.08046382 </i>
    <i name="e_wo_entrp">     -1.04494124 </i>
    <i name="e_0_energy">     -1.06270253 </i>
   </energy>
  </scstep>
  <scstep>
   <time name="total">    1.34    1.34</time>
   <energy>
    <i name="e_fr_energy">     -1.07591966 </i>
    <i name="e_wo_entrp">     -1.06048485 </i>
    <i name="e_0_energy">     -1.06820225 </i>
   </energy>
  </scstep>
  <scstep>
   <time name="total">    1.34    1.34</time>
   <energy>
    <i name="e_fr_energy">     -1.06389334 </i>
    <i name="e_wo_entrp">     -1.01875310 </i>
    <i name="e_0_energy">     -1.04132322 </i>
   </energy>
  </scstep>
  <scstep>
   <time name="total">    1.33    1.33</time>
   <energy>
    <i name="e_fr_energy">     -1.00433787 </i>
    <i name="e_wo_entrp">     -1.00042147 </i>
    <i name="e_0_energy">     -1.00237967 </i>
   </energy>
  </scstep>
  <scstep>
   <time name="total">    1.34    1.34</time>
   <energy>
    <i name="e_fr_energy">     -1.00806785 </i>
    <i name="e_wo_entrp">     -0.96988267 </i>
    <i name="e_0_energy">     -0.98897526 </i>
   </energy>
  </scstep>
  <scstep>
   <time name="total">    1.33    1.33</time>
   <energy>
    <i name="e_fr_energy">     -1.07581621 </i>
    <i name="e_wo_entrp">     -1.05518650 </i>
    <i name="e_0_energy">     -1.06550136 </i>
   </energy>
  </scstep>
  <scstep>
   <time name="total">    1.33    1.33</time>
   <energy>
    <i name="e_fr_energy">     -1.09410170 </i>
    <i name="e_wo_entrp">     -1.05741786 </i>
    <i name="e_0_energy">     -1.07575978 </i>
   </energy>
  </scstep>
  <scstep>
   <time name="total">    1.33    1.33</time>
   <energy>
    <i name="e_fr_energy">     -1.08651274 </i>
    <i name="e_wo_entrp">     -1.07220697 </i>
    <i name="e_0_energy">     -1.07935986 </i>
   </energy>
  </scstep>
  <scstep>
   <time name="total">    1.34    1.34</time>
   <energy>
    <i name="e_fr_energy">     -1.07548663 </i>
    <i name="e_wo_entrp">     -1.03170427 </i>
    <i name="e_0_energy">     -1.05359545 </i>
   </energy>
  </scstep>
  <scstep>
   <time name="total">    1.33    1.33</time>
   <energy>
    <i name="e_fr_energy">     -1.03444315 </i>
    <i name="e_wo_entrp">     -1.02850779 </i>
    <i name="e_0_energy">     -1.03147547 </i>
   </energy>
  </scstep>
  <scstep>
   <time name="total">    1.34    1.34</time>
   <energy>
    <i name="e_fr_energy">     -1.03287509 </i>
    <i name="e_wo_entrp">     -0.99261181 </i>
    <i name="e_0_energy">     -1.01274345 </i>
   </energy>
  </scstep>
  <scstep>
   <time name="total">    1.33    1.33</time>
   <energy>
    <i name="e_fr_energy">     -1.06711993 </i>
    <i name="e_wo_entrp">     -1.05277455 </i>
    <i name="e_0_energy">     -1.05994724 </i>
   </energy>
  </scstep>
  <scstep>
   <time name="total">    1.33    1.33</time>
   <energy>
    <i name="e_fr_energy">     -1.07762034 </i>
    <i name="e_wo_entrp">     -1.03524606 </i>
    <i name="e_0_energy">     -1.05643320 </i>
   </energy>
  </scstep>
  <scstep>
   <time name="total">    1.34    1.34</time>
   <energy>
    <i name="e_fr_energy">     -1.05341394 </i>
    <i name="e_wo_entrp">     -1.04550200 </i>
    <i name="e_0_energy">     -1.04945797 </i>
   </energy>
  </scstep>
  <scstep>
   <time name="total">    1.33    1.34</time>
   <energy>
    <i name="e_fr_energy">     -1.04545110 </i>
    <i name="e_wo_entrp">     -0.99904895 </i>
    <i name="e_0_energy">     -1.02225003 </i>
   </energy>
  </scstep>
  <scstep>
   <time name="total">    1.33    1.33</time>
   <energy>
    <i name="e_fr_energy">     -1.02804618 </i>
    <i name="e_wo_entrp">     -1.02151933 </i>
    <i name="e_0_energy">     -1.02478275 </i>
   </energy>
  </scstep>
  <scstep>
   <time name="total">    1.33    1.33</time>
   <energy>
    <i name="e_fr_energy">     -1.03716435 </i>
    <i name="e_wo_entrp">     -0.99016274 </i>
    <i name="e_0_energy">     -1.01366355 </i>
   </energy>
  </scstep>
  <scstep>
   <time name="total">    1.33    1.33</time>
   <energy>
    <i name="e_fr_energy">     -1.03277818 </i>
    <i name="e_wo_entrp">     -1.02530187 </i>
    <i name="e_0_energy">     -1.02904002 </i>
   </energy>
  </scstep>
  <scstep>
   <time name="total">    1.34    1.34</time>
   <energy>
    <i name="e_fr_energy">     -1.04311165 </i>
    <i name="e_wo_entrp">     -0.99823235 </i>
    <i name="e_0_energy">     -1.02067200 </i>
   </energy>
  </scstep>
  <scstep>
   <time name="total">    1.34    1.34</time>
   <energy>
    <i name="e_fr_energy">     -1.04211833 </i>
    <i name="e_wo_entrp">     -1.03424644 </i>
    <i name="e_0_energy">     -1.03818238 </i>
   </energy>
  </scstep>
  <scstep>
   <time name="total">    1.33    1.33</time>
   <energy>
    <i name="e_fr_energy">     -1.04794898 </i>
    <i name="e_wo_entrp">     -1.00435434 </i>
    <i name="e_0_energy">     -1.02615166 </i>
   </energy>
  </scstep>
  <scstep>
   <time name="total">    1.33    1.33</time>
   <energy>
    <i name="e_fr_energy">     -1.04797523 </i>
    <i name="e_wo_entrp">     -1.03920147 </i>
    <i name="e_0_energy">     -1.04358835 </i>
   </energy>
  </scstep>
  <scstep>
   <time name="total">    1.33    1.33</time>
   <energy>
    <i name="e_fr_energy">     -1.05358706 </i>
    <i name="e_wo_entrp">     -1.01159513 </i>
    <i name="e_0_energy">     -1.03259109 </i>
   </energy>
  </scstep>
  <scstep>
   <time name="total">    1.33    1.33</time>
   <energy>
    <i name="e_fr_energy">     -1.05404141 </i>
    <i name="e_wo_entrp">     -1.04445767 </i>
    <i name="e_0_energy">     -1.04924954 </i>
   </energy>
  </scstep>
  <scstep>
   <time name="total">    1.32    1.32</time>
   <energy>
    <i name="e_fr_energy">     -1.05736000 </i>
    <i name="e_wo_entrp">     -1.01158108 </i>
    <i name="e_0_energy">     -1.03447054 </i>
   </energy>
  </scstep>
  <scstep>
   <time name="total">    1.33    1.33</time>
   <energy>
    <i name="e_fr_energy">     -1.03223282 </i>
    <i name="e_wo_entrp">     -1.02590994 </i>
    <i name="e_0_energy">     -1.02907138 </i>
   </energy>
  </scstep>
  <scstep>
   <time name="total">    1.33    1.33</time>
   <energy>
    <i name="e_fr_energy">     -1.03785345 </i>
    <i name="e_wo_entrp">     -0.99293584 </i>
    <i name="e_0_energy">     -1.01539464 </i>
   </energy>
  </scstep>
  <scstep>
   <time name="total">    1.33    1.33</time>
   <energy>
    <i name="e_fr_energy">     -1.04846361 </i>
    <i name="e_wo_entrp">     -1.03870585 </i>
    <i name="e_0_energy">     -1.04358473 </i>
   </energy>
  </scstep>
  <scstep>
   <time name="total">    1.33    1.33</time>
   <energy>
    <i name="e_fr_energy">     -1.05680993 </i>
    <i name="e_wo_entrp">     -1.01123452 </i>
    <i name="e_0_energy">     -1.03402223 </i>
   </energy>
  </scstep>
  <scstep>
   <time name="total">    1.34    1.34</time>
   <energy>
    <i name="e_fr_energy">     -1.03521643 </i>
    <i name="e_wo_entrp">     -1.02895275 </i>
    <i name="e_0_energy">     -1.03208459 </i>
   </energy>
  </scstep>
  <scstep>
   <time name="total">    1.34    1.34</time>
   <energy>
    <i name="e_fr_energy">     -1.03971388 </i>
    <i name="e_wo_entrp">     -0.99886990 </i>
    <i name="e_0_energy">     -1.01929189 </i>
   </energy>
  </scstep>
  <scstep>
   <time name="total">    1.33    1.34</time>
   <energy>
    <i name="e_fr_energy">     -1.06677533 </i>
    <i name="e_wo_entrp">     -1.05355272 </i>
    <i name="e_0_energy">     -1.06016403 </i>
   </energy>
  </scstep>
  <scstep>
   <time name="total">    1.34    1.34</time>
   <energy>
    <i name="e_fr_energy">     -1.07562951 </i>
    <i name="e_wo_entrp">     -1.03423065 </i>
    <i name="e_0_energy">     -1.05493008 </i>
   </energy>
  </scstep>
  <scstep>
   <time name="total">    1.33    1.33</time>
   <energy>
    <i name="e_fr_energy">     -1.05778610 </i>
    <i name="e_wo_entrp">     -1.04906656 </i>
    <i name="e_0_energy">     -1.05342633 </i>
   </energy>
  </scstep>
  <scstep>
   <time name="total">    1.33    1.33</time>
   <energy>
    <i name="e_fr_energy">     -1.05292721 </i>
    <i name="e_wo_entrp">     -1.00532542 </i>
    <i name="e_0_energy">     -1.02912631 </i>
   </energy>
  </scstep>
  <scstep>
   <time name="total">    1.33    1.33</time>
   <energy>
    <i name="e_fr_energy">     -1.02201712 </i>
    <i name="e_wo_entrp">     -1.01651104 </i>
    <i name="e_0_energy">     -1.01926408 </i>
   </energy>
  </scstep>
  <scstep>
   <time name="total">    1.33    1.33</time>
   <energy>
    <i name="e_fr_energy">     -1.03284412 </i>
    <i name="e_wo_entrp">     -0.99025265 </i>
    <i name="e_0_energy">     -1.01154838 </i>
   </energy>
  </scstep>
  <scstep>
   <time name="total">    1.33    1.33</time>
   <energy>
    <i name="e_fr_energy">     -1.06532457 </i>
    <i name="e_wo_entrp">     -1.05231075 </i>
    <i name="e_0_energy">     -1.05881766 </i>
   </energy>
  </scstep>
  <scstep>
   <time name="total">    1.33    1.34</time>
   <energy>
    <i name="e_fr_energy">     -1.07366586 </i>
    <i name="e_wo_entrp">     -1.02959750 </i>
    <i name="e_0_energy">     -1.05163168 </i>
   </energy>
  </scstep>
  <scstep>
   <time name="total">    1.33    1.33</time>
   <energy>
    <i name="e_fr_energy">     -1.04516021 </i>
    <i name="e_wo_entrp">     -1.03838757 </i>
    <i name="e_0_energy">     -1.04177389 </i>
   </energy>
  </scstep>
  <scstep>
   <time name="total">    1.33    1.33</time>
   <energy>
    <i name="e_fr_energy">     -1.04299723 </i>
    <i name="e_wo_entrp">     -1.00270322 </i>
    <i name="e_0_energy">     -1.02285023 </i>
   </energy>
  </scstep>
  <scstep>
   <time name="total">    1.33    1.33</time>
   <energy>
    <i name="e_fr_energy">     -1.06697568 </i>
    <i name="e_wo_entrp">     -1.05390321 </i>
    <i name="e_0_energy">     -1.06043945 </i>
   </energy>
  </scstep>
  <scstep>
   <time name="total">    1.33    1.33</time>
   <energy>
    <i name="e_fr_energy">     -1.07491338 </i>
    <i name="e_wo_entrp">     -1.03388515 </i>
    <i name="e_0_energy">     -1.05439926 </i>
   </energy>
  </scstep>
  <scstep>
   <time name="total">    1.33    1.34</time>
   <energy>
    <i name="e_fr_energy">     -1.05926281 </i>
    <i name="e_wo_entrp">     -1.05022484 </i>
    <i name="e_0_energy">     -1.05474383 </i>
   </energy>
  </scstep>
  <scstep>
   <time name="total">    1.33    1.33</time>
   <energy>
    <i name="e_fr_energy">     -1.05464503 </i>
    <i name="e_wo_entrp">     -1.00876403 </i>
    <i name="e_0_energy">     -1.03170453 </i>
   </energy>
  </scstep>
  <scstep>
   <time name="total">    1.33    1.33</time>
   <energy>
    <i name="e_fr_energy">     -1.03352595 </i>
    <i name="e_wo_entrp">     -1.02691524 </i>
    <i name="e_0_energy">     -1.03022059 </i>
   </energy>
  </scstep>
  <scstep>
   <time name="total">    1.34    1.34</time>
   <energy>
    <i name="e_fr_energy">     -1.04009101 </i>
    <i name="e_wo_entrp">     -0.99658688 </i>
    <i name="e_0_energy">     -1.01833895 </i>
   </energy>
  </scstep>
  <scstep>
   <time name="total">    1.33    1.33</time>
   <energy>
    <i name="e_fr_energy">     -1.05645993 </i>
    <i name="e_wo_entrp">     -1.04599226 </i>
    <i name="e_0_energy">     -1.05122610 </i>
   </energy>
  </scstep>
  <scstep>
   <time name="total">    1.33    1.33</time>
   <energy>
    <i name="e_fr_energy">     -1.06251330 </i>
    <i name="e_wo_entrp">     -1.01891644 </i>
    <i name="e_0_energy">     -1.04071487 </i>
   </energy>
  </scstep>
  <scstep>
   <time name="total">    1.33    1.33</time>
   <energy>
    <i name="e_fr_energy">     -1.04514882 </i>
    <i name="e_wo_entrp">     -1.03764491 </i>
    <i name="e_0_energy">     -1.04139686 </i>
   </energy>
  </scstep>
  <scstep>
   <time name="total">    1.32    1.32</time>
   <energy>
    <i name="e_fr_energy">     -1.04709794 </i>
    <i name="e_wo_entrp">     -1.00658977 </i>
    <i name="e_0_energy">     -1.02684385 </i>
   </energy>
  </scstep>
  <scstep>
   <time name="total">    1.32    1.32</time>
   <energy>
    <i name="e_fr_energy">     -1.06428057 </i>
    <i name="e_wo_entrp">     -1.05218099 </i>
    <i name="e_0_energy">     -1.05823078 </i>
   </energy>
  </scstep>
  <scstep>
   <time name="total">    1.33    1.33</time>
   <energy>
    <i name="e_fr_energy">     -1.07042212 </i>
    <i name="e_wo_entrp">     -1.02524876 </i>
    <i name="e_0_energy">     -1.04783544 </i>
   </energy>
  </scstep>
  <scstep>
   <time name="total">    1.33    1.33</time>
   <energy>
    <i name="e_fr_energy">     -1.03858958 </i>
    <i name="e_wo_entrp">     -1.03233796 </i>
    <i name="e_0_energy">     -1.03546377 </i>
   </energy>
  </scstep>
  <scstep>
   <time name="total">    1.34    1.34</time>
   <energy>
    <i name="e_fr_energy">     -1.03834198 </i>
    <i name="e_wo_entrp">     -0.99606010 </i>
    <i name="e_0_energy">     -1.01720104 </i>
   </energy>
  </scstep>
  <scstep>
   <time name="total">    1.32    1.32</time>
   <energy>
    <i name="e_fr_energy">     -1.06245302 </i>
    <i name="e_wo_entrp">     -1.05042507 </i>
    <i name="e_0_energy">     -1.05643904 </i>
   </energy>
  </scstep>
  <scstep>
   <time name="total">    1.33    1.33</time>
   <energy>
    <i name="e_fr_energy">     -1.06999935 </i>
    <i name="e_wo_entrp">     -1.02726859 </i>
    <i name="e_0_energy">     -1.04863397 </i>
   </energy>
  </scstep>
  <scstep>
   <time name="total">    1.33    1.33</time>
   <energy>
    <i name="e_fr_energy">     -1.04991372 </i>
    <i name="e_wo_entrp">     -1.04213023 </i>
    <i name="e_0_energy">     -1.04602198 </i>
   </energy>
  </scstep>
  <scstep>
   <time name="total">    1.32    1.32</time>
   <energy>
    <i name="e_fr_energy">     -1.04832842 </i>
    <i name="e_wo_entrp">     -1.00760730 </i>
    <i name="e_0_energy">     -1.02796786 </i>
   </energy>
  </scstep>
  <scstep>
   <time name="total">    1.33    1.34</time>
   <energy>
    <i name="e_fr_energy">     -1.06200470 </i>
    <i name="e_wo_entrp">     -1.05048408 </i>
    <i name="e_0_energy">     -1.05624439 </i>
   </energy>
  </scstep>
  <scstep>
   <time name="total">    1.33    1.33</time>
   <energy>
    <i name="e_fr_energy">     -1.06758673 </i>
    <i name="e_wo_entrp">     -1.02263128 </i>
    <i name="e_0_energy">     -1.04510901 </i>
   </energy>
  </scstep>
  <scstep>
   <time name="total">    1.33    1.33</time>
   <energy>
    <i name="e_fr_energy">     -1.03936390 </i>
    <i name="e_wo_entrp">     -1.03284649 </i>
    <i name="e_0_energy">     -1.03610520 </i>
   </energy>
  </scstep>
  <scstep>
   <time name="total">    1.33    1.33</time>
   <energy>
    <i name="e_fr_energy">     -1.03994813 </i>
    <i name="e_wo_entrp">     -0.99741097 </i>
    <i name="e_0_energy">     -1.01867955 </i>
   </energy>
  </scstep>
  <scstep>
   <time name="total">    1.32    1.32</time>
   <energy>
    <i name="e_fr_energy">     -1.06035546 </i>
    <i name="e_wo_entrp">     -1.04892261 </i>
    <i name="e_0_energy">     -1.05463904 </i>
   </energy>
  </scstep>
  <scstep>
   <time name="total">    1.33    1.33</time>
   <energy>
    <i name="e_fr_energy">     -1.06723626 </i>
    <i name="e_wo_entrp">     -1.02443135 </i>
    <i name="e_0_energy">     -1.04583381 </i>
   </energy>
  </scstep>
  <scstep>
   <time name="total">    1.33    1.33</time>
   <energy>
    <i name="e_fr_energy">     -1.04906848 </i>
    <i name="e_wo_entrp">     -1.04123395 </i>
    <i name="e_0_energy">     -1.04515121 </i>
   </energy>
  </scstep>
  <scstep>
   <time name="total">    1.32    1.32</time>
   <energy>
    <i name="e_fr_energy">     -1.04863704 </i>
    <i name="e_wo_entrp">     -1.00794054 </i>
    <i name="e_0_energy">     -1.02828879 </i>
   </energy>
  </scstep>
  <scstep>
   <time name="total">    1.32    1.32</time>
   <energy>
    <i name="e_fr_energy">     -1.06214833 </i>
    <i name="e_wo_entrp">     -1.05062376 </i>
    <i name="e_0_energy">     -1.05638604 </i>
   </energy>
  </scstep>
  <scstep>
   <time name="total">    1.33    1.33</time>
   <energy>
    <i name="e_fr_energy">     -1.06760882 </i>
    <i name="e_wo_entrp">     -1.02270164 </i>
    <i name="e_0_energy">     -1.04515523 </i>
   </energy>
  </scstep>
  <scstep>
   <time name="total">    1.33    1.33</time>
   <energy>
    <i name="e_fr_energy">     -1.03962920 </i>
    <i name="e_wo_entrp">     -1.03307968 </i>
    <i name="e_0_energy">     -1.03635444 </i>
   </energy>
  </scstep>
  <scstep>
   <time name="total">    1.32    1.32</time>
   <energy>
    <i name="e_fr_energy">     -1.04015146 </i>
    <i name="e_wo_entrp">     -0.99760903 </i>
    <i name="e_0_energy">     -1.01888024 </i>
   </energy>
  </scstep>
  <scstep>
   <time name="total">    1.33    1.33</time>
   <energy>
    <i name="e_fr_energy">     -1.06019847 </i>
    <i name="e_wo_entrp">     -1.04881129 </i>
    <i name="e_0_energy">     -1.05450488 </i>
   </energy>
  </scstep>
  <scstep>
   <time name="total">    1.34    1.34</time>
   <energy>
    <i name="e_fr_energy">     -1.06702275 </i>
    <i name="e_wo_entrp">     -1.02423567 </i>
    <i name="e_0_energy">     -1.04562921 </i>
   </energy>
  </scstep>
  <scstep>
   <time name="total">    1.34    1.34</time>
   <energy>
    <i name="e_fr_energy">     -1.04912464 </i>
    <i name="e_wo_entrp">     -1.04126730 </i>
    <i name="e_0_energy">     -1.04519597 </i>
   </energy>
  </scstep>
  <scstep>
   <time name="total">    1.33    1.33</time>
   <energy>
    <i name="e_fr_energy">     -1.04876494 </i>
    <i name="e_wo_entrp">     -1.00806185 </i>
    <i name="e_0_energy">     -1.02841340 </i>
   </energy>
  </scstep>
  <scstep>
   <time name="total">    1.33    1.33</time>
   <energy>
    <i name="e_fr_energy">     -1.06206866 </i>
    <i name="e_wo_entrp">     -1.05057113 </i>
    <i name="e_0_energy">     -1.05631989 </i>
   </energy>
  </scstep>
  <scstep>
   <time name="total">    1.33    1.33</time>
   <energy>
    <i name="e_fr_energy">     -1.06748015 </i>
    <i name="e_wo_entrp">     -1.02258126 </i>
    <i name="e_0_energy">     -1.04503071 </i>
   </energy>
  </scstep>
  <scstep>
   <time name="total">    1.36    1.37</time>
   <energy>
    <i name="e_fr_energy">     -1.03965770 </i>
    <i name="e_wo_entrp">     -1.03309691 </i>
    <i name="e_0_energy">     -1.03637731 </i>
   </energy>
  </scstep>
  <scstep>
   <time name="total">    1.32    1.32</time>
   <energy>
    <i name="e_fr_energy">     -1.04022359 </i>
    <i name="e_wo_entrp">     -0.99767289 </i>
    <i name="e_0_energy">     -1.01894824 </i>
   </energy>
  </scstep>
  <scstep>
   <time name="total">    1.33    1.33</time>
   <energy>
    <i name="e_fr_energy">     -1.06012456 </i>
    <i name="e_wo_entrp">     -1.04875919 </i>
    <i name="e_0_energy">     -1.05444187 </i>
   </energy>
  </scstep>
  <scstep>
   <time name="total">    1.33    1.33</time>
   <energy>
    <i name="e_fr_energy">     -1.06692587 </i>
    <i name="e_wo_entrp">     -1.02414086 </i>
    <i name="e_0_energy">     -1.04553337 </i>
   </energy>
  </scstep>
  <scstep>
   <time name="total">    1.33    1.33</time>
   <energy>
    <i name="e_fr_energy">     -1.04912905 </i>
    <i name="e_wo_entrp">     -1.04126521 </i>
    <i name="e_0_energy">     -1.04519713 </i>
   </energy>
  </scstep>
  <scstep>
   <time name="total">    1.33    1.33</time>
   <energy>
    <i name="e_fr_energy">     -1.04880870 </i>
    <i name="e_wo_entrp">     -1.00810552 </i>
    <i name="e_0_energy">     -1.02845711 </i>
   </energy>
  </scstep>
  <scstep>
   <time name="total">    1.33    1.33</time>
   <energy>
    <i name="e_fr_energy">     -1.06205995 </i>
    <i name="e_wo_entrp">     -1.05056795 </i>
    <i name="e_0_energy">     -1.05631395 </i>
   </energy>
  </scstep>
  <scstep>
   <time name="total">    1.32    1.32</time>
   <energy>
    <i name="e_fr_energy">     -1.06745897 </i>
    <i name="e_wo_entrp">     -1.02256174 </i>
    <i name="e_0_energy">     -1.04501035 </i>
   </energy>
  </scstep>
  <scstep>
   <time name="total">    1.33    1.33</time>
   <energy>
    <i name="e_fr_energy">     -1.03966695 </i>
    <i name="e_wo_entrp">     -1.03310387 </i>
    <i name="e_0_energy">     -1.03638541 </i>
   </energy>
  </scstep>
  <scstep>
   <time name="total">    1.33    1.33</time>
   <energy>
    <i name="e_fr_energy">     -1.04024345 </i>
    <i name="e_wo_entrp">     -0.99769212 </i>
    <i name="e_0_energy">     -1.01896779 </i>
   </energy>
  </scstep>
  <scstep>
   <time name="total">    1.33    1.33</time>
   <energy>
    <i name="e_fr_energy">     -1.06011729 </i>
    <i name="e_wo_entrp">     -1.04875535 </i>
    <i name="e_0_energy">     -1.05443632 </i>
   </energy>
  </scstep>
  <scstep>
   <time name="total">    1.33    1.33</time>
   <energy>
    <i name="e_fr_energy">     -1.06691434 </i>
    <i name="e_wo_entrp">     -1.02413089 </i>
    <i name="e_0_energy">     -1.04552261 </i>
   </energy>
  </scstep>
  <scstep>
   <time name="total">    1.33    1.33</time>
   <energy>
    <i name="e_fr_energy">     -1.04913878 </i>
    <i name="e_wo_entrp">     -1.04127301 </i>
    <i name="e_0_energy">     -1.04520589 </i>
   </energy>
  </scstep>
  <scstep>
   <time name="total">    1.33    1.33</time>
   <energy>
    <i name="e_fr_energy">     -1.04882514 </i>
    <i name="e_wo_entrp">     -1.00812292 </i>
    <i name="e_0_energy">     -1.02847403 </i>
   </energy>
  </scstep>
  <scstep>
   <time name="total">    1.33    1.33</time>
   <energy>
    <i name="e_fr_energy">     -1.06206250 </i>
    <i name="e_wo_entrp">     -1.05057143 </i>
    <i name="e_0_energy">     -1.05631696 </i>
   </energy>
  </scstep>
  <scstep>
   <time name="total">    1.33    1.33</time>
   <energy>
    <i name="e_fr_energy">     -1.06745844 </i>
    <i name="e_wo_entrp">     -1.02256259 </i>
    <i name="e_0_energy">     -1.04501051 </i>
   </energy>
  </scstep>
  <scstep>
   <time name="total">    1.33    1.33</time>
   <energy>
    <i name="e_fr_energy">     -1.03967606 </i>
    <i name="e_wo_entrp">     -1.03311194 </i>
    <i name="e_0_energy">     -1.03639400 </i>
   </energy>
  </scstep>
  <scstep>
   <time name="total">    1.33    1.33</time>
   <energy>
    <i name="e_fr_energy">     -1.04025365 </i>
    <i name="e_wo_entrp">     -0.99770245 </i>
    <i name="e_0_energy">     -1.01897805 </i>
   </energy>
  </scstep>
  <scstep>
   <time name="total">    1.35    1.35</time>
   <energy>
    <i name="e_fr_energy">     -1.06011393 </i>
    <i name="e_wo_entrp">     -1.04875375 </i>
    <i name="e_0_energy">     -1.05443384 </i>
   </energy>
  </scstep>
  <scstep>
   <time name="total">    1.33    1.33</time>
   <energy>
    <i name="e_fr_energy">     -1.06690712 </i>
    <i name="e_wo_entrp">     -1.02412371 </i>
    <i name="e_0_energy">     -1.04551541 </i>
   </energy>
  </scstep>
  <scstep>
   <time name="total">    1.33    1.33</time>
   <energy>
    <i name="e_fr_energy">     -1.04913407 </i>
    <i name="e_wo_entrp">     -1.04126877 </i>
    <i name="e_0_energy">     -1.04520142 </i>
   </energy>
  </scstep>
  <scstep>
   <time name="total">    1.33    1.33</time>
   <energy>
    <i name="e_fr_energy">     -1.04882297 </i>
    <i name="e_wo_entrp">     -1.00812139 </i>
    <i name="e_0_energy">     -1.02847218 </i>
   </energy>
  </scstep>
  <scstep>
   <time name="total">    1.33    1.33</time>
   <energy>
    <i name="e_fr_energy">     -1.06206088 </i>
    <i name="e_wo_entrp">     -1.05057037 </i>
    <i name="e_0_energy">     -1.05631563 </i>
   </energy>
  </scstep>
  <scstep>
   <time name="total">    1.36    1.36</time>
   <energy>
    <i name="e_fr_energy">     -1.06745049 </i>
    <i name="e_wo_entrp">     -1.02255075 </i>
    <i name="e_0_energy">     -1.04500062 </i>
   </energy>
  </scstep>
  <scstep>
   <time name="total">    1.33    1.33</time>
   <energy>
    <i name="e_fr_energy">     -1.03963499 </i>
    <i name="e_wo_entrp">     -1.03307578 </i>
    <i name="e_0_energy">     -1.03635539 </i>
   </energy>
  </scstep>
  <scstep>
   <time name="total">    1.33    1.33</time>
   <energy>
    <i name="e_fr_energy">     -1.04021561 </i>
    <i name="e_wo_entrp">     -0.99766740 </i>
    <i name="e_0_energy">     -1.01894151 </i>
   </energy>
  </scstep>
  <scstep>
   <time name="total">    1.33    1.33</time>
   <energy>
    <i name="e_fr_energy">     -1.06012798 </i>
    <i name="e_wo_entrp">     -1.04876261 </i>
    <i name="e_0_energy">     -1.05444529 </i>
   </energy>
  </scstep>
  <scstep>
   <time name="total">    1.33    1.33</time>
   <energy>
    <i name="e_fr_energy">     -1.06692079 </i>
    <i name="e_wo_entrp">     -1.02413162 </i>
    <i name="e_0_energy">     -1.04552621 </i>
   </energy>
  </scstep>
  <scstep>
   <time name="total">    1.32    1.32</time>
   <energy>
    <i name="e_fr_energy">     -1.04907670 </i>
    <i name="e_wo_entrp">     -1.04122106 </i>
    <i name="e_0_energy">     -1.04514888 </i>
   </energy>
  </scstep>
  <scstep>
   <time name="total">    1.32    1.32</time>
   <energy>
    <i name="e_fr_energy">     -1.04875323 </i>
    <i name="e_wo_entrp">     -1.00805278 </i>
    <i name="e_0_energy">     -1.02840300 </i>
   </energy>
  </scstep>
  <scstep>
   <time name="total">    1.33    1.33</time>
   <energy>
    <i name="e_fr_energy">     -1.06205607 </i>
    <i name="e_wo_entrp">     -1.05056239 </i>
    <i name="e_0_energy">     -1.05630923 </i>
   </energy>
  </scstep>
  <scstep>
   <time name="total">    1.33    1.33</time>
   <energy>
    <i name="e_fr_energy">     -1.06745154 </i>
    <i name="e_wo_entrp">     -1.02254535 </i>
    <i name="e_0_energy">     -1.04499845 </i>
   </energy>
  </scstep>
  <scstep>
   <time name="total">    1.33    1.33</time>
   <energy>
    <i name="e_fr_energy">     -1.03955770 </i>
    <i name="e_wo_entrp">     -1.03300872 </i>
    <i name="e_0_energy">     -1.03628321 </i>
   </energy>
  </scstep>
  <scstep>
   <time name="total">    1.34    1.34</time>
   <energy>
    <i name="e_fr_energy">     -1.04012631 </i>
    <i name="e_wo_entrp">     -0.99758114 </i>
    <i name="e_0_energy">     -1.01885372 </i>
   </energy>
  </scstep>
  <scstep>
   <time name="total">    1.33    1.33</time>
   <energy>
    <i name="e_fr_energy">     -1.06011907 </i>
    <i name="e_wo_entrp">     -1.04875078 </i>
    <i name="e_0_energy">     -1.05443493 </i>
   </energy>
  </scstep>
  <scstep>
   <time name="total">    1.33    1.33</time>
   <energy>
    <i name="e_fr_energy">     -1.06692156 </i>
    <i name="e_wo_entrp">     -1.02412607 </i>
    <i name="e_0_energy">     -1.04552382 </i>
   </energy>
  </scstep>
  <scstep>
   <time name="total">    1.33    1.33</time>
   <energy>
    <i name="e_fr_energy">     -1.04899365 </i>
    <i name="e_wo_entrp">     -1.04115104 </i>
    <i name="e_0_energy">     -1.04507234 </i>
   </energy>
  </scstep>
  <scstep>
   <time name="total">    1.32    1.32</time>
   <energy>
    <i name="e_fr_energy">     -1.04864549 </i>
    <i name="e_wo_entrp">     -1.00794080 </i>
    <i name="e_0_energy">     -1.02829315 </i>
   </energy>
  </scstep>
  <scstep>
   <time name="total">    1.33    1.33</time>
   <energy>
    <i name="e_fr_energy">     -1.06198324 </i>
    <i name="e_wo_entrp">     -1.05049976 </i>
    <i name="e_0_energy">     -1.05624150 </i>
   </energy>
  </scstep>
  <scstep>
   <time name="total">    1.33    1.33</time>
   <energy>
    <i name="e_fr_energy">     -1.06738797 </i>
    <i name="e_wo_entrp">     -1.02246708 </i>
    <i name="e_0_energy">     -1.04492752 </i>
   </energy>
  </scstep>
  <scstep>
   <time name="total">    1.33    1.33</time>
   <energy>
    <i name="e_fr_energy">     -1.03940199 </i>
    <i name="e_wo_entrp">     -1.03286965 </i>
    <i name="e_0_energy">     -1.03613582 </i>
   </energy>
  </scstep>
  <scstep>
   <time name="total">    1.33    1.33</time>
   <energy>
    <i name="e_fr_energy">     -1.03998148 </i>
    <i name="e_wo_entrp">     -0.99743539 </i>
    <i name="e_0_energy">     -1.01870843 </i>
   </energy>
  </scstep>
  <scstep>
   <time name="total">    1.33    1.33</time>
   <energy>
    <i name="e_fr_energy">     -1.06010424 </i>
    <i name="e_wo_entrp">     -1.04873125 </i>
    <i name="e_0_energy">     -1.05441775 </i>
   </energy>
  </scstep>
  <scstep>
   <time name="total">    1.33    1.33</time>
   <energy>
    <i name="e_fr_energy">     -1.06693471 </i>
    <i name="e_wo_entrp">     -1.02413224 </i>
    <i name="e_0_energy">     -1.04553348 </i>
   </energy>
  </scstep>
  <scstep>
   <time name="total">    1.33    1.33</time>
   <energy>
    <i name="e_fr_energy">     -1.04892299 </i>
    <i name="e_wo_entrp">     -1.04109251 </i>
    <i name="e_0_energy">     -1.04500775 </i>
   </energy>
  </scstep>
  <scstep>
   <time name="total">    1.34    1.34</time>
   <energy>
    <i name="e_fr_energy">     -1.04856840 </i>
    <i name="e_wo_entrp">     -1.00786819 </i>
    <i name="e_0_energy">     -1.02821829 </i>
   </energy>
  </scstep>
  <scstep>
   <time name="total">    1.36    1.37</time>
   <energy>
    <i name="e_fr_energy">     -1.06202345 </i>
    <i name="e_wo_entrp">     -1.05052572 </i>
    <i name="e_0_energy">     -1.05627459 </i>
   </energy>
  </scstep>
  <scstep>
   <time name="total">    1.33    1.33</time>
   <energy>
    <i name="e_fr_energy">     -1.06745670 </i>
    <i name="e_wo_entrp">     -1.02254300 </i>
    <i name="e_0_energy">     -1.04499985 </i>
   </energy>
  </scstep>
  <scstep>
   <time name="total">    1.32    1.32</time>
   <energy>
    <i name="e_fr_energy">     -1.03945633 </i>
    <i name="e_wo_entrp">     -1.03292139 </i>
    <i name="e_0_energy">     -1.03618886 </i>
   </energy>
  </scstep>
  <scstep>
   <time name="total">    1.33    1.33</time>
   <energy>
    <i name="e_fr_energy">     -1.04001471 </i>
    <i name="e_wo_entrp">     -0.99747672 </i>
    <i name="e_0_energy">     -1.01874572 </i>
   </energy>
  </scstep>
  <scstep>
   <time name="total">    1.32    1.32</time>
   <energy>
    <i name="e_fr_energy">     -1.06015238 </i>
    <i name="e_wo_entrp">     -1.04876993 </i>
    <i name="e_0_energy">     -1.05446115 </i>
   </energy>
  </scstep>
  <scstep>
   <time name="total">    1.33    1.33</time>
   <energy>
    <i name="e_fr_energy">     -1.06698470 </i>
    <i name="e_wo_entrp">     -1.02418951 </i>
    <i name="e_0_energy">     -1.04558710 </i>
   </energy>
  </scstep>
  <scstep>
   <time name="total">    1.34    1.34</time>
   <energy>
    <i name="e_fr_energy">     -1.04898089 </i>
    <i name="e_wo_entrp">     -1.04114451 </i>
    <i name="e_0_energy">     -1.04506270 </i>
   </energy>
  </scstep>
  <scstep>
   <time name="total">    1.32    1.32</time>
   <energy>
    <i name="e_fr_energy">     -1.04860864 </i>
    <i name="e_wo_entrp">     -1.00790727 </i>
    <i name="e_0_energy">     -1.02825795 </i>
   </energy>
  </scstep>
  <scstep>
   <time name="total">    1.33    1.33</time>
   <energy>
    <i name="e_fr_energy">     -1.06202022 </i>
    <i name="e_wo_entrp">     -1.05052547 </i>
    <i name="e_0_energy">     -1.05627285 </i>
   </energy>
  </scstep>
  <scstep>
   <time name="total">    1.34    1.34</time>
   <energy>
    <i name="e_fr_energy">     -1.06744460 </i>
    <i name="e_wo_entrp">     -1.02253378 </i>
    <i name="e_0_energy">     -1.04498919 </i>
   </energy>
  </scstep>
  <scstep>
   <time name="total">    1.34    1.34</time>
   <energy>
    <i name="e_fr_energy">     -1.03948402 </i>
    <i name="e_wo_entrp">     -1.03294468 </i>
    <i name="e_0_energy">     -1.03621435 </i>
   </energy>
  </scstep>
  <scstep>
   <time name="total">    1.33    1.33</time>
   <energy>
    <i name="e_fr_energy">     -1.04004869 </i>
    <i name="e_wo_entrp">     -0.99750873 </i>
    <i name="e_0_energy">     -1.01877871 </i>
   </energy>
  </scstep>
  <scstep>
   <time name="total">    1.33    1.33</time>
   <energy>
    <i name="e_fr_energy">     -1.06014249 </i>
    <i name="e_wo_entrp">     -1.04876425 </i>
    <i name="e_0_energy">     -1.05445337 </i>
   </energy>
  </scstep>
  <scstep>
   <time name="total">    1.32    1.32</time>
   <energy>
    <i name="e_fr_energy">     -1.06696663 </i>
    <i name="e_wo_entrp">     -1.02417218 </i>
    <i name="e_0_energy">     -1.04556941 </i>
   </energy>
  </scstep>
  <scstep>
   <time name="total">    1.32    1.32</time>
   <energy>
    <i name="e_fr_energy">     -1.04899136 </i>
    <i name="e_wo_entrp">     -1.04115214 </i>
    <i name="e_0_energy">     -1.04507175 </i>
   </energy>
  </scstep>
  <scstep>
   <time name="total">    1.32    1.32</time>
   <energy>
    <i name="e_fr_energy">     -1.04862922 </i>
    <i name="e_wo_entrp">     -1.00792798 </i>
    <i name="e_0_energy">     -1.02827860 </i>
   </energy>
  </scstep>
  <scstep>
   <time name="total">    1.33    1.33</time>
   <energy>
    <i name="e_fr_energy">     -1.06202442 </i>
    <i name="e_wo_entrp">     -1.05053007 </i>
    <i name="e_0_energy">     -1.05627724 </i>
   </energy>
  </scstep>
  <scstep>
   <time name="total">    1.33    1.33</time>
   <energy>
    <i name="e_fr_energy">     -1.06744443 </i>
    <i name="e_wo_entrp">     -1.02253454 </i>
    <i name="e_0_energy">     -1.04498949 </i>
   </energy>
  </scstep>
  <scstep>
   <time name="total">    1.33    1.33</time>
   <energy>
    <i name="e_fr_energy">     -1.03949549 </i>
    <i name="e_wo_entrp">     -1.03295459 </i>
    <i name="e_0_energy">     -1.03622504 </i>
   </energy>
  </scstep>
  <scstep>
   <time name="total">    1.32    1.32</time>
   <energy>
    <i name="e_fr_energy">     -1.04006158 </i>
    <i name="e_wo_entrp">     -0.99752116 </i>
    <i name="e_0_energy">     -1.01879137 </i>
   </energy>
  </scstep>
  <scstep>
   <time name="total">    1.32    1.32</time>
   <energy>
    <i name="e_fr_energy">     -1.06014141 </i>
    <i name="e_wo_entrp">     -1.04876418 </i>
    <i name="e_0_energy">     -1.05445280 </i>
   </energy>
  </scstep>
  <scstep>
   <time name="total">    1.33    1.33</time>
   <energy>
    <i name="e_fr_energy">     -1.06696294 </i>
    <i name="e_wo_entrp">     -1.02416894 </i>
    <i name="e_0_energy">     -1.04556594 </i>
   </energy>
  </scstep>
  <scstep>
   <time name="total">    1.33    1.33</time>
   <energy>
    <i name="e_fr_energy">     -1.04899728 </i>
    <i name="e_wo_entrp">     -1.04115690 </i>
    <i name="e_0_energy">     -1.04507709 </i>
   </energy>
  </scstep>
  <scstep>
   <time name="total">    1.33    1.34</time>
   <energy>
    <i name="e_fr_energy">     -1.04863797 </i>
    <i name="e_wo_entrp">     -1.00793681 </i>
    <i name="e_0_energy">     -1.02828739 </i>
   </energy>
  </scstep>
  <scstep>
   <time name="total">    1.33    1.33</time>
   <energy>
    <i name="e_fr_energy">     -1.06202638 </i>
    <i name="e_wo_entrp">     -1.05053216 </i>
    <i name="e_0_energy">     -1.05627927 </i>
   </energy>
  </scstep>
  <scstep>
   <time name="total">    1.33    1.33</time>
   <energy>
    <i name="e_fr_energy">     -1.06744467 </i>
    <i name="e_wo_entrp">     -1.02253520 </i>
    <i name="e_0_energy">     -1.04498993 </i>
   </energy>
  </scstep>
  <scstep>
   <time name="total">    1.32    1.32</time>
   <energy>
    <i name="e_fr_energy">     -1.03950063 </i>
    <i name="e_wo_entrp">     -1.03295906 </i>
    <i name="e_0_energy">     -1.03622985 </i>
   </energy>
  </scstep>
  <scstep>
   <time name="total">    1.33    1.33</time>
   <energy>
    <i name="e_fr_energy">     -1.04006723 </i>
    <i name="e_wo_entrp">     -0.99752661 </i>
    <i name="e_0_energy">     -1.01879692 </i>
   </energy>
  </scstep>
  <scstep>
   <time name="total">    1.33    1.34</time>
   <energy>
    <i name="e_fr_energy">     -1.06014097 </i>
    <i name="e_wo_entrp">     -1.04876418 </i>
    <i name="e_0_energy">     -1.05445257 </i>
   </energy>
  </scstep>
  <scstep>
   <time name="total">    1.33    1.33</time>
   <energy>
    <i name="e_fr_energy">     -1.06696138 </i>
    <i name="e_wo_entrp">     -1.02416758 </i>
    <i name="e_0_energy">     -1.04556448 </i>
   </energy>
  </scstep>
  <scstep>
   <time name="total">    1.32    1.33</time>
   <energy>
    <i name="e_fr_energy">     -1.04899996 </i>
    <i name="e_wo_entrp">     -1.04115907 </i>
    <i name="e_0_energy">     -1.04507951 </i>
   </energy>
  </scstep>
  <scstep>
   <time name="total">    1.33    1.33</time>
   <energy>
    <i name="e_fr_energy">     -1.04864188 </i>
    <i name="e_wo_entrp">     -1.00794077 </i>
    <i name="e_0_energy">     -1.02829132 </i>
   </energy>
  </scstep>
  <scstep>
   <time name="total">    1.33    1.33</time>
   <energy>
    <i name="e_fr_energy">     -1.06202726 </i>
    <i name="e_wo_entrp">     -1.05053310 </i>
    <i name="e_0_energy">     -1.05628018 </i>
   </energy>
  </scstep>
  <scstep>
   <time name="total">    1.34    1.34</time>
   <energy>
    <i name="e_fr_energy">     -1.06744479 </i>
    <i name="e_wo_entrp">     -1.02253550 </i>
    <i name="e_0_energy">     -1.04499014 </i>
   </energy>
  </scstep>
  <scstep>
   <time name="total">    1.33    1.33</time>
   <energy>
    <i name="e_fr_energy">     -1.03950287 </i>
    <i name="e_wo_entrp">     -1.03296101 </i>
    <i name="e_0_energy">     -1.03623194 </i>
   </energy>
  </scstep>
  <scstep>
   <time name="total">    1.33    1.33</time>
   <energy>
    <i name="e_fr_energy">     -1.04006972 </i>
    <i name="e_wo_entrp">     -0.99752901 </i>
    <i name="e_0_energy">     -1.01879936 </i>
   </energy>
  </scstep>
  <scstep>
   <time name="total">    1.33    1.33</time>
   <energy>
    <i name="e_fr_energy">     -1.06014081 </i>
    <i name="e_wo_entrp">     -1.04876421 </i>
    <i name="e_0_energy">     -1.05445251 </i>
   </energy>
  </scstep>
  <scstep>
   <time name="total">    1.32    1.32</time>
   <energy>
    <i name="e_fr_energy">     -1.06696074 </i>
    <i name="e_wo_entrp">     -1.02416704 </i>
    <i name="e_0_energy">     -1.04556389 </i>
   </energy>
  </scstep>
  <scstep>
   <time name="total">    1.33    1.33</time>
   <energy>
    <i name="e_fr_energy">     -1.04900119 </i>
    <i name="e_wo_entrp">     -1.04116006 </i>
    <i name="e_0_energy">     -1.04508063 </i>
   </energy>
  </scstep>
  <scstep>
   <time name="total">    1.33    1.33</time>
   <energy>
    <i name="e_fr_energy">     -1.04864364 </i>
    <i name="e_wo_entrp">     -1.00794255 </i>
    <i name="e_0_energy">     -1.02829310 </i>
   </energy>
  </scstep>
  <scstep>
   <time name="total">    1.33    1.33</time>
   <energy>
    <i name="e_fr_energy">     -1.06202768 </i>
    <i name="e_wo_entrp">     -1.05053354 </i>
    <i name="e_0_energy">     -1.05628061 </i>
   </energy>
  </scstep>
  <scstep>
   <time name="total">    1.33    1.33</time>
   <energy>
    <i name="e_fr_energy">     -1.06744488 </i>
    <i name="e_wo_entrp">     -1.02253567 </i>
    <i name="e_0_energy">     -1.04499027 </i>
   </energy>
  </scstep>
  <scstep>
   <time name="total">    1.33    1.33</time>
   <energy>
    <i name="e_fr_energy">     -1.03950389 </i>
    <i name="e_wo_entrp">     -1.03296191 </i>
    <i name="e_0_energy">     -1.03623290 </i>
   </energy>
  </scstep>
  <scstep>
   <time name="total">    1.33    1.33</time>
   <energy>
    <i name="e_fr_energy">     -1.04007084 </i>
    <i name="e_wo_entrp">     -0.99753010 </i>
    <i name="e_0_energy">     -1.01880047 </i>
   </energy>
  </scstep>
  <scstep>
   <time name="total">    1.33    1.33</time>
   <energy>
    <i name="e_fr_energy">     -1.06014076 </i>
    <i name="e_wo_entrp">     -1.04876424 </i>
    <i name="e_0_energy">     -1.05445250 </i>
   </energy>
  </scstep>
  <scstep>
   <time name="total">    1.36    1.36</time>
   <energy>
    <i name="e_fr_energy">     -1.06696047 </i>
    <i name="e_wo_entrp">     -1.02416683 </i>
    <i name="e_0_energy">     -1.04556365 </i>
   </energy>
  </scstep>
  <scstep>
   <time name="total">    1.35    1.35</time>
   <energy>
    <i name="e_fr_energy">     -1.04900178 </i>
    <i name="e_wo_entrp">     -1.04116054 </i>
    <i name="e_0_energy">     -1.04508116 </i>
   </energy>
  </scstep>
  <scstep>
   <time name="total">    1.33    1.33</time>
   <energy>
    <i name="e_fr_energy">     -1.04864446 </i>
    <i name="e_wo_entrp">     -1.00794339 </i>
    <i name="e_0_energy">     -1.02829393 </i>
   </energy>
  </scstep>
  <scstep>
   <time name="total">    1.33    1.33</time>
   <energy>
    <i name="e_fr_energy">     -1.06202788 </i>
    <i name="e_wo_entrp">     -1.05053375 </i>
    <i name="e_0_energy">     -1.05628082 </i>
   </energy>
  </scstep>
  <scstep>
   <time name="total">    1.33    1.33</time>
   <energy>
    <i name="e_fr_energy">     -1.06744493 </i>
    <i name="e_wo_entrp">     -1.02253575 </i>
    <i name="e_0_energy">     -1.04499034 </i>
   </energy>
  </scstep>
  <scstep>
   <time name="total">    1.32    1.32</time>
   <energy>
    <i name="e_fr_energy">     -1.03950437 </i>
    <i name="e_wo_entrp">     -1.03296233 </i>
    <i name="e_0_energy">     -1.03623335 </i>
   </energy>
  </scstep>
  <scstep>
   <time name="total">    1.33    1.33</time>
   <energy>
    <i name="e_fr_energy">     -1.04007137 </i>
    <i name="e_wo_entrp">     -0.99753062 </i>
    <i name="e_0_energy">     -1.01880100 </i>
   </energy>
  </scstep>
  <scstep>
   <time name="total">    1.33    1.33</time>
   <energy>
    <i name="e_fr_energy">     -1.06014074 </i>
    <i name="e_wo_entrp">     -1.04876426 </i>
    <i name="e_0_energy">     -1.05445250 </i>
   </energy>
  </scstep>
  <scstep>
   <time name="total">    1.32    1.32</time>
   <energy>
    <i name="e_fr_energy">     -1.06696036 </i>
    <i name="e_wo_entrp">     -1.02416674 </i>
    <i name="e_0_energy">     -1.04556355 </i>
   </energy>
  </scstep>
  <scstep>
   <time name="total">    1.32    1.32</time>
   <energy>
    <i name="e_fr_energy">     -1.04900207 </i>
    <i name="e_wo_entrp">     -1.04116079 </i>
    <i name="e_0_energy">     -1.04508143 </i>
   </energy>
  </scstep>
  <scstep>
   <time name="total">    1.33    1.33</time>
   <energy>
    <i name="e_fr_energy">     -1.04864487 </i>
    <i name="e_wo_entrp">     -1.00794381 </i>
    <i name="e_0_energy">     -1.02829434 </i>
   </energy>
  </scstep>
  <scstep>
   <time name="total">    1.32    1.32</time>
   <energy>
    <i name="e_fr_energy">     -1.06202798 </i>
    <i name="e_wo_entrp">     -1.05053386 </i>
    <i name="e_0_energy">     -1.05628092 </i>
   </energy>
  </scstep>
  <scstep>
   <time name="total">    1.33    1.33</time>
   <energy>
    <i name="e_fr_energy">     -1.06744496 </i>
    <i name="e_wo_entrp">     -1.02253580 </i>
    <i name="e_0_energy">     -1.04499038 </i>
   </energy>
  </scstep>
  <scstep>
   <time name="total">    1.33    1.33</time>
   <energy>
    <i name="e_fr_energy">     -1.03950462 </i>
    <i name="e_wo_entrp">     -1.03296255 </i>
    <i name="e_0_energy">     -1.03623359 </i>
   </energy>
  </scstep>
  <scstep>
   <time name="total">    1.33    1.33</time>
   <energy>
    <i name="e_fr_energy">     -1.04007164 </i>
    <i name="e_wo_entrp">     -0.99753088 </i>
    <i name="e_0_energy">     -1.01880126 </i>
   </energy>
  </scstep>
  <scstep>
   <time name="total">    1.33    1.33</time>
   <energy>
    <i name="e_fr_energy">     -1.06014073 </i>
    <i name="e_wo_entrp">     -1.04876427 </i>
    <i name="e_0_energy">     -1.05445250 </i>
   </energy>
  </scstep>
  <scstep>
   <time name="total">    1.33    1.33</time>
   <energy>
    <i name="e_fr_energy">     -1.06696030 </i>
    <i name="e_wo_entrp">     -1.02416669 </i>
    <i name="e_0_energy">     -1.04556350 </i>
   </energy>
  </scstep>
  <scstep>
   <time name="total">    1.33    1.33</time>
   <energy>
    <i name="e_fr_energy">     -1.04900223 </i>
    <i name="e_wo_entrp">     -1.04116092 </i>
    <i name="e_0_energy">     -1.04508157 </i>
   </energy>
  </scstep>
  <scstep>
   <time name="total">    1.32    1.32</time>
   <energy>
    <i name="e_fr_energy">     -1.04864508 </i>
    <i name="e_wo_entrp">     -1.00794402 </i>
    <i name="e_0_energy">     -1.02829455 </i>
   </energy>
  </scstep>
  <scstep>
   <time name="total">    1.33    1.33</time>
   <energy>
    <i name="e_fr_energy">     -1.06202804 </i>
    <i name="e_wo_entrp">     -1.05053392 </i>
    <i name="e_0_energy">     -1.05628098 </i>
   </energy>
  </scstep>
  <scstep>
   <time name="total">    1.34    1.34</time>
   <energy>
    <i name="e_fr_energy">     -1.06744497 </i>
    <i name="e_wo_entrp">     -1.02253583 </i>
    <i name="e_0_energy">     -1.04499040 </i>
   </energy>
  </scstep>
  <scstep>
   <time name="total">    1.33    1.33</time>
   <energy>
    <i name="e_fr_energy">     -1.03950476 </i>
    <i name="e_wo_entrp">     -1.03296267 </i>
    <i name="e_0_energy">     -1.03623371 </i>
   </energy>
  </scstep>
  <scstep>
   <time name="total">    1.34    1.34</time>
   <energy>
    <i name="e_fr_energy">     -1.04007179 </i>
    <i name="e_wo_entrp">     -0.99753103 </i>
    <i name="e_0_energy">     -1.01880141 </i>
   </energy>
  </scstep>
  <scstep>
   <time name="total">    1.33    1.33</time>
   <energy>
    <i name="e_fr_energy">     -1.06014073 </i>
    <i name="e_wo_entrp">     -1.04876428 </i>
    <i name="e_0_energy">     -1.05445250 </i>
   </energy>
  </scstep>
  <scstep>
   <time name="total">    1.33    1.33</time>
   <energy>
    <i name="e_fr_energy">     -1.06696027 </i>
    <i name="e_wo_entrp">     -1.02416667 </i>
    <i name="e_0_energy">     -1.04556347 </i>
   </energy>
  </scstep>
  <scstep>
   <time name="total">    1.33    1.33</time>
   <energy>
    <i name="e_fr_energy">     -1.04900231 </i>
    <i name="e_wo_entrp">     -1.04116099 </i>
    <i name="e_0_energy">     -1.04508165 </i>
   </energy>
  </scstep>
  <scstep>
   <time name="total">    1.33    1.33</time>
   <energy>
    <i name="e_fr_energy">     -1.04864520 </i>
    <i name="e_wo_entrp">     -1.00794415 </i>
    <i name="e_0_energy">     -1.02829467 </i>
   </energy>
  </scstep>
  <scstep>
   <time name="total">    1.33    1.33</time>
   <energy>
    <i name="e_fr_energy">     -1.06202807 </i>
    <i name="e_wo_entrp">     -1.05053395 </i>
    <i name="e_0_energy">     -1.05628101 </i>
   </energy>
  </scstep>
  <scstep>
   <time name="total">    1.33    1.33</time>
   <energy>
    <i name="e_fr_energy">     -1.06744498 </i>
    <i name="e_wo_entrp">     -1.02253585 </i>
    <i name="e_0_energy">     -1.04499042 </i>
   </energy>
  </scstep>
  <scstep>
   <time name="total">    1.33    1.33</time>
   <energy>
    <i name="e_fr_energy">     -1.03950484 </i>
    <i name="e_wo_entrp">     -1.03296274 </i>
    <i name="e_0_energy">     -1.03623379 </i>
   </energy>
  </scstep>
  <scstep>
   <time name="total">    1.33    1.33</time>
   <energy>
    <i name="e_fr_energy">     -1.04007187 </i>
    <i name="e_wo_entrp">     -0.99753111 </i>
    <i name="e_0_energy">     -1.01880149 </i>
   </energy>
  </scstep>
  <scstep>
   <time name="total">    1.33    1.33</time>
   <energy>
    <i name="e_fr_energy">     -1.06014073 </i>
    <i name="e_wo_entrp">     -1.04876428 </i>
    <i name="e_0_energy">     -1.05445250 </i>
   </energy>
  </scstep>
  <scstep>
   <time name="total">    1.33    1.33</time>
   <energy>
    <i name="e_fr_energy">     -1.06696025 </i>
    <i name="e_wo_entrp">     -1.02416666 </i>
    <i name="e_0_energy">     -1.04556346 </i>
   </energy>
  </scstep>
  <scstep>
   <time name="total">    1.33    1.33</time>
   <energy>
    <i name="e_fr_energy">     -1.04900237 </i>
    <i name="e_wo_entrp">     -1.04116103 </i>
    <i name="e_0_energy">     -1.04508170 </i>
   </energy>
  </scstep>
  <scstep>
   <time name="total">    1.33    1.33</time>
   <energy>
    <i name="e_fr_energy">     -1.04864527 </i>
    <i name="e_wo_entrp">     -1.00794422 </i>
    <i name="e_0_energy">     -1.02829475 </i>
   </energy>
  </scstep>
  <scstep>
   <time name="total">    1.33    1.33</time>
   <energy>
    <i name="e_fr_energy">     -1.06202809 </i>
    <i name="e_wo_entrp">     -1.05053397 </i>
    <i name="e_0_energy">     -1.05628103 </i>
   </energy>
  </scstep>
  <scstep>
   <time name="total">    1.32    1.32</time>
   <energy>
    <i name="e_fr_energy">     -1.06744499 </i>
    <i name="e_wo_entrp">     -1.02253586 </i>
    <i name="e_0_energy">     -1.04499043 </i>
   </energy>
  </scstep>
  <scstep>
   <time name="total">    1.33    1.33</time>
   <energy>
    <i name="e_fr_energy">     -1.03950489 </i>
    <i name="e_wo_entrp">     -1.03296278 </i>
    <i name="e_0_energy">     -1.03623384 </i>
   </energy>
  </scstep>
  <scstep>
   <time name="total">    1.33    1.33</time>
   <energy>
    <i name="e_fr_energy">     -1.04007193 </i>
    <i name="e_wo_entrp">     -0.99753116 </i>
    <i name="e_0_energy">     -1.01880155 </i>
   </energy>
  </scstep>
  <scstep>
   <time name="total">    1.33    1.33</time>
   <energy>
    <i name="e_fr_energy">     -1.06014072 </i>
    <i name="e_wo_entrp">     -1.04876428 </i>
    <i name="e_0_energy">     -1.05445250 </i>
   </energy>
  </scstep>
  <scstep>
   <time name="total">    1.33    1.33</time>
   <energy>
    <i name="e_fr_energy">     -1.06696024 </i>
    <i name="e_wo_entrp">     -1.02416665 </i>
    <i name="e_0_energy">     -1.04556345 </i>
   </energy>
  </scstep>
  <scstep>
   <time name="total">    1.33    1.33</time>
   <energy>
    <i name="e_fr_energy">     -1.04900240 </i>
    <i name="e_wo_entrp">     -1.04116106 </i>
    <i name="e_0_energy">     -1.04508173 </i>
   </energy>
  </scstep>
  <scstep>
   <time name="total">    1.33    1.33</time>
   <energy>
    <i name="e_fr_energy">     -1.04864532 </i>
    <i name="e_wo_entrp">     -1.00794427 </i>
    <i name="e_0_energy">     -1.02829479 </i>
   </energy>
  </scstep>
  <scstep>
   <time name="total">    1.33    1.33</time>
   <energy>
    <i name="e_fr_energy">     -1.06202810 </i>
    <i name="e_wo_entrp">     -1.05053398 </i>
    <i name="e_0_energy">     -1.05628104 </i>
   </energy>
  </scstep>
  <scstep>
   <time name="total">    1.33    1.33</time>
   <energy>
    <i name="e_fr_energy">     -1.06744499 </i>
    <i name="e_wo_entrp">     -1.02253587 </i>
    <i name="e_0_energy">     -1.04499043 </i>
   </energy>
  </scstep>
  <scstep>
   <time name="total">    1.32    1.32</time>
   <energy>
    <i name="e_fr_energy">     -1.03950492 </i>
    <i name="e_wo_entrp">     -1.03296281 </i>
    <i name="e_0_energy">     -1.03623387 </i>
   </energy>
  </scstep>
  <scstep>
   <time name="total">    1.34    1.34</time>
   <energy>
    <i name="e_fr_energy">     -1.04007196 </i>
    <i name="e_wo_entrp">     -0.99753120 </i>
    <i name="e_0_energy">     -1.01880158 </i>
   </energy>
  </scstep>
  <scstep>
   <time name="total">    1.34    1.34</time>
   <energy>
    <i name="e_fr_energy">     -1.06014072 </i>
    <i name="e_wo_entrp">     -1.04876428 </i>
    <i name="e_0_energy">     -1.05445250 </i>
   </energy>
  </scstep>
  <scstep>
   <time name="total">    1.34    1.34</time>
   <energy>
    <i name="e_fr_energy">     -1.06696023 </i>
    <i name="e_wo_entrp">     -1.02416665 </i>
    <i name="e_0_energy">     -1.04556344 </i>
   </energy>
  </scstep>
  <scstep>
   <time name="total">    1.32    1.32</time>
   <energy>
    <i name="e_fr_energy">     -1.04900242 </i>
    <i name="e_wo_entrp">     -1.04116108 </i>
    <i name="e_0_energy">     -1.04508175 </i>
   </energy>
  </scstep>
  <scstep>
   <time name="total">    1.33    1.33</time>
   <energy>
    <i name="e_fr_energy">     -1.04864535 </i>
    <i name="e_wo_entrp">     -1.00794430 </i>
    <i name="e_0_energy">     -1.02829482 </i>
   </energy>
  </scstep>
  <scstep>
   <time name="total">    1.33    1.33</time>
   <energy>
    <i name="e_fr_energy">     -1.06202811 </i>
    <i name="e_wo_entrp">     -1.05053399 </i>
    <i name="e_0_energy">     -1.05628105 </i>
   </energy>
  </scstep>
  <scstep>
   <time name="total">    1.32    1.32</time>
   <energy>
    <i name="e_fr_energy">     -1.06744500 </i>
    <i name="e_wo_entrp">     -1.02253588 </i>
    <i name="e_0_energy">     -1.04499044 </i>
   </energy>
  </scstep>
  <scstep>
   <time name="total">    1.32    1.32</time>
   <energy>
    <i name="e_fr_energy">     -1.03950495 </i>
    <i name="e_wo_entrp">     -1.03296284 </i>
    <i name="e_0_energy">     -1.03623389 </i>
   </energy>
  </scstep>
  <scstep>
   <time name="total">    1.33    1.33</time>
   <energy>
    <i name="e_fr_energy">     -1.04007199 </i>
    <i name="e_wo_entrp">     -0.99753122 </i>
    <i name="e_0_energy">     -1.01880161 </i>
   </energy>
  </scstep>
  <scstep>
   <time name="total">    1.33    1.33</time>
   <energy>
    <i name="e_fr_energy">     -1.06014072 </i>
    <i name="e_wo_entrp">     -1.04876428 </i>
    <i name="e_0_energy">     -1.05445250 </i>
   </energy>
  </scstep>
  <scstep>
   <time name="total">    1.33    1.33</time>
   <energy>
    <i name="e_fr_energy">     -1.06696023 </i>
    <i name="e_wo_entrp">     -1.02416664 </i>
    <i name="e_0_energy">     -1.04556344 </i>
   </energy>
  </scstep>
  <scstep>
   <time name="total">    1.32    1.32</time>
   <energy>
    <i name="e_fr_energy">     -1.04900244 </i>
    <i name="e_wo_entrp">     -1.04116109 </i>
    <i name="e_0_energy">     -1.04508177 </i>
   </energy>
  </scstep>
  <scstep>
   <time name="total">    1.32    1.32</time>
   <energy>
    <i name="e_fr_energy">     -1.04864537 </i>
    <i name="e_wo_entrp">     -1.00794432 </i>
    <i name="e_0_energy">     -1.02829484 </i>
   </energy>
  </scstep>
  <scstep>
   <time name="total">    1.33    1.33</time>
   <energy>
    <i name="e_fr_energy">     -1.06202811 </i>
    <i name="e_wo_entrp">     -1.05053400 </i>
    <i name="e_0_energy">     -1.05628106 </i>
   </energy>
  </scstep>
  <scstep>
   <time name="total">    1.33    1.33</time>
   <energy>
    <i name="e_fr_energy">     -1.06744500 </i>
    <i name="e_wo_entrp">     -1.02253588 </i>
    <i name="e_0_energy">     -1.04499044 </i>
   </energy>
  </scstep>
  <scstep>
   <time name="total">    1.33    1.33</time>
   <energy>
    <i name="e_fr_energy">     -1.03950497 </i>
    <i name="e_wo_entrp">     -1.03296285 </i>
    <i name="e_0_energy">     -1.03623391 </i>
   </energy>
  </scstep>
  <scstep>
   <time name="total">    1.33    1.33</time>
   <energy>
    <i name="e_fr_energy">     -1.04007201 </i>
    <i name="e_wo_entrp">     -0.99753124 </i>
    <i name="e_0_energy">     -1.01880162 </i>
   </energy>
  </scstep>
  <scstep>
   <time name="total">    1.33    1.33</time>
   <energy>
    <i name="e_fr_energy">     -1.06014072 </i>
    <i name="e_wo_entrp">     -1.04876429 </i>
    <i name="e_0_energy">     -1.05445250 </i>
   </energy>
[...]
        <r>     4.5296     0.0000     0.0000     0.0000     0.0000     0.0000     0.0000     0.0000     0.0000     0.0000     0.0000     0.0000     0.0000     0.0000     0.0000     0.0000     0.0000 </r>
        <r>     4.7097     0.0000     0.0000     0.0000     0.0000     0.0000     0.0000     0.0000     0.0000     0.0000     0.0000     0.0000     0.0000     0.0000     0.0000     0.0000     0.0000 </r>
        <r>     4.8899     0.0000     0.0000     0.0000     0.0000     0.0000     0.0000     0.0000     0.0000     0.0000     0.0000     0.0000     0.0000     0.0000     0.0000     0.0000     0.0000 </r>
        <r>     5.0700     0.0000     0.0000     0.0000     0.0000     0.0000     0.0000     0.0000     0.0000     0.0000     0.0000     0.0000     0.0000     0.0000     0.0000     0.0000     0.0000 </r>
        <r>     5.2501     0.0000     0.0000     0.0000     0.0000     0.0000     0.0000     0.0000     0.0000     0.0000     0.0000     0.0000     0.0000     0.0000     0.0000     0.0000     0.0000 </r>
        <r>     5.4303     0.0000     0.0000     0.0000     0.0000     0.0000     0.0000     0.0000     0.0000     0.0000     0.0000     0.0000     0.0000     0.0000     0.0000     0.0000     0.0000 </r>
        <r>     5.6104     0.0000     0.0000     0.0000     0.0000     0.0000     0.0000     0.0000     0.0000     0.0000     0.0000     0.0000     0.0000     0.0000     0.0000     0.0000     0.0000 </r>
        <r>     5.7905     0.0000     0.0000     0.0000     0.0000     0.0000     0.0000     0.0000     0.0000     0.0000     0.0000     0.0000     0.0000     0.0000     0.0000     0.0000     0.0000 </r>
       </set>
      </set>
     </set>
    </array>
   </partial>
  </dos>
  <projected>
   <eigenvalues>
    <array>
     <dimension dim="1">band</dimension>
     <dimension dim="2">kpoint</dimension>
     <dimension dim="3">spin</dimension>
     <field>eigene</field>
     <field>occ</field>
     <set>
      <set comment="spin 1">
       <set comment="kpoint 1">
        <r>  -45.7915    1.0000 </r>
        <r>  -23.3648    1.0000 </r>
        <r>  -23.3648    1.0000 </r>
        <r>  -23.3648    1.0000 </r>
        <r>   -4.2577    1.0000 </r>
        <r>   -3.8085    0.7912 </r>
        <r>   -3.8085    0.7912 </r>
        <r>   -3.8085    0.7912 </r>
        <r>   -3.7512    0.2087 </r>
        <r>   -3.7512    0.2087 </r>
        <r>   -3.7512    0.2087 </r>
        <r>   -3.6553    0.0002 </r>
        <r>   -3.4016    0.0000 </r>
        <r>   -3.4016    0.0000 </r>
        <r>   -2.8703    0.0000 </r>
        <r>   -2.8703    0.0000 </r>
        <r>   -2.8703    0.0000 </r>
        <r>   -0.8542    0.0000 </r>
        <r>   -0.8542    0.0000 </r>
        <r>   -0.8542    0.0000 </r>
        <r>   -0.0930    0.0000 </r>
        <r>    0.8348    0.0000 </r>
        <r>    0.8348    0.0000 </r>
        <r>    1.7055    0.0000 </r>
        <r>    1.7055    0.0000 </r>
        <r>    1.7055    0.0000 </r>
        <r>    1.9528    0.0000 </r>
        <r>    2.1963    0.0000 </r>
        <r>    2.1963    0.0000 </r>
        <r>    2.1963    0.0000 </r>
        <r>    2.2408    0.0000 </r>
        <r>    2.2408    0.0000 </r>
        <r>    2.2408    0.0000 </r>
        <r>    2.4851    0.0000 </r>
        <r>    2.4851    0.0000 </r>
        <r>    3.3342    0.0000 </r>
       </set>
      </set>
      <set comment="spin 2">
       <set comment="kpoint 1">
        <r>  -45.4537    1.0000 </r>
        <r>  -22.7722    1.0000 </r>
        <r>  -22.7722    1.0000 </r>
        <r>  -22.7722    1.0000 </r>
        <r>   -3.5968    0.0000 </r>
        <r>   -3.6477    0.0001 </r>
        <r>   -3.4428    0.0000 </r>
        <r>   -3.4428    0.0000 </r>
        <r>   -3.4428    0.0000 </r>
        <r>   -3.2581    0.0000 </r>
        <r>   -3.2581    0.0000 </r>
        <r>   -3.2581    0.0000 </r>
        <r>   -2.4474    0.0000 </r>
        <r>   -2.4474    0.0000 </r>
        <r>   -2.4474    0.0000 </r>
        <r>   -2.0222    0.0000 </r>
        <r>   -2.0222    0.0000 </r>
        <r>   -0.4718    0.0000 </r>
        <r>   -0.4718    0.0000 </r>
        <r>   -0.4718    0.0000 </r>
        <r>   -0.0029    0.0000 </r>
        <r>    1.0410    0.0000 </r>
        <r>    1.0410    0.0000 </r>
        <r>    1.8213    0.0000 </r>
        <r>    1.8213    0.0000 </r>
        <r>    1.8213    0.0000 </r>
        <r>    2.0309    0.0000 </r>
        <r>    2.2945    0.0000 </r>
        <r>    2.2945    0.0000 </r>
        <r>    2.2945    0.0000 </r>
        <r>    2.3118    0.0000 </r>
        <r>    2.3118    0.0000 </r>
        <r>    2.3118    0.0000 </r>
        <r>    2.5981    0.0000 </r>
        <r>    2.5981    0.0000 </r>
        <r>    3.3275    0.0000 </r>
       </set>
      </set>
     </set>
    </array>
   </eigenvalues>
   <array>
    <dimension dim="1">ion</dimension>
    <dimension dim="2">band</dimension>
    <dimension dim="3">kpoint</dimension>
    <dimension dim="4">spin</dimension>
    <field>    s</field>
    <field>   py</field>
    <field>   pz</field>
    <field>   px</field>
    <field>  dxy</field>
    <field>  dyz</field>
    <field>  dz2</field>
    <field>  dxz</field>
    <field>x2-y2</field>
    <field>fy3x2</field>
    <field> fxyz</field>
    <field> fyz2</field>
    <field>  fz3</field>
    <field> fxz2</field>
    <field> fzx2</field>
    <field>  fx3</field>
    <set>
     <set comment="spin1">
      <set comment="kpoint 1">
       <set comment="band 1">
        <r>  0.9847  0.0000  0.0000  0.0000  0.0000  0.0000  0.0000  0.0000  0.0000  0.0000  0.0000  0.0000  0.0000  0.0000  0.0000  0.0000 </r>
       </set>
       <set comment="band 2">
        <r>  0.0000  0.9072  0.0000  0.0284  0.0000  0.0000  0.0000  0.0000  0.0000  0.0000  0.0000  0.0000  0.0000  0.0000  0.0000  0.0000 </r>
       </set>
       <set comment="band 3">
        <r>  0.0000  0.0284  0.0000  0.9072  0.0000  0.0000  0.0000  0.0000  0.0000  0.0000  0.0000  0.0000  0.0000  0.0000  0.0000  0.0000 </r>
       </set>
       <set comment="band 4">
        <r>  0.0000  0.0000  0.9357  0.0000  0.0000  0.0000  0.0000  0.0000  0.0000  0.0000  0.0000  0.0000  0.0001  0.0000  0.0000  0.0000 </r>
       </set>
       <set comment="band 5">
        <r>  0.1984  0.0000  0.0000  0.0000  0.0000  0.0000  0.0000  0.0000  0.0000  0.0000  0.0000  0.0000  0.0000  0.0000  0.0000  0.0000 </r>
       </set>
       <set comment="band 6">
        <r>  0.0000  0.0000  0.0004  0.0000  0.0000  0.0000  0.0000  0.0000  0.0000  0.0000  0.0000  0.0000  0.9171  0.0000  0.0000  0.0000 </r>
       </set>
       <set comment="band 7">
        <r>  0.0000  0.0002  0.0000  0.0001  0.0000  0.0000  0.0000  0.0000  0.0000  0.3571  0.0000  0.2143  0.0000  0.1297  0.0000  0.2161 </r>
       </set>
       <set comment="band 8">
        <r>  0.0000  0.0001  0.0000  0.0002  0.0000  0.0000  0.0000  0.0000  0.0000  0.2161  0.0000  0.1297  0.0000  0.2143  0.0000  0.3571 </r>
       </set>
       <set comment="band 9">
        <r>  0.0000  0.0000  0.0000  0.0000  0.0000  0.0000  0.0000  0.0000  0.0000  0.3439  0.0000  0.5733  0.0000  0.0018  0.0000  0.0011 </r>
       </set>
       <set comment="band 10">
        <r>  0.0000  0.0000  0.0000  0.0000  0.0000  0.0000  0.0000  0.0000  0.0000  0.0011  0.0000  0.0018  0.0000  0.5733  0.0000  0.3439 </r>
       </set>
       <set comment="band 11">
        <r>  0.0000  0.0000  0.0000  0.0000  0.0000  0.0000  0.0000  0.0000  0.0000  0.0000  0.0000  0.0000  0.0000  0.0000  0.9201  0.0000 </r>
       </set>
       <set comment="band 12">
        <r>  0.0000  0.0000  0.0000  0.0000  0.0000  0.0000  0.0000  0.0000  0.0000  0.0000  0.9241  0.0000  0.0000  0.0000  0.0000  0.0000 </r>
       </set>
       <set comment="band 13">
        <r>  0.0000  0.0000  0.0000  0.0000  0.0000  0.0000  0.0000  0.0000  0.4973  0.0000  0.0000  0.0000  0.0000  0.0000  0.0000  0.0000 </r>
       </set>
       <set comment="band 14">
        <r>  0.0000  0.0000  0.0000  0.0000  0.0000  0.0000  0.4973  0.0000  0.0000  0.0000  0.0000  0.0000  0.0000  0.0000  0.0000  0.0000 </r>
       </set>
       <set comment="band 15">
        <r>  0.0000  0.0000  0.0000  0.0000  0.4957  0.0000  0.0000  0.0000  0.0000  0.0000  0.0000  0.0000  0.0000  0.0000  0.0000  0.0000 </r>
       </set>
       <set comment="band 16">
        <r>  0.0000  0.0000  0.0000  0.0000  0.0000  0.4867  0.0000  0.0090  0.0000  0.0000  0.0000  0.0000  0.0000  0.0000  0.0000  0.0000 </r>
       </set>
       <set comment="band 17">
        <r>  0.0000  0.0000  0.0000  0.0000  0.0000  0.0090  0.0000  0.4867  0.0000  0.0000  0.0000  0.0000  0.0000  0.0000  0.0000  0.0000 </r>
       </set>
       <set comment="band 18">
        <r>  0.0000  0.0000  0.0706  0.0000  0.0000  0.0000  0.0000  0.0000  0.0000  0.0000  0.0000  0.0000  0.0008  0.0000  0.0000  0.0000 </r>
       </set>
       <set comment="band 19">
        <r>  0.0000  0.0404  0.0000  0.0302  0.0000  0.0000  0.0000  0.0000  0.0000  0.0003  0.0000  0.0002  0.0000  0.0001  0.0000  0.0002 </r>
       </set>
       <set comment="band 20">
        <r>  0.0000  0.0302  0.0000  0.0404  0.0000  0.0000  0.0000  0.0000  0.0000  0.0002  0.0000  0.0001  0.0000  0.0002  0.0000  0.0003 </r>
       </set>
       <set comment="band 21">
        <r>  0.0370  0.0000  0.0000  0.0000  0.0000  0.0000  0.0000  0.0000  0.0000  0.0000  0.0000  0.0000  0.0000  0.0000  0.0000  0.0000 </r>
       </set>
       <set comment="band 22">
        <r>  0.0000  0.0000  0.0000  0.0000  0.0000  0.0000  0.0000  0.0000  0.0474  0.0000  0.0000  0.0000  0.0000  0.0000  0.0000  0.0000 </r>
       </set>
       <set comment="band 23">
        <r>  0.0000  0.0000  0.0000  0.0000  0.0000  0.0000  0.0474  0.0000  0.0000  0.0000  0.0000  0.0000  0.0000  0.0000  0.0000  0.0000 </r>
       </set>
       <set comment="band 24">
        <r>  0.0000  0.0207  0.0000  0.0000  0.0000  0.0000  0.0000  0.0000  0.0000  0.0022  0.0000  0.0013  0.0000  0.0000  0.0000  0.0000 </r>
       </set>
       <set comment="band 25">
        <r>  0.0000  0.0000  0.0000  0.0207  0.0000  0.0000  0.0000  0.0000  0.0000  0.0000  0.0000  0.0000  0.0000  0.0013  0.0000  0.0022 </r>
       </set>
       <set comment="band 26">
        <r>  0.0000  0.0000  0.0207  0.0000  0.0000  0.0000  0.0000  0.0000  0.0000  0.0000  0.0000  0.0000  0.0035  0.0000  0.0000  0.0000 </r>
       </set>
       <set comment="band 27">
        <r>  0.0333  0.0000  0.0000  0.0000  0.0000  0.0000  0.0000  0.0000  0.0000  0.0000  0.0000  0.0000  0.0000  0.0000  0.0000  0.0000 </r>
       </set>
       <set comment="band 28">
        <r>  0.0000  0.0000  0.0000  0.0000  0.0000  0.0000  0.0000  0.0000  0.0000  0.0000  0.0000  0.0000  0.0000  0.0000  0.0067  0.0000 </r>
       </set>
       <set comment="band 29">
        <r>  0.0000  0.0000  0.0000  0.0000  0.0000  0.0000  0.0000  0.0000  0.0000  0.0006  0.0000  0.0010  0.0000  0.0032  0.0000  0.0019 </r>
       </set>
       <set comment="band 30">
        <r>  0.0000  0.0000  0.0000  0.0000  0.0000  0.0000  0.0000  0.0000  0.0000  0.0019  0.0000  0.0032  0.0000  0.0010  0.0000  0.0006 </r>
       </set>
       <set comment="band 31">
        <r>  0.0000  0.0000  0.0000  0.0000  0.0000  0.0678  0.0000  0.0062  0.0000  0.0000  0.0000  0.0000  0.0000  0.0000  0.0000  0.0000 </r>
       </set>
       <set comment="band 32">
        <r>  0.0000  0.0000  0.0000  0.0000  0.0000  0.0062  0.0000  0.0678  0.0000  0.0000  0.0000  0.0000  0.0000  0.0000  0.0000  0.0000 </r>
       </set>
       <set comment="band 33">
        <r>  0.0000  0.0000  0.0000  0.0000  0.0740  0.0000  0.0000  0.0000  0.0000  0.0000  0.0000  0.0000  0.0000  0.0000  0.0000  0.0000 </r>
       </set>
       <set comment="band 34">
        <r>  0.0000  0.0000  0.0000  0.0000  0.0000  0.0000  0.0000  0.0000  0.0160  0.0000  0.0000  0.0000  0.0000  0.0000  0.0000  0.0000 </r>
       </set>
       <set comment="band 35">
        <r>  0.0000  0.0000  0.0000  0.0000  0.0000  0.0000  0.0160  0.0000  0.0000  0.0000  0.0000  0.0000  0.0000  0.0000  0.0000  0.0000 </r>
       </set>
       <set comment="band 36">
        <r>  0.0000  0.0000  0.0000  0.0000  0.0000  0.0000  0.0000  0.0000  0.0000  0.0000  0.0136  0.0000  0.0000  0.0000  0.0000  0.0000 </r>
       </set>
      </set>
     </set>
     <set comment="spin2">
      <set comment="kpoint 1">
       <set comment="band 1">
        <r>  0.9839  0.0000  0.0000  0.0000  0.0000  0.0000  0.0000  0.0000  0.0000  0.0000  0.0000  0.0000  0.0000  0.0000  0.0000  0.0000 </r>
       </set>
       <set comment="band 2">
        <r>  0.0000  0.0000  0.9353  0.0000  0.0000  0.0000  0.0000  0.0000  0.0000  0.0000  0.0000  0.0000  0.0002  0.0000  0.0000  0.0000 </r>
       </set>
       <set comment="band 3">
        <r>  0.0000  0.7683  0.0000  0.1670  0.0000  0.0000  0.0000  0.0000  0.0000  0.0001  0.0000  0.0000  0.0000  0.0000  0.0000  0.0000 </r>
       </set>
       <set comment="band 4">
        <r>  0.0000  0.1670  0.0000  0.7683  0.0000  0.0000  0.0000  0.0000  0.0000  0.0000  0.0000  0.0000  0.0000  0.0000  0.0000  0.0001 </r>
       </set>
       <set comment="band 5">
        <r>  0.1837  0.0000  0.0000  0.0000  0.0000  0.0000  0.0000  0.0000  0.0000  0.0000  0.0000  0.0000  0.0000  0.0000  0.0000  0.0000 </r>
       </set>
       <set comment="band 6">
        <r>  0.0000  0.0000  0.0000  0.0000  0.0000  0.0000  0.0000  0.0000  0.0000  0.0000  0.9230  0.0000  0.0000  0.0000  0.0000  0.0000 </r>
       </set>
       <set comment="band 7">
        <r>  0.0000  0.0000  0.0000  0.0000  0.0000  0.0000  0.0000  0.0000  0.0000  0.0000  0.0000  0.0000  0.0000  0.0000  0.9229  0.0000 </r>
       </set>
       <set comment="band 8">
        <r>  0.0000  0.0000  0.0000  0.0000  0.0000  0.0000  0.0000  0.0000  0.0000  0.2532  0.0000  0.4219  0.0000  0.1549  0.0000  0.0929 </r>
       </set>
       <set comment="band 9">
        <r>  0.0000  0.0000  0.0000  0.0000  0.0000  0.0000  0.0000  0.0000  0.0000  0.0929  0.0000  0.1549  0.0000  0.4219  0.0000  0.2532 </r>
       </set>
       <set comment="band 10">
        <r>  0.0000  0.0001  0.0000  0.0000  0.0000  0.0000  0.0000  0.0000  0.0000  0.5544  0.0000  0.3327  0.0000  0.0133  0.0000  0.0222 </r>
       </set>
       <set comment="band 11">
        <r>  0.0000  0.0000  0.0000  0.0001  0.0000  0.0000  0.0000  0.0000  0.0000  0.0222  0.0000  0.0133  0.0000  0.3327  0.0000  0.5544 </r>
       </set>
       <set comment="band 12">
        <r>  0.0000  0.0000  0.0002  0.0000  0.0000  0.0000  0.0000  0.0000  0.0000  0.0000  0.0000  0.0000  0.9226  0.0000  0.0000  0.0000 </r>
       </set>
       <set comment="band 13">
        <r>  0.0000  0.0000  0.0000  0.0000  0.0000  0.2010  0.0000  0.2813  0.0000  0.0000  0.0000  0.0000  0.0000  0.0000  0.0000  0.0000 </r>
       </set>
       <set comment="band 14">
        <r>  0.0000  0.0000  0.0000  0.0000  0.0000  0.2813  0.0000  0.2010  0.0000  0.0000  0.0000  0.0000  0.0000  0.0000  0.0000  0.0000 </r>
       </set>
       <set comment="band 15">
        <r>  0.0000  0.0000  0.0000  0.0000  0.4823  0.0000  0.0000  0.0000  0.0000  0.0000  0.0000  0.0000  0.0000  0.0000  0.0000  0.0000 </r>
       </set>
       <set comment="band 16">
        <r>  0.0000  0.0000  0.0000  0.0000  0.0000  0.0000  0.0000  0.0000  0.4537  0.0000  0.0000  0.0000  0.0000  0.0000  0.0000  0.0000 </r>
       </set>
       <set comment="band 17">
        <r>  0.0000  0.0000  0.0000  0.0000  0.0000  0.0000  0.4537  0.0000  0.0000  0.0000  0.0000  0.0000  0.0000  0.0000  0.0000  0.0000 </r>
       </set>
       <set comment="band 18">
        <r>  0.0000  0.0346  0.0000  0.0254  0.0000  0.0000  0.0000  0.0000  0.0000  0.0001  0.0000  0.0001  0.0000  0.0001  0.0000  0.0001 </r>
       </set>
       <set comment="band 19">
        <r>  0.0000  0.0191  0.0151  0.0258  0.0000  0.0000  0.0000  0.0000  0.0000  0.0001  0.0000  0.0000  0.0001  0.0001  0.0000  0.0001 </r>
       </set>
       <set comment="band 20">
        <r>  0.0000  0.0064  0.0449  0.0088  0.0000  0.0000  0.0000  0.0000  0.0000  0.0000  0.0000  0.0000  0.0002  0.0000  0.0000  0.0000 </r>
       </set>
       <set comment="band 21">
        <r>  0.0364  0.0000  0.0000  0.0000  0.0000  0.0000  0.0000  0.0000  0.0000  0.0000  0.0000  0.0000  0.0000  0.0000  0.0000  0.0000 </r>
       </set>
       <set comment="band 22">
        <r>  0.0000  0.0000  0.0000  0.0000  0.0000  0.0000  0.0000  0.0000  0.0587  0.0000  0.0000  0.0000  0.0000  0.0000  0.0000  0.0000 </r>
       </set>
       <set comment="band 23">
        <r>  0.0000  0.0000  0.0000  0.0000  0.0000  0.0000  0.0587  0.0000  0.0000  0.0000  0.0000  0.0000  0.0000  0.0000  0.0000  0.0000 </r>
       </set>
       <set comment="band 24">
        <r>  0.0000  0.0221  0.0000  0.0012  0.0000  0.0000  0.0000  0.0000  0.0000  0.0008  0.0000  0.0005  0.0000  0.0000  0.0000  0.0000 </r>
       </set>
       <set comment="band 25">
        <r>  0.0000  0.0012  0.0000  0.0221  0.0000  0.0000  0.0000  0.0000  0.0000  0.0000  0.0000  0.0000  0.0000  0.0005  0.0000  0.0008 </r>
       </set>
       <set comment="band 26">
        <r>  0.0000  0.0000  0.0233  0.0000  0.0000  0.0000  0.0000  0.0000  0.0000  0.0000  0.0000  0.0000  0.0013  0.0000  0.0000  0.0000 </r>
       </set>
       <set comment="band 27">
        <r>  0.0341  0.0000  0.0000  0.0000  0.0000  0.0000  0.0000  0.0000  0.0000  0.0000  0.0000  0.0000  0.0000  0.0000  0.0000  0.0000 </r>
       </set>
       <set comment="band 28">
        <r>  0.0000  0.0000  0.0000  0.0000  0.0000  0.0000  0.0000  0.0000  0.0000  0.0014  0.0000  0.0023  0.0000  0.0014  0.0000  0.0009 </r>
       </set>
       <set comment="band 29">
        <r>  0.0000  0.0000  0.0000  0.0000  0.0000  0.0000  0.0000  0.0000  0.0000  0.0009  0.0000  0.0014  0.0000  0.0023  0.0000  0.0014 </r>
       </set>
       <set comment="band 30">
        <r>  0.0000  0.0000  0.0000  0.0000  0.0000  0.0000  0.0000  0.0000  0.0000  0.0000  0.0000  0.0000  0.0000  0.0000  0.0059  0.0000 </r>
       </set>
       <set comment="band 31">
        <r>  0.0000  0.0000  0.0000  0.0000  0.0000  0.0049  0.0000  0.0683  0.0000  0.0000  0.0000  0.0000  0.0000  0.0000  0.0000  0.0000 </r>
       </set>
       <set comment="band 32">
        <r>  0.0000  0.0000  0.0000  0.0000  0.0000  0.0683  0.0000  0.0049  0.0000  0.0000  0.0000  0.0000  0.0000  0.0000  0.0000  0.0000 </r>
       </set>
       <set comment="band 33">
        <r>  0.0000  0.0000  0.0000  0.0000  0.0732  0.0000  0.0000  0.0000  0.0000  0.0000  0.0000  0.0000  0.0000  0.0000  0.0000  0.0000 </r>
       </set>
       <set comment="band 34">
        <r>  0.0000  0.0000  0.0000  0.0000  0.0000  0.0000  0.0000  0.0000  0.0207  0.0000  0.0000  0.0000  0.0000  0.0000  0.0000  0.0000 </r>
       </set>
       <set comment="band 35">
        <r>  0.0000  0.0000  0.0000  0.0000  0.0000  0.0000  0.0207  0.0000  0.0000  0.0000  0.0000  0.0000  0.0000  0.0000  0.0000  0.0000 </r>
       </set>
       <set comment="band 36">
        <r>  0.0000  0.0000  0.0000  0.0000  0.0000  0.0000  0.0000  0.0000  0.0000  0.0000  0.0136  0.0000  0.0000  0.0000  0.0000  0.0000 </r>
       </set>
      </set>
     </set>
    </set>
   </array>
  </projected>
 </calculation>
 <structure name="finalpos" >
  <crystal>
   <varray name="basis" >
    <v>      10.00000000       0.00000000       0.00000000 </v>
    <v>       0.00000000      10.00000000       0.00000000 </v>
    <v>       0.00000000       0.00000000      10.00000000 </v>
   </varray>
   <i name="volume">   1000.00000000 </i>
   <varray name="rec_basis" >
    <v>       0.10000000       0.00000000       0.00000000 </v>
    <v>       0.00000000       0.10000000       0.00000000 </v>
    <v>       0.00000000       0.00000000       0.10000000 </v>
   </varray>
  </crystal>
  <varray name="positions" >
   <v>       0.50000000       0.50000000       0.50000000 </v>
  </varray>
 </structure>
</modeling>
