       N       E                     dE             d eps       ncg     rms          rms(c)
DAV:   1     0.138723302416E+03    0.13872E+03   -0.28792E+03   144   0.166E+02
DAV:   2     0.893225431291E+00   -0.13783E+03   -0.13758E+03   288   0.325E+01
DAV:   3    -0.294894878447E+01   -0.38422E+01   -0.38368E+01   144   0.125E+01
DAV:   4    -0.298658464846E+01   -0.37636E-01   -0.37634E-01   216   0.214E+00
DAV:   5    -0.298670597412E+01   -0.12133E-03   -0.12133E-03   144   0.978E-02    0.251E+01
DAV:   6    -0.101760507309E+02   -0.71893E+01   -0.23319E+02   288   0.213E+01    0.279E+01
DAV:   7    -0.444270572058E+01    0.57333E+01   -0.34304E+00   252   0.313E+00    0.109E+01
DAV:   8    -0.281627754144E+01    0.16264E+01   -0.15323E+00   288   0.193E+00    0.868E+00
DAV:   9    -0.117831313540E+01    0.16380E+01   -0.15821E+00   180   0.208E+00    0.566E+00
DAV:  10    -0.604914267750E+00    0.57340E+00   -0.11480E+00   216   0.180E+00    0.301E+00
DAV:  11    -0.622088221973E+00   -0.17174E-01   -0.87763E-01   144   0.131E+00    0.119E+01
DAV:  12    -0.472130510916E+00    0.14996E+00   -0.23074E+00   144   0.267E+00    0.218E+00
DAV:  13    -0.539321232124E+00   -0.67191E-01   -0.89542E-02   144   0.232E+00    0.252E+00
DAV:  14    -0.513514453674E+00    0.25807E-01   -0.27484E-02   144   0.510E-01    0.235E+00
DAV:  15    -0.551518949211E+00   -0.38004E-01   -0.41092E-02   144   0.441E-01    0.249E+00
DAV:  16    -0.510749890144E+00    0.40769E-01   -0.22407E-02   144   0.404E-01    0.218E+00
DAV:  17    -0.508612118917E+00    0.21378E-02   -0.12325E-02   144   0.225E-01    0.412E+00
DAV:  18    -0.507809849213E+00    0.80227E-03   -0.35239E-02   144   0.155E+00    0.595E+00
DAV:  19    -0.507789441577E+00    0.20408E-04   -0.70974E-03   144   0.430E-01    0.708E+00
DAV:  20    -0.503539439046E+00    0.42500E-02   -0.30269E-03   144   0.286E-01    0.733E+00
DAV:  21    -0.504570889813E+00   -0.10315E-02   -0.23585E-04   144   0.411E-02    0.748E+00
DAV:  22    -0.486864527508E+00    0.17706E-01   -0.41488E-04   144   0.896E-02    0.682E+00
DAV:  23    -0.447464641663E+00    0.39400E-01   -0.46338E-03   144   0.183E-01    0.183E+00
DAV:  24    -0.478345205801E+00   -0.30881E-01   -0.19783E-02   144   0.105E+00    0.140E+00
DAV:  25    -0.494824653505E+00   -0.16479E-01   -0.46071E-03   144   0.192E-01    0.344E+00
DAV:  26    -0.486368687130E+00    0.84560E-02   -0.62317E-03   144   0.532E-01    0.401E+00
DAV:  27    -0.482490477352E+00    0.38782E-02   -0.70811E-04   144   0.140E-01    0.434E+00
DAV:  28    -0.478667870454E+00    0.38226E-02   -0.13028E-04   144   0.665E-02    0.420E+00
DAV:  29    -0.491121105648E+00   -0.12453E-01   -0.36005E-04   144   0.891E-02    0.566E+00
DAV:  30    -0.487737494329E+00    0.33836E-02   -0.23965E-03   144   0.355E-01    0.620E+00
DAV:  31    -0.485042015572E+00    0.26955E-02   -0.64834E-04   144   0.119E-01    0.642E+00
DAV:  32    -0.486253898420E+00   -0.12119E-02   -0.11373E-04   144   0.459E-02    0.662E+00
DAV:  33    -0.486524017596E+00   -0.27012E-03   -0.72226E-05   144   0.458E-02    0.674E+00
DAV:  34    -0.488494648662E+00   -0.19706E-02   -0.23663E-05   144   0.170E-02    0.690E+00
DAV:  35    -0.490292026132E+00   -0.17974E-02   -0.62590E-05   144   0.464E-02    0.709E+00
DAV:  36    -0.490547929471E+00   -0.25590E-03   -0.22232E-05   144   0.172E-02    0.717E+00
DAV:  37    -0.491534344128E+00   -0.98641E-03   -0.12998E-05   144   0.193E-02    0.725E+00
DAV:  38    -0.491689263506E+00   -0.15492E-03   -0.35731E-06    72   0.613E-03    0.728E+00
DAV:  39    -0.491577969365E+00    0.11129E-03   -0.14952E-06    72   0.693E-03    0.729E+00
DAV:  40    -0.483296001815E+00    0.82820E-02   -0.85734E-05   144   0.280E-02    0.689E+00
DAV:  41    -0.483794550564E+00   -0.49855E-03   -0.82735E-05   144   0.459E-02    0.682E+00
DAV:  42    -0.508742922180E+00   -0.24948E-01   -0.89251E-04   144   0.101E-01    0.781E+00
DAV:  43    -0.521426140360E+00   -0.12683E-01   -0.65291E-04   144   0.984E-02    0.802E+00
DAV:  44    -0.522501176169E+00   -0.10750E-02   -0.56233E-05   144   0.281E-02    0.804E+00
DAV:  45    -0.524791649859E+00   -0.22905E-02   -0.17967E-05   108   0.218E-02    0.805E+00
DAV:  46    -0.594994751296E+00   -0.70203E-01   -0.46767E-03   144   0.208E-01    0.830E+00
DAV:  47    -0.665998527960E+00   -0.71004E-01   -0.33726E-02   180   0.193E-01    0.109E+01
DAV:  48    -0.674883739588E+00   -0.88852E-02   -0.22072E-03   144   0.412E-01    0.113E+01
DAV:  49    -0.673547837141E+00    0.13359E-02   -0.39150E-04   144   0.139E-01    0.118E+01
DAV:  50    -0.680122734120E+00   -0.65749E-02   -0.25886E-04   144   0.151E-01    0.119E+01
DAV:  51    -0.588682114570E+00    0.91441E-01   -0.38200E-03   144   0.337E-01    0.915E+00
DAV:  52    -0.654277273935E+00   -0.65595E-01   -0.24261E-03   144   0.357E-01    0.113E+01
DAV:  53    -0.602874636113E+00    0.51403E-01   -0.15282E-03   144   0.321E-01    0.961E+00
DAV:  54    -0.625420637462E+00   -0.22546E-01   -0.16109E-03   216   0.370E-01    0.106E+01
DAV:  55    -0.605604998161E+00    0.19816E-01   -0.80317E-04   144   0.264E-01    0.994E+00
DAV:  56    -0.135392657470E+01   -0.74832E+00   -0.22689E+00   180   0.589E-01    0.251E+01
DAV:  57    -0.126625253923E+01    0.87674E-01   -0.50480E-02   144   0.245E+00    0.251E+01
DAV:  58    -0.117771718828E+01    0.88535E-01   -0.71113E-03   180   0.414E-01    0.245E+01
DAV:  59    -0.742337718830E+00    0.43538E+00   -0.11476E+00   144   0.181E+00    0.844E+00
DAV:  60    -0.728257350884E+00    0.14080E-01   -0.14033E-01   144   0.350E+00    0.108E+01
DAV:  61    -0.821697411301E+00   -0.93440E-01   -0.23937E-01   144   0.539E-01    0.183E+01
DAV:  62    -0.692240568147E+00    0.12946E+00   -0.25527E-01   144   0.120E+00    0.105E+01
DAV:  63    -0.754436641853E+00   -0.62196E-01   -0.28090E-01   180   0.205E+00    0.178E+01
DAV:  64    -0.667578182781E+00    0.86858E-01   -0.29927E-01   144   0.177E+00    0.101E+01
DAV:  65    -0.717632253362E+00   -0.50054E-01   -0.43170E-01   144   0.225E+00    0.150E+01
DAV:  66    -0.793521415684E+00   -0.75889E-01   -0.75134E-01   144   0.300E+00    0.111E+01
DAV:  67    -0.802227941343E+00   -0.87065E-02   -0.94951E-01   144   0.311E+00    0.195E+01
DAV:  68    -0.840611892321E+00   -0.38384E-01   -0.25066E+00   180   0.393E+00    0.930E+00
DAV:  69    -0.742002651146E+00    0.98609E-01   -0.12481E+00   144   0.424E+00    0.131E+01
DAV:  70    -0.797880373853E+00   -0.55878E-01   -0.14208E+00   144   0.394E+00    0.953E+00
DAV:  71    -0.649037995770E+00    0.14884E+00   -0.17077E+00   144   0.424E+00    0.793E+00
DAV:  72    -0.604695765815E+00    0.44342E-01   -0.46021E-01   144   0.345E+00    0.873E+00
DAV:  73    -0.507353887759E+00    0.97342E-01   -0.15638E+00   144   0.342E+00    0.761E+00
DAV:  74    -0.497355683965E+00    0.99982E-02   -0.32760E-01   144   0.322E+00    0.815E+00
DAV:  75    -0.420536056472E+00    0.76820E-01   -0.10267E+00   144   0.277E+00    0.119E+00
DAV:  76    -0.529337740744E+00   -0.10880E+00   -0.10468E-01   144   0.212E+00    0.280E+00
DAV:  77    -0.552592177141E+00   -0.23254E-01   -0.11914E-02   144   0.536E-01    0.288E+00
DAV:  78    -0.560497847527E+00   -0.79057E-02   -0.19612E-03   180   0.103E-01    0.293E+00
DAV:  79    -0.535113280833E+00    0.25385E-01   -0.27061E-03   144   0.141E-01    0.286E+00
DAV:  80    -0.560039535966E+00   -0.24926E-01   -0.33688E-03   180   0.141E-01    0.296E+00
DAV:  81    -0.548182262599E+00    0.11857E-01   -0.82828E-03   144   0.612E-01    0.309E+00
DAV:  82    -0.507679258101E+00    0.40503E-01   -0.71953E-03   180   0.191E-01    0.295E+00
DAV:  83    -0.508585166672E+00   -0.90591E-03   -0.47300E-04   180   0.603E-02    0.295E+00
DAV:  84    -0.511890302198E+00   -0.33051E-02   -0.16937E-03   180   0.180E-01    0.301E+00
DAV:  85    -0.489665634453E+00    0.22225E-01   -0.15646E-03   180   0.170E-01    0.297E+00
DAV:  86    -0.446160759995E+00    0.43505E-01   -0.90003E-03   144   0.199E-01    0.281E+00
DAV:  87    -0.437979683570E+00    0.81811E-02   -0.19136E-03   180   0.947E-02    0.273E+00
DAV:  88    -0.439550470683E+00   -0.15708E-02   -0.27458E-04   144   0.773E-02    0.270E+00
DAV:  89    -0.432827434205E+00    0.67230E-02   -0.18418E-03   144   0.152E-01    0.258E+00
DAV:  90    -0.424758941469E+00    0.80685E-02   -0.27211E-03   180   0.161E-01    0.227E+00
DAV:  91    -0.428660957616E+00   -0.39020E-02   -0.12636E-03   180   0.215E-01    0.181E+00
DAV:  92    -0.440812179709E+00   -0.12151E-01   -0.10106E-03   180   0.176E-01    0.233E+00
DAV:  93    -0.437529582754E+00    0.32826E-02   -0.27189E-03   144   0.151E-01    0.123E+00
DAV:  94    -0.485493024745E+00   -0.47963E-01   -0.21266E-02   180   0.412E-01    0.253E+00
DAV:  95    -0.450255467372E+00    0.35238E-01   -0.13890E-02   180   0.268E-01    0.205E+00
DAV:  96    -0.447656304304E+00    0.25992E-02   -0.52206E-04   180   0.992E-02    0.205E+00
DAV:  97    -0.447805983063E+00   -0.14968E-03   -0.19870E-03   144   0.223E-01    0.104E+00
DAV:  98    -0.478092762929E+00   -0.30287E-01   -0.94515E-03   180   0.255E-01    0.233E+00
DAV:  99    -0.456179688864E+00    0.21913E-01   -0.65601E-03   180   0.174E-01    0.174E+00
DAV: 100    -0.457471311588E+00   -0.12916E-02   -0.60272E-04   144   0.139E-01    0.141E+00
DAV: 101    -0.471668101933E+00   -0.14197E-01   -0.42579E-03   144   0.285E-01    0.463E+00
DAV: 102    -0.469596913282E+00    0.20712E-02   -0.43968E-03   180   0.314E-01    0.156E+00
DAV: 103    -0.469138013813E+00    0.45890E-03   -0.55595E-04   144   0.126E-01    0.887E-01
DAV: 104    -0.483718216308E+00   -0.14580E-01   -0.15411E-03   144   0.105E-01    0.559E+00
DAV: 105    -0.533657188651E+00   -0.49939E-01   -0.51304E-03   180   0.273E-01    0.789E+00
DAV: 106    -0.438609206282E+00    0.95048E-01   -0.16604E-02   144   0.648E-01    0.446E+00
DAV: 107    -0.444374099630E+00   -0.57649E-02   -0.34778E-03   180   0.225E-01    0.129E+00
DAV: 108    -0.461361065990E+00   -0.16987E-01   -0.54916E-03   144   0.351E-01    0.145E+00
DAV: 109    -0.471937517968E+00   -0.10576E-01   -0.24446E-03   144   0.199E-01    0.198E+00
DAV: 110    -0.467901286516E+00    0.40362E-02   -0.48468E-03   144   0.348E-01    0.923E-01
DAV: 111    -0.125795170906E+01   -0.79005E+00   -0.50514E+00   216   0.178E+00    0.247E+01
DAV: 112    -0.195016820102E+01   -0.69222E+00   -0.10688E+02   180   0.161E+01    0.751E+00
DAV: 113    -0.102488835173E+01    0.92528E+00   -0.17645E+00   180   0.662E+00    0.501E+00
DAV: 114    -0.679080421142E+00    0.34581E+00   -0.44867E-01   180   0.159E+00    0.347E+00
DAV: 115    -0.653263193733E+00    0.25817E-01   -0.57968E-02   144   0.566E-01    0.316E+00
DAV: 116    -0.515588790066E+00    0.13767E+00   -0.19837E-01   144   0.164E+00    0.225E+00
DAV: 117    -0.505762369682E+00    0.98264E-02   -0.32625E-02   180   0.349E-01    0.202E+00
DAV: 118    -0.499609314032E+00    0.61531E-02   -0.36886E-03   144   0.141E-01    0.147E+00
DAV: 119    -0.548247812363E+00   -0.48638E-01   -0.13419E-02   144   0.286E-01    0.747E+00
DAV: 120    -0.162674590464E+01   -0.10785E+01   -0.54182E+00   144   0.209E+00    0.217E+01
DAV: 121    -0.188006834625E+01   -0.25332E+00   -0.38950E-02   144   0.113E+00    0.255E+01
DAV: 122    -0.479334431872E+00    0.14007E+01   -0.23344E+01   144   0.620E+00    0.339E+00
DAV: 123    -0.632841790369E+00   -0.15351E+00   -0.14269E-01   144   0.118E+00    0.304E+00
DAV: 124    -0.623501741201E+00    0.93400E-02   -0.31818E-02   144   0.918E-01    0.282E+00
DAV: 125    -0.648180666939E+00   -0.24679E-01   -0.52948E-03   144   0.277E-01    0.289E+00
DAV: 126    -0.652916501187E+00   -0.47358E-02   -0.29217E-03   144   0.294E-01    0.289E+00
DAV: 127    -0.622057063168E+00    0.30859E-01   -0.11391E-02   144   0.265E-01    0.273E+00
DAV: 128    -0.622864894161E+00   -0.80783E-03   -0.16859E-03   144   0.725E-02    0.273E+00
DAV: 129    -0.621452770669E+00    0.14121E-02   -0.15325E-04   144   0.259E-02    0.272E+00
DAV: 130    -0.620073830150E+00    0.13789E-02   -0.56093E-05   144   0.313E-02    0.272E+00
DAV: 131    -0.637131997919E+00   -0.17058E-01   -0.14566E-03   144   0.934E-02    0.280E+00
DAV: 132    -0.639802119044E+00   -0.26701E-02   -0.66073E-03   180   0.132E-01    0.282E+00
DAV: 133    -0.616709244427E+00    0.23093E-01   -0.10866E-02   180   0.233E-01    0.271E+00
DAV: 134    -0.618108499367E+00   -0.13993E-02   -0.40535E-04   144   0.604E-02    0.270E+00
DAV: 135    -0.617759268014E+00    0.34923E-03   -0.12041E-04   144   0.411E-02    0.271E+00
DAV: 136    -0.616240178727E+00    0.15191E-02   -0.59952E-03   144   0.176E-01    0.271E+00
DAV: 137    -0.611947624428E+00    0.42926E-02   -0.26804E-04   144   0.566E-02    0.269E+00
DAV: 138    -0.600481484197E+00    0.11466E-01   -0.89037E-03   180   0.165E-01    0.263E+00
DAV: 139    -0.597932969916E+00    0.25485E-02   -0.31499E-04   144   0.526E-02    0.261E+00
DAV: 140    -0.577972249951E+00    0.19961E-01   -0.31531E-03   144   0.126E-01    0.251E+00
DAV: 141    -0.562012501812E+00    0.15960E-01   -0.19612E-03   144   0.119E-01    0.243E+00
DAV: 142    -0.539971704528E+00    0.22041E-01   -0.36100E-03   144   0.141E-01    0.230E+00
DAV: 143    -0.522241572399E+00    0.17730E-01   -0.29453E-03   144   0.132E-01    0.220E+00
DAV: 144    -0.505156999951E+00    0.17085E-01   -0.28058E-03   144   0.121E-01    0.186E+00
DAV: 145    -0.519064757868E+00   -0.13908E-01   -0.93692E-03   144   0.215E-01    0.552E+00
DAV: 146    -0.145181560117E+01   -0.93275E+00   -0.46981E+00   144   0.183E+00    0.252E+01
DAV: 147    -0.224949726257E+01   -0.79768E+00   -0.15346E+02   252   0.169E+01    0.997E+00
DAV: 148    -0.963591630648E+00    0.12859E+01   -0.91039E+00   180   0.736E+00    0.479E+00
DAV: 149    -0.713844157185E+00    0.24975E+00   -0.51077E-01   144   0.164E+00    0.361E+00
DAV: 150    -0.635339065383E+00    0.78505E-01   -0.12799E-01   180   0.687E-01    0.300E+00
DAV: 151    -0.567815362626E+00    0.67524E-01   -0.41397E-02   144   0.655E-01    0.265E+00
DAV: 152    -0.506774676808E+00    0.61041E-01   -0.37017E-02   144   0.385E-01    0.212E+00
DAV: 153    -0.555706496688E+00   -0.48932E-01   -0.30913E-02   144   0.359E-01    0.757E+00
DAV: 154    -0.175567988699E+01   -0.12000E+01   -0.68554E+00   144   0.280E+00    0.250E+01
DAV: 155    -0.724808342883E+00    0.10309E+01   -0.54047E+01   144   0.855E+00    0.481E+00
DAV: 156    -0.185295656208E+01   -0.11281E+01   -0.20159E+01   144   0.557E+00    0.241E+01
DAV: 157    -0.112557917225E+02   -0.94028E+01   -0.48142E+02   216   0.401E+01    0.248E+01
DAV: 158    -0.681504619431E+01    0.44407E+01   -0.11426E+01   144   0.578E+00    0.188E+01
DAV: 159    -0.276533141859E+01    0.40497E+01   -0.20682E+01   288   0.828E+00    0.911E+00
DAV: 160    -0.817565420245E+00    0.19478E+01   -0.64983E+00   216   0.534E+00    0.413E+00
DAV: 161    -0.614538414996E+00    0.20303E+00   -0.70819E-01   216   0.156E+00    0.313E+00
DAV: 162    -0.514219361979E+00    0.10032E+00   -0.94346E-02   144   0.680E-01    0.259E+00
DAV: 163    -0.493882899503E+00    0.20336E-01   -0.18188E-02   144   0.282E-01    0.242E+00
DAV: 164    -0.472165431951E+00    0.21717E-01   -0.10905E-02   180   0.234E-01    0.142E+00
DAV: 165    -0.528902262729E+00   -0.56737E-01   -0.26028E-02   144   0.358E-01    0.746E+00
DAV: 166    -0.246962505027E+01   -0.19407E+01   -0.12774E+01   144   0.274E+00    0.192E+01
DAV: 167    -0.352934148785E+01   -0.10597E+01   -0.17346E-01   180   0.264E+00    0.184E+01
DAV: 168    -0.314535350856E+01    0.38399E+00   -0.11489E-02   144   0.503E-01    0.183E+01
DAV: 169    -0.227282370498E+01    0.87253E+00   -0.68795E-02   144   0.940E-01    0.182E+01
DAV: 170    -0.398060132881E+01   -0.17078E+01   -0.21322E-01   144   0.276E+00    0.186E+01
DAV: 171    -0.256281073985E+01    0.14178E+01   -0.21215E-01   180   0.190E+00    0.185E+01
DAV: 172    -0.266975979881E+01   -0.10695E+00   -0.10139E-02   144   0.614E-01    0.185E+01
DAV: 173    -0.247113883926E+01    0.19862E+00   -0.54692E-03   144   0.269E-01    0.185E+01
DAV: 174    -0.209832423587E+01    0.37281E+00   -0.10698E-02   144   0.558E-01    0.185E+01
DAV: 175    -0.217054531633E+01   -0.72221E-01   -0.33548E-03   144   0.272E-01    0.185E+01
DAV: 176    -0.182184357878E+01    0.34870E+00   -0.10088E-02   144   0.458E-01    0.184E+01
DAV: 177    -0.142253770154E+01    0.39931E+00   -0.12162E-02   144   0.350E-01    0.183E+01
DAV: 178    -0.103319133204E+01    0.38935E+00   -0.12412E-02   144   0.451E-01    0.157E+01
DAV: 179    -0.118278215363E+01   -0.14959E+00   -0.24823E-03   144   0.252E-01    0.175E+01
DAV: 180    -0.110908833376E+01    0.73694E-01   -0.95319E-04   144   0.231E-01    0.161E+01
DAV: 181    -0.404234990965E+00    0.70485E+00   -0.34556E+00   180   0.133E+00    0.733E+00
DAV: 182    -0.316143581533E+01   -0.27572E+01   -0.16403E+01   144   0.314E+00    0.178E+01
DAV: 183    -0.386436959683E+00    0.27750E+01   -0.10112E+01   144   0.490E+00    0.764E+00
DAV: 184    -0.414840038403E+00   -0.28403E-01   -0.58836E-01   144   0.179E+00    0.126E+00
DAV: 185    -0.726018752418E+00   -0.31118E+00   -0.96574E-01   144   0.145E+00    0.311E+00
DAV: 186    -0.818903032930E+00   -0.92884E-01   -0.65857E-02   144   0.710E-01    0.349E+00
DAV: 187    -0.722948519686E+00    0.95955E-01   -0.34249E-02   144   0.507E-01    0.311E+00
DAV: 188    -0.660550746591E+00    0.62398E-01   -0.15785E-02   144   0.375E-01    0.283E+00
DAV: 189    -0.691600680926E+00   -0.31050E-01   -0.49335E-03   180   0.193E-01    0.292E+00
DAV: 190    -0.666745491720E+00    0.24855E-01   -0.34250E-03   144   0.133E-01    0.283E+00
DAV: 191    -0.569630465609E+00    0.97115E-01   -0.46068E-02   144   0.472E-01    0.239E+00
DAV: 192    -0.546498662725E+00    0.23132E-01   -0.11013E-02   144   0.227E-01    0.223E+00
DAV: 193    -0.520887626054E+00    0.25611E-01   -0.72258E-03   144   0.182E-01    0.206E+00
DAV: 194    -0.497129827538E+00    0.23758E-01   -0.13274E-02   144   0.209E-01    0.145E+00
DAV: 195    -0.514107288664E+00   -0.16977E-01   -0.15156E-02   144   0.950E-01    0.566E+00
DAV: 196    -0.544891381409E+00   -0.30784E-01   -0.28417E-02   144   0.102E+00    0.810E+00
DAV: 197    -0.508610875921E+00    0.36281E-01   -0.92686E-03   144   0.534E-01    0.790E+00
DAV: 198    -0.434998953508E+00    0.73612E-01   -0.88852E-03   144   0.290E-01    0.180E+00
DAV: 199    -0.484639136143E+00   -0.49640E-01   -0.26234E-02   144   0.121E+00    0.437E+00
DAV: 200    -0.469540435309E+00    0.15099E-01   -0.67078E-03   180   0.722E-01    0.259E+00
DAV: 201    -0.591445000890E+00   -0.12190E+00   -0.32105E-02   144   0.586E-01    0.867E+00
DAV: 202    -0.503937317901E+00    0.87508E-01   -0.34528E-02   144   0.148E+00    0.797E+00
DAV: 203    -0.438796538605E+00    0.65141E-01   -0.53344E-02   144   0.144E+00    0.196E+00
DAV: 204    -0.482322757380E+00   -0.43526E-01   -0.28768E-02   144   0.776E-01    0.128E+00
DAV: 205    -0.486063587397E+00   -0.37408E-02   -0.57514E-03   144   0.209E-01    0.259E+00
DAV: 206    -0.491568321107E+00   -0.55047E-02   -0.15425E-02   144   0.749E-01    0.608E+00
DAV: 207    -0.464403343672E+00    0.27165E-01   -0.12332E-02   144   0.734E-01    0.670E+00
DAV: 208    -0.430221572892E+00    0.34182E-01   -0.61669E-03   144   0.573E-01    0.172E+00
DAV: 209    -0.458526998430E+00   -0.28305E-01   -0.47848E-03   144   0.206E-01    0.232E+00
DAV: 210    -0.456067619508E+00    0.24594E-02   -0.50789E-04   144   0.117E-01    0.108E+00
DAV: 211    -0.492516251322E+00   -0.36449E-01   -0.86174E-03   144   0.449E-01    0.668E+00
DAV: 212    -0.449788332288E+00    0.42728E-01   -0.18158E-02   144   0.806E-01    0.360E+00
DAV: 213    -0.491311760330E+00   -0.41523E-01   -0.50523E-03   144   0.431E-01    0.769E+00
DAV: 214    -0.505837999133E+00   -0.14526E-01   -0.77118E-03   144   0.644E-01    0.816E+00
DAV: 215    -0.469262423274E+00    0.36576E-01   -0.34977E-03   144   0.523E-01    0.799E+00
DAV: 216    -0.477409128751E+00   -0.81467E-02   -0.65262E-03   180   0.725E-01    0.790E+00
DAV: 217    -0.474034099701E+00    0.33750E-02   -0.16323E-02   144   0.117E+00    0.770E+00
DAV: 218    -0.485919517509E+00   -0.11885E-01   -0.72451E-02   144   0.158E+00    0.775E+00
DAV: 219    -0.508537797037E+00   -0.22618E-01   -0.13338E-01   144   0.237E+00    0.769E+00
DAV: 220    -0.486286223063E+00    0.22252E-01   -0.35469E-01   144   0.263E+00    0.744E+00
DAV: 221    -0.607174798755E+00   -0.12089E+00   -0.58330E-01   144   0.319E+00    0.867E+00
DAV: 222    -0.591937144338E+00    0.15238E-01   -0.20039E-01   144   0.324E+00    0.813E+00
DAV: 223    -0.648258207647E+00   -0.56321E-01   -0.24901E-01   144   0.297E+00    0.879E+00
DAV: 224    -0.606648977593E+00    0.41609E-01   -0.97505E-02   144   0.293E+00    0.853E+00
DAV: 225    -0.556606261300E+00    0.50043E-01   -0.70769E-02   144   0.258E+00    0.861E+00
DAV: 226    -0.539954670133E+00    0.16652E-01   -0.21135E-01   180   0.277E+00    0.794E+00
DAV: 227    -0.108242110275E+01   -0.54247E+00   -0.33702E+00   144   0.323E+00    0.181E+01
DAV: 228    -0.431152396219E+00    0.65127E+00   -0.77287E+00   144   0.350E+00    0.243E+00
DAV: 229    -0.465122384042E+00   -0.33970E-01   -0.99930E-02   144   0.152E+00    0.114E+00
DAV: 230    -0.493571659233E+00   -0.28449E-01   -0.10520E-02   144   0.429E-01    0.200E+00
DAV: 231    -0.509994255605E+00   -0.16423E-01   -0.44177E-03   144   0.292E-01    0.208E+00
DAV: 232    -0.503772895327E+00    0.62214E-02   -0.83802E-04   144   0.846E-02    0.204E+00
DAV: 233    -0.480926007676E+00    0.22847E-01   -0.56452E-03   144   0.171E-01    0.166E+00
DAV: 234    -0.481225843394E+00   -0.29984E-03   -0.43102E-03   144   0.142E-01    0.302E+00
DAV: 235    -0.483140072152E+00   -0.19142E-02   -0.34147E-02   144   0.557E-01    0.373E+00
DAV: 236    -0.460467564850E+00    0.22673E-01   -0.81888E-03   144   0.491E-01    0.298E+00
DAV: 237    -0.454951413132E+00    0.55162E-02   -0.12722E-03   144   0.279E-01    0.157E+00
DAV: 238    -0.459904743290E+00   -0.49533E-02   -0.10871E-03   144   0.103E-01    0.140E+00
DAV: 239    -0.460168206700E+00   -0.26346E-03   -0.58631E-04   144   0.748E-02    0.158E+00
DAV: 240    -0.459608591019E+00    0.55962E-03   -0.52705E-05   144   0.227E-02    0.152E+00
DAV: 241    -0.460075426572E+00   -0.46684E-03   -0.11482E-04   180   0.396E-02    0.222E+00
DAV: 242    -0.457258534256E+00    0.28169E-02   -0.40244E-04   144   0.790E-02    0.267E+00
DAV: 243    -0.453857265408E+00    0.34013E-02   -0.26364E-04   144   0.621E-02    0.289E+00
DAV: 244    -0.452840881247E+00    0.10164E-02   -0.29972E-05   144   0.209E-02    0.304E+00
DAV: 245    -0.452524245837E+00    0.31664E-03   -0.46064E-05   144   0.415E-02    0.326E+00
DAV: 246    -0.458312962711E+00   -0.57887E-02   -0.14628E-04   144   0.565E-02    0.469E+00
DAV: 247    -0.459266895410E+00   -0.95393E-03   -0.11710E-03   144   0.184E-01    0.584E+00
DAV: 248    -0.453265209144E+00    0.60017E-02   -0.38335E-04   144   0.781E-02    0.594E+00
DAV: 249    -0.452299729747E+00    0.96548E-03   -0.79365E-04   144   0.228E-01    0.619E+00
DAV: 250    -0.449275398663E+00    0.30243E-02   -0.12950E-03   144   0.335E-01    0.564E+00
DAV: 251    -0.449783174548E+00   -0.50778E-03   -0.35128E-03   144   0.545E-01    0.567E+00
DAV: 252    -0.450703678727E+00   -0.92050E-03   -0.10763E-02   144   0.948E-01    0.415E+00
DAV: 253    -0.457576190342E+00   -0.68725E-02   -0.12463E-02   144   0.105E+00    0.496E+00
DAV: 254    -0.467677643236E+00   -0.10101E-01   -0.23651E-02   144   0.142E+00    0.449E+00
DAV: 255    -0.467774165355E+00   -0.96522E-04   -0.51238E-02   144   0.155E+00    0.595E+00
DAV: 256    -0.503080833304E+00   -0.35307E-01   -0.71475E-02   144   0.172E+00    0.750E+00
DAV: 257    -0.541225291605E+00   -0.38144E-01   -0.45158E-01   144   0.247E+00    0.783E+00
DAV: 258    -0.587982605003E+00   -0.46757E-01   -0.59482E-01   144   0.304E+00    0.863E+00
DAV: 259    -0.580777942643E+00    0.72047E-02   -0.78450E-01   144   0.341E+00    0.791E+00
DAV: 260    -0.630450611944E+00   -0.49673E-01   -0.74651E-01   144   0.348E+00    0.873E+00
DAV: 261    -0.601385738753E+00    0.29065E-01   -0.80474E-01   144   0.356E+00    0.814E+00
DAV: 262    -0.644485741220E+00   -0.43100E-01   -0.78976E-01   144   0.355E+00    0.876E+00
DAV: 263    -0.628688591425E+00    0.15797E-01   -0.78603E-01   144   0.360E+00    0.928E+00
DAV: 264    -0.643250245721E+00   -0.14562E-01   -0.93931E-01   144   0.367E+00    0.876E+00
DAV: 265    -0.664078402133E+00   -0.20828E-01   -0.83187E-01   144   0.377E+00    0.116E+01
DAV: 266    -0.711219538201E+00   -0.47141E-01   -0.13103E+00   144   0.389E+00    0.894E+00
DAV: 267    -0.705251183772E+00    0.59684E-02   -0.13163E+00   144   0.405E+00    0.140E+01
DAV: 268    -0.751702582852E+00   -0.46451E-01   -0.22116E+00   144   0.418E+00    0.921E+00
DAV: 269    -0.689151009440E+00    0.62552E-01   -0.14401E+00   144   0.430E+00    0.138E+01
DAV: 270    -0.742266962797E+00   -0.53116E-01   -0.20197E+00   144   0.416E+00    0.943E+00
DAV: 271    -0.549537526895E+00    0.19273E+00   -0.13986E+00   144   0.427E+00    0.792E+00
DAV: 272    -0.535096764463E+00    0.14441E-01   -0.68011E-01   144   0.369E+00    0.818E+00
DAV: 273    -0.540141481315E+00   -0.50447E-02   -0.91805E-01   144   0.340E+00    0.786E+00
DAV: 274    -0.561677441968E+00   -0.21536E-01   -0.66057E-01   144   0.336E+00    0.858E+00
DAV: 275    -0.548811838299E+00    0.12866E-01   -0.10420E+00   144   0.352E+00    0.785E+00
DAV: 276    -0.514458134679E+00    0.34354E-01   -0.68030E-01   144   0.351E+00    0.693E+00
DAV: 277    -0.457435441769E+00    0.57023E-01   -0.67228E-01   144   0.314E+00    0.496E+00
DAV: 278    -0.473366517641E+00   -0.15931E-01   -0.35890E-01   144   0.274E+00    0.135E+00
DAV: 279    -0.471832420467E+00    0.15341E-02   -0.17039E-02   144   0.124E+00    0.195E+00
DAV: 280    -0.476715895806E+00   -0.48835E-02   -0.50118E-03   144   0.420E-01    0.197E+00
DAV: 281    -0.475549033945E+00    0.11669E-02   -0.54598E-04   144   0.760E-02    0.196E+00
DAV: 282    -0.471160622505E+00    0.43884E-02   -0.35017E-04   144   0.471E-02    0.190E+00
DAV: 283    -0.468739354504E+00    0.24213E-02   -0.14954E-04   144   0.330E-02    0.182E+00
DAV: 284    -0.468657998374E+00    0.81356E-04   -0.17202E-05   144   0.141E-02    0.182E+00
DAV: 285    -0.467978717594E+00    0.67928E-03   -0.15537E-05   144   0.116E-02    0.178E+00
DAV: 286    -0.467151787603E+00    0.82693E-03   -0.11215E-05   144   0.136E-02    0.174E+00
DAV: 287    -0.466822509075E+00    0.32928E-03   -0.45569E-05   144   0.316E-02    0.165E+00
DAV: 288    -0.466489180198E+00    0.33333E-03   -0.48433E-05   144   0.276E-02    0.154E+00
DAV: 289    -0.467315878934E+00   -0.82670E-03   -0.28086E-05   144   0.303E-02    0.154E+00
DAV: 290    -0.465942384776E+00    0.13735E-02   -0.14769E-04   144   0.421E-02    0.112E+00
DAV: 291    -0.468215488255E+00   -0.22731E-02   -0.38195E-04   144   0.104E-01    0.101E+00
DAV: 292    -0.466359338554E+00    0.18561E-02   -0.90658E-04   144   0.128E-01    0.101E+00
DAV: 293    -0.465492381782E+00    0.86696E-03   -0.52747E-05   144   0.232E-02    0.105E+00
DAV: 294    -0.464754864392E+00    0.73752E-03   -0.72807E-05   144   0.440E-02    0.110E+00
DAV: 295    -0.464652928658E+00    0.10194E-03   -0.31960E-05   144   0.272E-02    0.108E+00
DAV: 296    -0.464477259596E+00    0.17567E-03   -0.51986E-06   144   0.104E-02    0.105E+00
DAV: 297    -0.463935693766E+00    0.54157E-03   -0.27015E-05   144   0.198E-02    0.101E+00
DAV: 298    -0.463672507049E+00    0.26319E-03   -0.85703E-06   144   0.127E-02    0.102E+00
DAV: 299    -0.463290665379E+00    0.38184E-03   -0.76051E-06   144   0.123E-02    0.102E+00
DAV: 300    -0.462364430807E+00    0.92623E-03   -0.28389E-05   144   0.228E-02
   1 F= -.46236443E+00 E0= -.44281300E+00  d E =-.462364E+00  mag=    -0.7889
