<?xml version="1.0" encoding="ISO-8859-1"?>
<modeling>
 <generator>
  <i name="program" type="string">vasp </i>
  <i name="version" type="string">5.4.4.18Apr17-6-g9f103f2a35  </i>
  <i name="subversion" type="string">(build Nov 08 2019 15:19:53) gamma-only         parallel </i>
  <i name="platform" type="string">LinuxIFC </i>
  <i name="date" type="string">2020 11 30 </i>
  <i name="time" type="string">09:37:27 </i>
 </generator>
 <incar>
  <i type="string" name="PREC">accurate</i>
  <i type="string" name="ALGO"> N</i>
  <i type="int" name="ISPIN">     2</i>
  <i type="int" name="NELM">   300</i>
  <i type="int" name="IBRION">     2</i>
  <i name="EDIFF">      0.00005000</i>
  <i type="int" name="NSW">    99</i>
  <i type="int" name="ISIF">     2</i>
  <i name="ENCUT">    520.00000000</i>
  <v name="MAGMOM">      0.60000000</v>
  <i type="string" name="LREAL"> Auto</i>
  <i type="int" name="ISMEAR">     0</i>
  <i name="SIGMA">      0.05000000</i>
  <i type="logical" name="LWAVE"> F  </i>
  <i type="int" name="LORBIT">    11</i>
  <i type="logical" name="LASPH"> T  </i>
  <v type="int" name="KPOINT_BSE">    -1     0     0     0</v>
  <i type="int" name="NELM">   300</i>
  <i type="logical" name="LASPH"> T  </i>
 </incar>
 <structure name="primitive_cell" >
  <crystal>
   <varray name="basis" >
    <v>      10.00000000       0.00000000       0.00000000 </v>
    <v>       0.00000000      10.00000000       0.00000000 </v>
    <v>       0.00000000       0.00000000      10.00000000 </v>
   </varray>
   <i name="volume">   1000.00000000 </i>
   <varray name="rec_basis" >
    <v>       0.10000000       0.00000000       0.00000000 </v>
    <v>       0.00000000       0.10000000       0.00000000 </v>
    <v>       0.00000000       0.00000000       0.10000000 </v>
   </varray>
  </crystal>
  <varray name="positions" >
   <v>      -0.50000000      -0.50000000      -0.50000000 </v>
  </varray>
 </structure>
 <varray name="primitive_index" >
  <v type="int" >        1 </v>
 </varray>
 <kpoints>
  <generation param="Gamma">
   <v type="int" name="divisions">       1        1        1 </v>
   <v name="usershift">      0.00000000       0.00000000       0.00000000 </v>
   <v name="genvec1">      1.00000000       0.00000000       0.00000000 </v>
   <v name="genvec2">      0.00000000       1.00000000       0.00000000 </v>
   <v name="genvec3">      0.00000000       0.00000000       1.00000000 </v>
   <v name="shift">      0.00000000       0.00000000       0.00000000 </v>
  </generation>
  <varray name="kpointlist" >
   <v>       0.00000000       0.00000000       0.00000000 </v>
  </varray>
  <varray name="weights" >
   <v>       1.00000000 </v>
  </varray>
 </kpoints>
 <parameters>
  <separator name="general" >
   <i type="string" name="SYSTEM">unknown system</i>
   <i type="logical" name="LCOMPAT"> F  </i>
  </separator>
  <separator name="electronic" >
   <i type="string" name="PREC">accura</i>
   <i name="ENMAX">    520.00000000</i>
   <i name="ENAUG">    583.57500000</i>
   <i name="EDIFF">      0.00005000</i>
   <i type="int" name="IALGO">    38</i>
   <i type="int" name="IWAVPR">    11</i>
   <i type="int" name="NBANDS">    36</i>
   <i name="NELECT">     11.00000000</i>
   <i type="int" name="TURBO">     0</i>
   <i type="int" name="IRESTART">     0</i>
   <i type="int" name="NREBOOT">     0</i>
   <i type="int" name="NMIN">     0</i>
   <i name="EREF">      0.00000000</i>
   <separator name="electronic smearing" >
    <i type="int" name="ISMEAR">     0</i>
    <i name="SIGMA">      0.05000000</i>
    <i name="KSPACING">      0.50000000</i>
    <i type="logical" name="KGAMMA"> T  </i>
   </separator>
   <separator name="electronic projectors" >
    <i type="logical" name="LREAL"> T  </i>
    <v name="ROPT">     -0.00025000</v>
    <i type="int" name="LMAXPAW">  -100</i>
    <i type="int" name="LMAXMIX">     2</i>
    <i type="logical" name="NLSPLINE"> F  </i>
   </separator>
   <separator name="electronic startup" >
    <i type="int" name="ISTART">     0</i>
    <i type="int" name="ICHARG">     2</i>
    <i type="int" name="INIWAV">     1</i>
   </separator>
   <separator name="electronic spin" >
    <i type="int" name="ISPIN">     2</i>
    <i type="logical" name="LNONCOLLINEAR"> F  </i>
    <v name="MAGMOM">      0.60000000</v>
    <i name="NUPDOWN">     -1.00000000</i>
    <i type="logical" name="LSORBIT"> F  </i>
    <v name="SAXIS">      0.00000000      0.00000000      1.00000000</v>
    <i type="logical" name="LSPIRAL"> F  </i>
    <v name="QSPIRAL">      0.00000000      0.00000000      0.00000000</v>
    <i type="logical" name="LZEROZ"> F  </i>
   </separator>
   <separator name="electronic exchange-correlation" >
    <i type="logical" name="LASPH"> T  </i>
    <i type="logical" name="LMETAGGA"> F  </i>
   </separator>
   <separator name="electronic convergence" >
    <i type="int" name="NELM">   300</i>
    <i type="int" name="NELMDL">     0</i>
    <i type="int" name="NELMIN">     2</i>
    <i name="ENINI">    520.00000000</i>
    <separator name="electronic convergence detail" >
     <i type="logical" name="LDIAG"> T  </i>
     <i type="logical" name="LSUBROT"> F  </i>
     <i name="WEIMIN">      0.00100000</i>
     <i name="EBREAK">      0.00000035</i>
     <i name="DEPER">      0.30000000</i>
     <i type="int" name="NRMM">     4</i>
     <i name="TIME">      0.40000000</i>
    </separator>
   </separator>
   <separator name="electronic mixer" >
    <i name="AMIX">      0.40000000</i>
    <i name="BMIX">      1.00000000</i>
    <i name="AMIN">      0.10000000</i>
    <i name="AMIX_MAG">      1.60000000</i>
    <i name="BMIX_MAG">      1.00000000</i>
    <separator name="electronic mixer details" >
     <i type="int" name="IMIX">     4</i>
     <i type="logical" name="MIXFIRST"> F  </i>
     <i type="int" name="MAXMIX">   -45</i>
     <i name="WC">    100.00000000</i>
     <i type="int" name="INIMIX">     1</i>
     <i type="int" name="MIXPRE">     1</i>
     <i type="int" name="MREMOVE">     5</i>
    </separator>
   </separator>
   <separator name="electronic dipolcorrection" >
    <i type="logical" name="LDIPOL"> F  </i>
    <i type="logical" name="LMONO"> F  </i>
    <i type="int" name="IDIPOL">     0</i>
    <i name="EPSILON">      1.00000000</i>
    <v name="DIPOL">   -100.00000000   -100.00000000   -100.00000000</v>
    <i name="EFIELD">      0.00000000</i>
   </separator>
  </separator>
  <separator name="grids" >
   <i type="int" name="NGX">    80</i>
   <i type="int" name="NGY">    80</i>
   <i type="int" name="NGZ">    80</i>
   <i type="int" name="NGXF">   160</i>
   <i type="int" name="NGYF">   160</i>
   <i type="int" name="NGZF">   160</i>
   <i type="logical" name="ADDGRID"> F  </i>
  </separator>
  <separator name="ionic" >
   <i type="int" name="NSW">    99</i>
   <i type="int" name="IBRION">     2</i>
   <i type="int" name="MDALGO">     0</i>
   <i type="int" name="ISIF">     2</i>
   <i name="PSTRESS">      0.00000000</i>
   <i name="EDIFFG">      0.00050000</i>
   <i type="int" name="NFREE">     1</i>
   <i name="POTIM">      0.50000000</i>
   <i name="SMASS">     -3.00000000</i>
   <i name="SCALEE">      1.00000000</i>
  </separator>
  <separator name="ionic md" >
   <i name="TEBEG">      0.00010000</i>
   <i name="TEEND">      0.00010000</i>
   <i type="int" name="NBLOCK">     1</i>
   <i type="int" name="KBLOCK">    99</i>
   <i type="int" name="NPACO">   256</i>
   <i name="APACO">     16.00000000</i>
  </separator>
  <separator name="symmetry" >
   <i type="int" name="ISYM">     2</i>
   <i name="SYMPREC">      0.00001000</i>
  </separator>
  <separator name="dos" >
   <i type="int" name="LORBIT">    11</i>
   <v name="RWIGS">     -1.00000000</v>
   <i type="int" name="NEDOS">   301</i>
   <i name="EMIN">     10.00000000</i>
   <i name="EMAX">    -10.00000000</i>
   <i name="EFERMI">      0.00000000</i>
  </separator>
  <separator name="writing" >
   <i type="int" name="NWRITE">     2</i>
   <i type="logical" name="LWAVE"> F  </i>
   <i type="logical" name="LDOWNSAMPLE"> F  </i>
   <i type="logical" name="LCHARG"> T  </i>
   <i type="logical" name="LPARD"> F  </i>
   <i type="logical" name="LVTOT"> F  </i>
   <i type="logical" name="LVHAR"> F  </i>
   <i type="logical" name="LELF"> F  </i>
   <i type="logical" name="LOPTICS"> F  </i>
   <v name="STM">      0.00000000      0.00000000      0.00000000      0.00000000      0.00000000      0.00000000      0.00000000</v>
  </separator>
  <separator name="performance" >
   <i type="int" name="NPAR">    36</i>
   <i type="int" name="NSIM">     4</i>
   <i type="int" name="NBLK">    -1</i>
   <i type="logical" name="LPLANE"> T  </i>
   <i type="logical" name="LSCALAPACK"> T  </i>
   <i type="logical" name="LSCAAWARE"> F  </i>
   <i type="logical" name="LSCALU"> F  </i>
   <i type="logical" name="LASYNC"> F  </i>
   <i type="logical" name="LORBITALREAL"> F  </i>
  </separator>
  <separator name="miscellaneous" >
   <i type="int" name="IDIOT">     3</i>
   <i type="int" name="ISPECIAL">     0</i>
   <i type="logical" name="LMUSIC"> F  </i>
   <v name="POMASS">    138.90000000</v>
   <v name="DARWINR">      0.00000000</v>
   <v name="DARWINV">      1.00000000</v>
   <i type="logical" name="LCORR"> T  </i>
  </separator>
  <i type="logical" name="GGA_COMPAT"> T  </i>
  <i type="logical" name="LBERRY"> F  </i>
  <i type="int" name="ICORELEVEL">     0</i>
  <i type="logical" name="LDAU"> F  </i>
  <i type="int" name="I_CONSTRAINED_M">     0</i>
  <separator name="electronic exchange-correlation" >
   <i type="string" name="GGA">--</i>
   <i type="int" name="VOSKOWN">     0</i>
   <i type="logical" name="LHFCALC"> F  </i>
   <i type="string" name="PRECFOCK"></i>
   <i type="logical" name="LSYMGRAD"> F  </i>
   <i type="logical" name="LHFONE"> F  </i>
   <i type="logical" name="LRHFCALC"> F  </i>
   <i type="logical" name="LTHOMAS"> F  </i>
   <i type="logical" name="LMODELHF"> F  </i>
   <i name="ENCUT4O">     -1.00000000</i>
   <i type="int" name="EXXOEP">     0</i>
   <i type="int" name="FOURORBIT">     0</i>
   <i name="AEXX">      0.00000000</i>
   <i name="HFALPHA">      0.00000000</i>
   <i name="MCALPHA">      0.00000000</i>
   <i name="ALDAX">      1.00000000</i>
   <i name="AGGAX">      1.00000000</i>
   <i name="ALDAC">      1.00000000</i>
   <i name="AGGAC">      1.00000000</i>
   <i type="int" name="NKREDX">     1</i>
   <i type="int" name="NKREDY">     1</i>
   <i type="int" name="NKREDZ">     1</i>
   <i type="logical" name="SHIFTRED"> F  </i>
   <i type="logical" name="ODDONLY"> F  </i>
   <i type="logical" name="EVENONLY"> F  </i>
   <i type="int" name="LMAXFOCK">     0</i>
   <i type="int" name="NMAXFOCKAE">     0</i>
   <i type="logical" name="LFOCKAEDFT"> F  </i>
   <i name="HFSCREEN">      0.00000000</i>
   <i name="HFSCREENC">      0.00000000</i>
   <i type="int" name="NBANDSGWLOW">     0</i>
  </separator>
  <separator name="vdW DFT" >
   <i type="logical" name="LUSE_VDW"> F  </i>
   <i name="Zab_VDW">     -0.84910000</i>
   <i name="PARAM1">      0.12340000</i>
   <i name="PARAM2">      1.00000000</i>
   <i name="PARAM3">      0.00000000</i>
  </separator>
  <separator name="model GW" >
   <i type="int" name="MODEL_GW">     0</i>
   <i name="MODEL_EPS0">    600.00000000</i>
   <i name="MODEL_ALPHA">      1.00000000</i>
  </separator>
  <separator name="linear response parameters" >
   <i type="logical" name="LEPSILON"> F  </i>
   <i type="logical" name="LRPA"> F  </i>
   <i type="logical" name="LNABLA"> F  </i>
   <i type="logical" name="LVEL"> F  </i>
   <i type="int" name="KINTER">     0</i>
   <i name="CSHIFT">      0.10000000</i>
   <i name="OMEGAMAX">     -1.00000000</i>
   <i name="DEG_THRESHOLD">      0.00200000</i>
   <i name="RTIME">     -0.10000000</i>
   <i name="WPLASMAI">      0.00000000</i>
   <v name="DFIELD">      0.00000000      0.00000000      0.00000000</v>
   <v name="WPLASMA">      0.00000000      0.00000000      0.00000000      0.00000000      0.00000000      0.00000000      0.00000000      0.00000000      0.00000000</v>
  </separator>
  <separator name="orbital magnetization" >
   <i type="logical" name="NUCIND"> F  </i>
   <v name="MAGPOS">      0.00000000      0.00000000      0.00000000</v>
   <i type="logical" name="LNICSALL"> T  </i>
   <i type="logical" name="ORBITALMAG"> F  </i>
   <i type="logical" name="LMAGBLOCH"> F  </i>
   <i type="logical" name="LCHIMAG"> F  </i>
   <i type="logical" name="LGAUGE"> T  </i>
   <i type="int" name="MAGATOM">     0</i>
   <v name="MAGDIPOL">      0.00000000      0.00000000      0.00000000</v>
   <v name="AVECCONST">      0.00000000      0.00000000      0.00000000</v>
  </separator>
  <separator name="response functions" >
   <i type="logical" name="LADDER"> F  </i>
   <i type="logical" name="LRPAFORCE"> F  </i>
   <i type="logical" name="LFXC"> F  </i>
   <i type="logical" name="LHARTREE"> T  </i>
   <i type="int" name="IBSE">     0</i>
   <v type="int" name="KPOINT">    -1     0     0     0</v>
   <i type="logical" name="LTCTE"> F  </i>
   <i type="logical" name="LTETE"> F  </i>
   <i type="logical" name="LTRIPLET"> F  </i>
   <i type="logical" name="LFXCEPS"> F  </i>
   <i type="logical" name="LFXHEG"> F  </i>
   <i type="int" name="NATURALO">     2</i>
   <i type="logical" name="L2ORDER"> F  </i>
   <i type="logical" name="LMP2LT"> F  </i>
   <i type="logical" name="LUSEW"> F  </i>
   <i name="ENCUTGW">     -2.00000000</i>
   <i name="ENCUTGWSOFT">     -2.00000000</i>
   <i name="ENCUTLF">     -1.00000000</i>
   <i type="int" name="LMAXMP2">    -1</i>
   <i name="SCISSOR">      0.00000000</i>
   <i type="int" name="NOMEGA">     0</i>
   <i type="int" name="NOMEGAR">     0</i>
   <i type="int" name="NBANDSGW">    -1</i>
   <i type="int" name="NBANDSO">    -1</i>
   <i type="int" name="NBANDSV">    -1</i>
   <i type="int" name="NELM">   300</i>
   <i type="int" name="NELMHF">     1</i>
   <i type="int" name="DIM">     3</i>
   <i type="int" name="ANTIRES">     0</i>
   <i name="OMEGAMAX">    -30.00000000</i>
   <i name="OMEGAMIN">    -30.00000000</i>
   <i name="OMEGATL">   -200.00000000</i>
   <i type="int" name="OMEGAGRID">   140</i>
   <i name="CSHIFT">     -0.10000000</i>
   <i type="logical" name="SELFENERGY"> F  </i>
   <i type="logical" name="LSPECTRAL"> F  </i>
   <i type="logical" name="LSPECTRALGW"> F  </i>
   <i type="logical" name="LSINGLES"> F  </i>
   <i type="logical" name="LFERMIGW"> F  </i>
   <i type="logical" name="ODDONLYGW"> F  </i>
   <i type="logical" name="EVENONLYGW"> F  </i>
   <i type="int" name="NKREDLFX">     1</i>
   <i type="int" name="NKREDLFY">     1</i>
   <i type="int" name="NKREDLFZ">     1</i>
   <i type="int" name="MAXMEM">  2800</i>
   <i type="int" name="TELESCOPE">     0</i>
   <i type="int" name="TAUPAR">     1</i>
   <i type="int" name="OMEGAPAR">    -1</i>
   <i name="LAMBDA">      1.00000000</i>
  </separator>
  <separator name="External order field" >
   <i name="OFIELD_KAPPA">      0.00000000</i>
   <v name="OFIELD_K">      0.00000000      0.00000000      0.00000000</v>
   <i name="OFIELD_Q6_NEAR">      0.00000000</i>
   <i name="OFIELD_Q6_FAR">      0.00000000</i>
   <i name="OFIELD_A">      0.00000000</i>
  </separator>
 </parameters>
 <atominfo>
  <atoms>       1 </atoms>
  <types>       1 </types>
  <array name="atoms" >
   <dimension dim="1">ion</dimension>
   <field type="string">element</field>
   <field type="int">atomtype</field>
   <set>
    <rc><c>La</c><c>   1</c></rc>
   </set>
  </array>
  <array name="atomtypes" >
   <dimension dim="1">type</dimension>
   <field type="int">atomspertype</field>
   <field type="string">element</field>
   <field>mass</field>
   <field>valence</field>
   <field type="string">pseudopotential</field>
   <set>
    <rc><c>   1</c><c>La</c><c>    138.90000000</c><c>     11.00000000</c><c>  PAW_PBE La 06Sep2000                  </c></rc>
   </set>
  </array>
 </atominfo>
 <structure name="initialpos" >
  <crystal>
   <varray name="basis" >
    <v>      10.00000000       0.00000000       0.00000000 </v>
    <v>       0.00000000      10.00000000       0.00000000 </v>
    <v>       0.00000000       0.00000000      10.00000000 </v>
   </varray>
   <i name="volume">   1000.00000000 </i>
   <varray name="rec_basis" >
    <v>       0.10000000       0.00000000       0.00000000 </v>
    <v>       0.00000000       0.10000000       0.00000000 </v>
    <v>       0.00000000       0.00000000       0.10000000 </v>
   </varray>
  </crystal>
  <varray name="positions" >
   <v>       0.50000000       0.50000000       0.50000000 </v>
  </varray>
 </structure>
 <calculation>
  <scstep>
   <time name="dav">    0.29    0.29</time>
   <time name="total">    1.53    1.54</time>
   <energy>
    <i name="alphaZ">      1.33529066 </i>
    <i name="ewald">   -247.18170407 </i>
    <i name="hartreedc">   -432.22558194 </i>
    <i name="XCdc">     27.74931211 </i>
    <i name="pawpsdc">    643.89481631 </i>
    <i name="pawaedc">   -643.22520187 </i>
    <i name="eentropy">     -0.01654754 </i>
    <i name="bandstr">    -77.58243790 </i>
    <i name="atom">    865.97535665 </i>
    <i name="e_fr_energy">    138.72330242 </i>
    <i name="e_wo_entrp">    138.73984995 </i>
    <i name="e_0_energy">    138.73157618 </i>
   </energy>
  </scstep>
  <scstep>
   <time name="dav">    0.52    0.52</time>
   <time name="total">    0.52    0.52</time>
   <energy>
    <i name="e_fr_energy">      0.89322543 </i>
    <i name="e_wo_entrp">      0.98479128 </i>
    <i name="e_0_energy">      0.93900836 </i>
   </energy>
  </scstep>
  <scstep>
   <time name="dav">    0.29    0.29</time>
   <time name="total">    0.29    0.29</time>
   <energy>
    <i name="e_fr_energy">     -2.94894878 </i>
    <i name="e_wo_entrp">     -2.85180433 </i>
    <i name="e_0_energy">     -2.90037656 </i>
   </energy>
  </scstep>
  <scstep>
   <time name="dav">    0.39    0.39</time>
   <time name="total">    0.39    0.39</time>
   <energy>
    <i name="e_fr_energy">     -2.98658465 </i>
    <i name="e_wo_entrp">     -2.88943826 </i>
    <i name="e_0_energy">     -2.93801146 </i>
   </energy>
  </scstep>
  <scstep>
   <time name="dav">    0.29    0.29</time>
   <time name="total">    0.54    0.54</time>
   <energy>
    <i name="e_fr_energy">     -2.98670597 </i>
    <i name="e_wo_entrp">     -2.88955959 </i>
    <i name="e_0_energy">     -2.93813278 </i>
   </energy>
  </scstep>
  <scstep>
   <time name="dav">    0.52    0.52</time>
   <time name="total">    1.99    1.99</time>
   <energy>
    <i name="e_fr_energy">    -10.17605073 </i>
    <i name="e_wo_entrp">    -10.13950411 </i>
    <i name="e_0_energy">    -10.15777742 </i>
   </energy>
  </scstep>
  <scstep>
   <time name="dav">    0.46    0.46</time>
   <time name="total">    1.92    1.92</time>
   <energy>
    <i name="e_fr_energy">     -4.44270572 </i>
    <i name="e_wo_entrp">     -4.41331892 </i>
    <i name="e_0_energy">     -4.42801232 </i>
   </energy>
  </scstep>
  <scstep>
   <time name="dav">    0.51    0.51</time>
   <time name="total">    1.96    1.96</time>
   <energy>
    <i name="e_fr_energy">     -2.81627754 </i>
    <i name="e_wo_entrp">     -2.78806437 </i>
    <i name="e_0_energy">     -2.80217096 </i>
   </energy>
  </scstep>
  <scstep>
   <time name="dav">    0.34    0.34</time>
   <time name="total">    1.81    1.81</time>
   <energy>
    <i name="e_fr_energy">     -1.17831314 </i>
    <i name="e_wo_entrp">     -1.15010366 </i>
    <i name="e_0_energy">     -1.16420840 </i>
   </energy>
  </scstep>
  <scstep>
   <time name="dav">    0.40    0.40</time>
   <time name="total">    1.85    1.85</time>
   <energy>
    <i name="e_fr_energy">     -0.60491427 </i>
    <i name="e_wo_entrp">     -0.57670479 </i>
    <i name="e_0_energy">     -0.59080953 </i>
   </energy>
  </scstep>
  <scstep>
   <time name="dav">    0.28    0.28</time>
   <time name="total">    1.73    1.73</time>
   <energy>
    <i name="e_fr_energy">     -0.62208822 </i>
    <i name="e_wo_entrp">     -0.57121719 </i>
    <i name="e_0_energy">     -0.59665271 </i>
   </energy>
  </scstep>
  <scstep>
   <time name="dav">    0.29    0.29</time>
   <time name="total">    1.73    1.73</time>
   <energy>
    <i name="e_fr_energy">     -0.47213051 </i>
    <i name="e_wo_entrp">     -0.44392103 </i>
    <i name="e_0_energy">     -0.45802577 </i>
   </energy>
  </scstep>
  <scstep>
   <time name="dav">    0.29    0.29</time>
   <time name="total">    1.74    1.74</time>
   <energy>
    <i name="e_fr_energy">     -0.53932123 </i>
    <i name="e_wo_entrp">     -0.51111175 </i>
    <i name="e_0_energy">     -0.52521649 </i>
   </energy>
  </scstep>
  <scstep>
   <time name="dav">    0.29    0.29</time>
   <time name="total">    1.74    1.74</time>
   <energy>
    <i name="e_fr_energy">     -0.51351445 </i>
    <i name="e_wo_entrp">     -0.48530497 </i>
    <i name="e_0_energy">     -0.49940971 </i>
   </energy>
  </scstep>
  <scstep>
   <time name="dav">    0.29    0.29</time>
   <time name="total">    1.74    1.75</time>
   <energy>
    <i name="e_fr_energy">     -0.55151895 </i>
    <i name="e_wo_entrp">     -0.52330947 </i>
    <i name="e_0_energy">     -0.53741421 </i>
   </energy>
  </scstep>
  <scstep>
   <time name="dav">    0.28    0.29</time>
   <time name="total">    1.73    1.73</time>
   <energy>
    <i name="e_fr_energy">     -0.51074989 </i>
    <i name="e_wo_entrp">     -0.48202921 </i>
    <i name="e_0_energy">     -0.49638955 </i>
   </energy>
  </scstep>
  <scstep>
   <time name="dav">    0.29    0.29</time>
   <time name="total">    1.74    1.74</time>
   <energy>
    <i name="e_fr_energy">     -0.50861212 </i>
    <i name="e_wo_entrp">     -0.47560774 </i>
    <i name="e_0_energy">     -0.49210993 </i>
   </energy>
  </scstep>
  <scstep>
   <time name="dav">    0.29    0.29</time>
   <time name="total">    1.74    1.75</time>
   <energy>
    <i name="e_fr_energy">     -0.50780985 </i>
    <i name="e_wo_entrp">     -0.48506384 </i>
    <i name="e_0_energy">     -0.49643685 </i>
   </energy>
  </scstep>
  <scstep>
   <time name="dav">    0.28    0.28</time>
   <time name="total">    1.73    1.73</time>
   <energy>
    <i name="e_fr_energy">     -0.50778944 </i>
    <i name="e_wo_entrp">     -0.49422332 </i>
    <i name="e_0_energy">     -0.50100638 </i>
   </energy>
  </scstep>
  <scstep>
   <time name="dav">    0.29    0.29</time>
   <time name="total">    1.74    1.74</time>
   <energy>
    <i name="e_fr_energy">     -0.50353944 </i>
    <i name="e_wo_entrp">     -0.49118959 </i>
    <i name="e_0_energy">     -0.49736452 </i>
   </energy>
  </scstep>
  <scstep>
   <time name="dav">    0.29    0.29</time>
   <time name="total">    1.74    1.74</time>
   <energy>
    <i name="e_fr_energy">     -0.50457089 </i>
    <i name="e_wo_entrp">     -0.49364003 </i>
    <i name="e_0_energy">     -0.49910546 </i>
   </energy>
  </scstep>
  <scstep>
   <time name="dav">    0.29    0.29</time>
   <time name="total">    1.74    1.74</time>
   <energy>
    <i name="e_fr_energy">     -0.48686453 </i>
    <i name="e_wo_entrp">     -0.47022583 </i>
    <i name="e_0_energy">     -0.47854518 </i>
   </energy>
  </scstep>
  <scstep>
   <time name="dav">    0.28    0.28</time>
   <time name="total">    1.73    1.73</time>
   <energy>
    <i name="e_fr_energy">     -0.44746464 </i>
    <i name="e_wo_entrp">     -0.40913933 </i>
    <i name="e_0_energy">     -0.42830198 </i>
   </energy>
  </scstep>
  <scstep>
   <time name="dav">    0.29    0.29</time>
   <time name="total">    1.74    1.74</time>
   <energy>
    <i name="e_fr_energy">     -0.47834521 </i>
    <i name="e_wo_entrp">     -0.43978544 </i>
    <i name="e_0_energy">     -0.45906532 </i>
   </energy>
  </scstep>
  <scstep>
   <time name="dav">    0.29    0.29</time>
   <time name="total">    1.73    1.73</time>
   <energy>
    <i name="e_fr_energy">     -0.49482465 </i>
    <i name="e_wo_entrp">     -0.45944068 </i>
    <i name="e_0_energy">     -0.47713267 </i>
   </energy>
  </scstep>
  <scstep>
   <time name="dav">    0.29    0.29</time>
   <time name="total">    1.74    1.74</time>
   <energy>
    <i name="e_fr_energy">     -0.48636869 </i>
    <i name="e_wo_entrp">     -0.45293946 </i>
    <i name="e_0_energy">     -0.46965408 </i>
   </energy>
  </scstep>
  <scstep>
   <time name="dav">    0.29    0.29</time>
   <time name="total">    1.73    1.73</time>
   <energy>
    <i name="e_fr_energy">     -0.48249048 </i>
    <i name="e_wo_entrp">     -0.45040901 </i>
    <i name="e_0_energy">     -0.46644974 </i>
   </energy>
  </scstep>
  <scstep>
   <time name="dav">    0.28    0.28</time>
   <time name="total">    1.73    1.73</time>
   <energy>
    <i name="e_fr_energy">     -0.47866787 </i>
    <i name="e_wo_entrp">     -0.44602350 </i>
    <i name="e_0_energy">     -0.46234569 </i>
   </energy>
  </scstep>
  <scstep>
   <time name="dav">    0.29    0.29</time>
   <time name="total">    1.74    1.74</time>
   <energy>
    <i name="e_fr_energy">     -0.49112111 </i>
    <i name="e_wo_entrp">     -0.46617867 </i>
    <i name="e_0_energy">     -0.47864989 </i>
   </energy>
  </scstep>
  <scstep>
   <time name="dav">    0.29    0.29</time>
   <time name="total">    1.74    1.74</time>
   <energy>
    <i name="e_fr_energy">     -0.48773749 </i>
    <i name="e_wo_entrp">     -0.46602424 </i>
    <i name="e_0_energy">     -0.47688087 </i>
   </energy>
  </scstep>
  <scstep>
   <time name="dav">    0.29    0.29</time>
   <time name="total">    1.74    1.74</time>
   <energy>
    <i name="e_fr_energy">     -0.48504202 </i>
    <i name="e_wo_entrp">     -0.46461578 </i>
    <i name="e_0_energy">     -0.47482890 </i>
   </energy>
  </scstep>
  <scstep>
   <time name="dav">    0.29    0.29</time>
   <time name="total">    1.74    1.75</time>
   <energy>
    <i name="e_fr_energy">     -0.48625390 </i>
    <i name="e_wo_entrp">     -0.46715298 </i>
    <i name="e_0_energy">     -0.47670344 </i>
   </energy>
  </scstep>
  <scstep>
   <time name="dav">    0.29    0.29</time>
   <time name="total">    1.74    1.74</time>
   <energy>
    <i name="e_fr_energy">     -0.48652402 </i>
    <i name="e_wo_entrp">     -0.46805748 </i>
    <i name="e_0_energy">     -0.47729075 </i>
   </energy>
  </scstep>
  <scstep>
   <time name="dav">    0.29    0.29</time>
   <time name="total">    1.75    1.77</time>
   <energy>
    <i name="e_fr_energy">     -0.48849465 </i>
    <i name="e_wo_entrp">     -0.47116096 </i>
    <i name="e_0_energy">     -0.47982780 </i>
   </energy>
  </scstep>
  <scstep>
   <time name="dav">    0.29    0.29</time>
   <time name="total">    1.74    1.74</time>
   <energy>
    <i name="e_fr_energy">     -0.49029203 </i>
    <i name="e_wo_entrp">     -0.47382327 </i>
    <i name="e_0_energy">     -0.48205765 </i>
   </energy>
  </scstep>
  <scstep>
   <time name="dav">    0.29    0.29</time>
   <time name="total">    1.73    1.73</time>
   <energy>
    <i name="e_fr_energy">     -0.49054793 </i>
    <i name="e_wo_entrp">     -0.47464814 </i>
    <i name="e_0_energy">     -0.48259804 </i>
   </energy>
  </scstep>
  <scstep>
   <time name="dav">    0.29    0.29</time>
   <time name="total">    1.74    1.74</time>
   <energy>
    <i name="e_fr_energy">     -0.49153434 </i>
    <i name="e_wo_entrp">     -0.47600127 </i>
    <i name="e_0_energy">     -0.48376780 </i>
   </energy>
  </scstep>
  <scstep>
   <time name="dav">    0.18    0.18</time>
   <time name="total">    1.64    1.64</time>
   <energy>
    <i name="e_fr_energy">     -0.49168926 </i>
    <i name="e_wo_entrp">     -0.47642393 </i>
    <i name="e_0_energy">     -0.48405660 </i>
   </energy>
  </scstep>
  <scstep>
   <time name="dav">    0.18    0.18</time>
   <time name="total">    1.63    1.63</time>
   <energy>
    <i name="e_fr_energy">     -0.49157797 </i>
    <i name="e_wo_entrp">     -0.47628747 </i>
    <i name="e_0_energy">     -0.48393272 </i>
   </energy>
  </scstep>
  <scstep>
   <time name="dav">    0.29    0.29</time>
   <time name="total">    1.73    1.73</time>
   <energy>
    <i name="e_fr_energy">     -0.48329600 </i>
    <i name="e_wo_entrp">     -0.46511151 </i>
    <i name="e_0_energy">     -0.47420376 </i>
   </energy>
  </scstep>
  <scstep>
   <time name="dav">    0.29    0.29</time>
   <time name="total">    1.74    1.74</time>
   <energy>
    <i name="e_fr_energy">     -0.48379455 </i>
    <i name="e_wo_entrp">     -0.46513105 </i>
    <i name="e_0_energy">     -0.47446280 </i>
   </energy>
  </scstep>
  <scstep>
   <time name="dav">    0.29    0.29</time>
   <time name="total">    1.74    1.74</time>
   <energy>
    <i name="e_fr_energy">     -0.50874292 </i>
    <i name="e_wo_entrp">     -0.49464723 </i>
    <i name="e_0_energy">     -0.50169508 </i>
   </energy>
  </scstep>
  <scstep>
   <time name="dav">    0.28    0.28</time>
   <time name="total">    1.73    1.73</time>
   <energy>
    <i name="e_fr_energy">     -0.52142614 </i>
    <i name="e_wo_entrp">     -0.50831955 </i>
    <i name="e_0_energy">     -0.51487284 </i>
   </energy>
  </scstep>
  <scstep>
   <time name="dav">    0.29    0.29</time>
   <time name="total">    1.74    1.74</time>
   <energy>
    <i name="e_fr_energy">     -0.52250118 </i>
    <i name="e_wo_entrp">     -0.51000159 </i>
    <i name="e_0_energy">     -0.51625138 </i>
   </energy>
  </scstep>
  <scstep>
   <time name="dav">    0.23    0.23</time>
   <time name="total">    1.69    1.69</time>
   <energy>
    <i name="e_fr_energy">     -0.52479165 </i>
    <i name="e_wo_entrp">     -0.51206533 </i>
    <i name="e_0_energy">     -0.51842849 </i>
   </energy>
  </scstep>
  <scstep>
   <time name="dav">    0.28    0.28</time>
   <time name="total">    1.74    1.74</time>
   <energy>
    <i name="e_fr_energy">     -0.59499475 </i>
    <i name="e_wo_entrp">     -0.58446462 </i>
    <i name="e_0_energy">     -0.58972969 </i>
   </energy>
  </scstep>
  <scstep>
   <time name="dav">    0.34    0.34</time>
   <time name="total">    1.80    1.80</time>
   <energy>
    <i name="e_fr_energy">     -0.66599853 </i>
    <i name="e_wo_entrp">     -0.63016651 </i>
    <i name="e_0_energy">     -0.64808252 </i>
   </energy>
  </scstep>
  <scstep>
   <time name="dav">    0.29    0.29</time>
   <time name="total">    1.74    1.74</time>
   <energy>
    <i name="e_fr_energy">     -0.67488374 </i>
    <i name="e_wo_entrp">     -0.63785917 </i>
    <i name="e_0_energy">     -0.65637146 </i>
   </energy>
  </scstep>
  <scstep>
   <time name="dav">    0.29    0.29</time>
   <time name="total">    1.74    1.74</time>
   <energy>
    <i name="e_fr_energy">     -0.67354784 </i>
    <i name="e_wo_entrp">     -0.63345674 </i>
    <i name="e_0_energy">     -0.65350229 </i>
   </energy>
  </scstep>
  <scstep>
   <time name="dav">    0.29    0.29</time>
   <time name="total">    1.74    1.75</time>
   <energy>
    <i name="e_fr_energy">     -0.68012273 </i>
    <i name="e_wo_entrp">     -0.63958110 </i>
    <i name="e_0_energy">     -0.65985192 </i>
   </energy>
  </scstep>
  <scstep>
   <time name="dav">    0.29    0.29</time>
   <time name="total">    1.74    1.74</time>
   <energy>
    <i name="e_fr_energy">     -0.58868211 </i>
    <i name="e_wo_entrp">     -0.57222775 </i>
    <i name="e_0_energy">     -0.58045493 </i>
   </energy>
  </scstep>
  <scstep>
   <time name="dav">    0.28    0.28</time>
   <time name="total">    1.74    1.74</time>
   <energy>
    <i name="e_fr_energy">     -0.65427727 </i>
    <i name="e_wo_entrp">     -0.61464925 </i>
    <i name="e_0_energy">     -0.63446326 </i>
   </energy>
  </scstep>
  <scstep>
   <time name="dav">    0.28    0.28</time>
   <time name="total">    1.73    1.73</time>
   <energy>
    <i name="e_fr_energy">     -0.60287464 </i>
    <i name="e_wo_entrp">     -0.58037535 </i>
    <i name="e_0_energy">     -0.59162499 </i>
   </energy>
  </scstep>
  <scstep>
   <time name="dav">    0.39    0.39</time>
   <time name="total">    1.85    1.85</time>
   <energy>
    <i name="e_fr_energy">     -0.62542064 </i>
    <i name="e_wo_entrp">     -0.58757669 </i>
    <i name="e_0_energy">     -0.60649866 </i>
   </energy>
  </scstep>
  <scstep>
   <time name="dav">    0.29    0.29</time>
   <time name="total">    1.74    1.74</time>
   <energy>
    <i name="e_fr_energy">     -0.60560500 </i>
    <i name="e_wo_entrp">     -0.57771060 </i>
    <i name="e_0_energy">     -0.59165780 </i>
   </energy>
  </scstep>
  <scstep>
   <time name="dav">    0.34    0.34</time>
   <time name="total">    1.79    1.79</time>
   <energy>
    <i name="e_fr_energy">     -1.35392657 </i>
    <i name="e_wo_entrp">     -1.31534250 </i>
    <i name="e_0_energy">     -1.33463454 </i>
   </energy>
  </scstep>
  <scstep>
   <time name="dav">    0.29    0.29</time>
   <time name="total">    1.74    1.74</time>
   <energy>
    <i name="e_fr_energy">     -1.26625254 </i>
    <i name="e_wo_entrp">     -1.22680372 </i>
    <i name="e_0_energy">     -1.24652813 </i>
   </energy>
  </scstep>
  <scstep>
   <time name="dav">    0.34    0.34</time>
   <time name="total">    1.81    1.81</time>
   <energy>
    <i name="e_fr_energy">     -1.17771719 </i>
    <i name="e_wo_entrp">     -1.13411590 </i>
    <i name="e_0_energy">     -1.15591654 </i>
   </energy>
  </scstep>
  <scstep>
   <time name="dav">    0.28    0.28</time>
   <time name="total">    1.74    1.74</time>
   <energy>
    <i name="e_fr_energy">     -0.74233772 </i>
    <i name="e_wo_entrp">     -0.73890461 </i>
    <i name="e_0_energy">     -0.74062116 </i>
   </energy>
  </scstep>
  <scstep>
   <time name="dav">    0.29    0.29</time>
   <time name="total">    1.74    1.74</time>
   <energy>
    <i name="e_fr_energy">     -0.72825735 </i>
    <i name="e_wo_entrp">     -0.69302943 </i>
    <i name="e_0_energy">     -0.71064339 </i>
   </energy>
  </scstep>
  <scstep>
   <time name="dav">    0.29    0.29</time>
   <time name="total">    1.74    1.74</time>
   <energy>
    <i name="e_fr_energy">     -0.82169741 </i>
    <i name="e_wo_entrp">     -0.76073387 </i>
    <i name="e_0_energy">     -0.79121564 </i>
   </energy>
  </scstep>
  <scstep>
   <time name="dav">    0.28    0.28</time>
   <time name="total">    1.74    1.74</time>
   <energy>
    <i name="e_fr_energy">     -0.69224057 </i>
    <i name="e_wo_entrp">     -0.66181072 </i>
    <i name="e_0_energy">     -0.67702565 </i>
   </energy>
  </scstep>
  <scstep>
   <time name="dav">    0.34    0.34</time>
   <time name="total">    1.79    1.79</time>
   <energy>
    <i name="e_fr_energy">     -0.75443664 </i>
    <i name="e_wo_entrp">     -0.68271751 </i>
    <i name="e_0_energy">     -0.71857708 </i>
   </energy>
  </scstep>
  <scstep>
   <time name="dav">    0.29    0.29</time>
   <time name="total">    1.74    1.74</time>
   <energy>
    <i name="e_fr_energy">     -0.66757818 </i>
    <i name="e_wo_entrp">     -0.64304993 </i>
    <i name="e_0_energy">     -0.65531405 </i>
   </energy>
  </scstep>
  <scstep>
   <time name="dav">    0.28    0.28</time>
   <time name="total">    1.74    1.74</time>
   <energy>
    <i name="e_fr_energy">     -0.71763225 </i>
    <i name="e_wo_entrp">     -0.64179675 </i>
    <i name="e_0_energy">     -0.67971450 </i>
   </energy>
  </scstep>
  <scstep>
   <time name="dav">    0.28    0.28</time>
   <time name="total">    1.74    1.74</time>
   <energy>
    <i name="e_fr_energy">     -0.79352142 </i>
    <i name="e_wo_entrp">     -0.76075254 </i>
    <i name="e_0_energy">     -0.77713698 </i>
   </energy>
  </scstep>
  <scstep>
   <time name="dav">    0.29    0.29</time>
   <time name="total">    1.74    1.74</time>
   <energy>
    <i name="e_fr_energy">     -0.80222794 </i>
    <i name="e_wo_entrp">     -0.73722320 </i>
    <i name="e_0_energy">     -0.76972557 </i>
   </energy>
  </scstep>
  <scstep>
   <time name="dav">    0.34    0.34</time>
   <time name="total">    1.80    1.80</time>
   <energy>
    <i name="e_fr_energy">     -0.84061189 </i>
    <i name="e_wo_entrp">     -0.83296403 </i>
    <i name="e_0_energy">     -0.83678796 </i>
   </energy>
  </scstep>
  <scstep>
   <time name="dav">    0.29    0.29</time>
   <time name="total">    1.75    1.75</time>
   <energy>
    <i name="e_fr_energy">     -0.74200265 </i>
    <i name="e_wo_entrp">     -0.67885720 </i>
    <i name="e_0_energy">     -0.71042992 </i>
   </energy>
  </scstep>
  <scstep>
   <time name="dav">    0.29    0.29</time>
   <time name="total">    1.75    1.75</time>
   <energy>
    <i name="e_fr_energy">     -0.79788037 </i>
    <i name="e_wo_entrp">     -0.78782492 </i>
    <i name="e_0_energy">     -0.79285265 </i>
   </energy>
  </scstep>
  <scstep>
   <time name="dav">    0.29    0.29</time>
   <time name="total">    1.74    1.74</time>
   <energy>
    <i name="e_fr_energy">     -0.64903800 </i>
    <i name="e_wo_entrp">     -0.61001948 </i>
    <i name="e_0_energy">     -0.62952874 </i>
   </energy>
  </scstep>
  <scstep>
   <time name="dav">    0.29    0.29</time>
   <time name="total">    1.74    1.74</time>
   <energy>
    <i name="e_fr_energy">     -0.60469577 </i>
    <i name="e_wo_entrp">     -0.58420047 </i>
    <i name="e_0_energy">     -0.59444812 </i>
   </energy>
  </scstep>
  <scstep>
   <time name="dav">    0.29    0.29</time>
   <time name="total">    1.74    1.74</time>
   <energy>
    <i name="e_fr_energy">     -0.50735389 </i>
    <i name="e_wo_entrp">     -0.46874988 </i>
    <i name="e_0_energy">     -0.48805188 </i>
   </energy>
  </scstep>
  <scstep>
   <time name="dav">    0.28    0.28</time>
   <time name="total">    1.74    1.74</time>
   <energy>
    <i name="e_fr_energy">     -0.49735568 </i>
    <i name="e_wo_entrp">     -0.46129794 </i>
    <i name="e_0_energy">     -0.47932681 </i>
   </energy>
  </scstep>
  <scstep>
   <time name="dav">    0.29    0.29</time>
   <time name="total">    1.74    1.74</time>
   <energy>
    <i name="e_fr_energy">     -0.42053606 </i>
    <i name="e_wo_entrp">     -0.37644510 </i>
    <i name="e_0_energy">     -0.39849058 </i>
   </energy>
  </scstep>
  <scstep>
   <time name="dav">    0.28    0.28</time>
   <time name="total">    1.73    1.73</time>
   <energy>
    <i name="e_fr_energy">     -0.52933774 </i>
    <i name="e_wo_entrp">     -0.50112826 </i>
    <i name="e_0_energy">     -0.51523300 </i>
   </energy>
  </scstep>
  <scstep>
   <time name="dav">    0.29    0.29</time>
   <time name="total">    1.73    1.73</time>
   <energy>
    <i name="e_fr_energy">     -0.55259218 </i>
    <i name="e_wo_entrp">     -0.52438270 </i>
    <i name="e_0_energy">     -0.53848744 </i>
   </energy>
  </scstep>
  <scstep>
   <time name="dav">    0.34    0.34</time>
   <time name="total">    1.79    1.79</time>
   <energy>
    <i name="e_fr_energy">     -0.56049785 </i>
    <i name="e_wo_entrp">     -0.53228837 </i>
    <i name="e_0_energy">     -0.54639311 </i>
   </energy>
  </scstep>
  <scstep>
   <time name="dav">    0.29    0.29</time>
   <time name="total">    1.74    1.74</time>
   <energy>
    <i name="e_fr_energy">     -0.53511328 </i>
    <i name="e_wo_entrp">     -0.50690380 </i>
    <i name="e_0_energy">     -0.52100854 </i>
   </energy>
  </scstep>
  <scstep>
   <time name="dav">    0.34    0.34</time>
   <time name="total">    1.80    1.80</time>
   <energy>
    <i name="e_fr_energy">     -0.56003954 </i>
    <i name="e_wo_entrp">     -0.53183006 </i>
    <i name="e_0_energy">     -0.54593480 </i>
   </energy>
  </scstep>
  <scstep>
   <time name="dav">    0.29    0.29</time>
   <time name="total">    1.74    1.74</time>
   <energy>
    <i name="e_fr_energy">     -0.54818226 </i>
    <i name="e_wo_entrp">     -0.51997278 </i>
    <i name="e_0_energy">     -0.53407752 </i>
   </energy>
  </scstep>
  <scstep>
   <time name="dav">    0.34    0.34</time>
   <time name="total">    1.79    1.79</time>
   <energy>
    <i name="e_fr_energy">     -0.50767926 </i>
    <i name="e_wo_entrp">     -0.47946978 </i>
    <i name="e_0_energy">     -0.49357452 </i>
   </energy>
  </scstep>
  <scstep>
   <time name="dav">    0.34    0.34</time>
   <time name="total">    1.79    1.79</time>
   <energy>
    <i name="e_fr_energy">     -0.50858517 </i>
    <i name="e_wo_entrp">     -0.48037569 </i>
    <i name="e_0_energy">     -0.49448043 </i>
   </energy>
  </scstep>
  <scstep>
   <time name="dav">    0.34    0.34</time>
   <time name="total">    1.80    1.80</time>
   <energy>
    <i name="e_fr_energy">     -0.51189030 </i>
    <i name="e_wo_entrp">     -0.48368082 </i>
    <i name="e_0_energy">     -0.49778556 </i>
   </energy>
  </scstep>
  <scstep>
   <time name="dav">    0.34    0.34</time>
   <time name="total">    1.82    1.82</time>
   <energy>
    <i name="e_fr_energy">     -0.48966563 </i>
    <i name="e_wo_entrp">     -0.46145616 </i>
    <i name="e_0_energy">     -0.47556089 </i>
   </energy>
  </scstep>
  <scstep>
   <time name="dav">    0.29    0.29</time>
   <time name="total">    1.73    1.73</time>
   <energy>
    <i name="e_fr_energy">     -0.44616076 </i>
    <i name="e_wo_entrp">     -0.41795128 </i>
    <i name="e_0_energy">     -0.43205602 </i>
   </energy>
  </scstep>
  <scstep>
   <time name="dav">    0.34    0.34</time>
   <time name="total">    1.79    1.79</time>
   <energy>
    <i name="e_fr_energy">     -0.43797968 </i>
    <i name="e_wo_entrp">     -0.40977019 </i>
    <i name="e_0_energy">     -0.42387494 </i>
   </energy>
  </scstep>
  <scstep>
   <time name="dav">    0.29    0.29</time>
   <time name="total">    1.73    1.74</time>
   <energy>
    <i name="e_fr_energy">     -0.43955047 </i>
    <i name="e_wo_entrp">     -0.41134096 </i>
    <i name="e_0_energy">     -0.42544571 </i>
   </energy>
  </scstep>
  <scstep>
   <time name="dav">    0.28    0.28</time>
   <time name="total">    1.74    1.74</time>
   <energy>
    <i name="e_fr_energy">     -0.43282743 </i>
    <i name="e_wo_entrp">     -0.40460174 </i>
    <i name="e_0_energy">     -0.41871459 </i>
   </energy>
  </scstep>
  <scstep>
   <time name="dav">    0.34    0.34</time>
   <time name="total">    1.79    1.79</time>
   <energy>
    <i name="e_fr_energy">     -0.42475894 </i>
    <i name="e_wo_entrp">     -0.39421843 </i>
    <i name="e_0_energy">     -0.40948869 </i>
   </energy>
  </scstep>
  <scstep>
   <time name="dav">    0.34    0.34</time>
   <time name="total">    1.79    1.79</time>
   <energy>
    <i name="e_fr_energy">     -0.42866096 </i>
    <i name="e_wo_entrp">     -0.39388350 </i>
    <i name="e_0_energy">     -0.41127223 </i>
   </energy>
  </scstep>
  <scstep>
   <time name="dav">    0.34    0.34</time>
   <time name="total">    1.79    1.79</time>
   <energy>
    <i name="e_fr_energy">     -0.44081218 </i>
    <i name="e_wo_entrp">     -0.41193596 </i>
    <i name="e_0_energy">     -0.42637407 </i>
   </energy>
  </scstep>
  <scstep>
   <time name="dav">    0.28    0.28</time>
   <time name="total">    1.73    1.73</time>
   <energy>
    <i name="e_fr_energy">     -0.43752958 </i>
    <i name="e_wo_entrp">     -0.39267320 </i>
    <i name="e_0_energy">     -0.41510139 </i>
   </energy>
  </scstep>
  <scstep>
   <time name="dav">    0.34    0.34</time>
   <time name="total">    1.79    1.79</time>
   <energy>
    <i name="e_fr_energy">     -0.48549302 </i>
    <i name="e_wo_entrp">     -0.45728355 </i>
    <i name="e_0_energy">     -0.47138829 </i>
   </energy>
  </scstep>
  <scstep>
   <time name="dav">    0.34    0.34</time>
   <time name="total">    1.80    1.80</time>
   <energy>
    <i name="e_fr_energy">     -0.45025547 </i>
    <i name="e_wo_entrp">     -0.41986760 </i>
    <i name="e_0_energy">     -0.43506153 </i>
   </energy>
  </scstep>
  <scstep>
   <time name="dav">    0.34    0.34</time>
   <time name="total">    1.79    1.79</time>
   <energy>
    <i name="e_fr_energy">     -0.44765630 </i>
    <i name="e_wo_entrp">     -0.41714957 </i>
    <i name="e_0_energy">     -0.43240294 </i>
   </energy>
  </scstep>
  <scstep>
   <time name="dav">    0.29    0.29</time>
   <time name="total">    1.74    1.74</time>
   <energy>
    <i name="e_fr_energy">     -0.44780598 </i>
    <i name="e_wo_entrp">     -0.40484008 </i>
    <i name="e_0_energy">     -0.42632303 </i>
   </energy>
  </scstep>
  <scstep>
   <time name="dav">    0.34    0.34</time>
   <time name="total">    1.79    1.79</time>
   <energy>
    <i name="e_fr_energy">     -0.47809276 </i>
    <i name="e_wo_entrp">     -0.44988319 </i>
    <i name="e_0_energy">     -0.46398798 </i>
   </energy>
  </scstep>
  <scstep>
   <time name="dav">    0.34    0.34</time>
   <time name="total">    1.79    1.79</time>
   <energy>
    <i name="e_fr_energy">     -0.45617969 </i>
    <i name="e_wo_entrp">     -0.42360285 </i>
    <i name="e_0_energy">     -0.43989127 </i>
   </energy>
  </scstep>
  <scstep>
   <time name="dav">    0.29    0.29</time>
   <time name="total">    1.74    1.74</time>
   <energy>
    <i name="e_fr_energy">     -0.45747131 </i>
    <i name="e_wo_entrp">     -0.42180997 </i>
    <i name="e_0_energy">     -0.43964064 </i>
   </energy>
  </scstep>
  <scstep>
   <time name="dav">    0.29    0.29</time>
   <time name="total">    1.77    1.77</time>
   <energy>
    <i name="e_fr_energy">     -0.47166810 </i>
    <i name="e_wo_entrp">     -0.41246603 </i>
    <i name="e_0_energy">     -0.44206707 </i>
   </energy>
  </scstep>
  <scstep>
   <time name="dav">    0.34    0.34</time>
   <time name="total">    1.79    1.80</time>
   <energy>
    <i name="e_fr_energy">     -0.46959691 </i>
    <i name="e_wo_entrp">     -0.42080780 </i>
    <i name="e_0_energy">     -0.44520236 </i>
   </energy>
  </scstep>
  <scstep>
   <time name="dav">    0.28    0.28</time>
   <time name="total">    1.73    1.74</time>
   <energy>
    <i name="e_fr_energy">     -0.46913801 </i>
    <i name="e_wo_entrp">     -0.42556131 </i>
    <i name="e_0_energy">     -0.44734966 </i>
   </energy>
  </scstep>
  <scstep>
   <time name="dav">    0.29    0.29</time>
   <time name="total">    1.74    1.74</time>
   <energy>
    <i name="e_fr_energy">     -0.48371822 </i>
    <i name="e_wo_entrp">     -0.42736917 </i>
    <i name="e_0_energy">     -0.45554369 </i>
   </energy>
  </scstep>
  <scstep>
   <time name="dav">    0.34    0.34</time>
   <time name="total">    1.79    1.80</time>
   <energy>
    <i name="e_fr_energy">     -0.53365719 </i>
    <i name="e_wo_entrp">     -0.49278580 </i>
    <i name="e_0_energy">     -0.51322150 </i>
   </energy>
  </scstep>
  <scstep>
   <time name="dav">    0.28    0.28</time>
   <time name="total">    1.73    1.73</time>
   <energy>
    <i name="e_fr_energy">     -0.43860921 </i>
    <i name="e_wo_entrp">     -0.38921252 </i>
    <i name="e_0_energy">     -0.41391086 </i>
   </energy>
  </scstep>
  <scstep>
   <time name="dav">    0.34    0.34</time>
   <time name="total">    1.79    1.79</time>
   <energy>
    <i name="e_fr_energy">     -0.44437410 </i>
    <i name="e_wo_entrp">     -0.40083288 </i>
    <i name="e_0_energy">     -0.42260349 </i>
   </energy>
  </scstep>
  <scstep>
   <time name="dav">    0.28    0.28</time>
   <time name="total">    1.73    1.73</time>
   <energy>
    <i name="e_fr_energy">     -0.46136107 </i>
    <i name="e_wo_entrp">     -0.41503042 </i>
    <i name="e_0_energy">     -0.43819574 </i>
   </energy>
  </scstep>
  <scstep>
   <time name="dav">    0.29    0.29</time>
   <time name="total">    1.73    1.73</time>
   <energy>
    <i name="e_fr_energy">     -0.47193752 </i>
    <i name="e_wo_entrp">     -0.44260647 </i>
    <i name="e_0_energy">     -0.45727199 </i>
   </energy>
  </scstep>
  <scstep>
   <time name="dav">    0.28    0.28</time>
   <time name="total">    1.74    1.74</time>
   <energy>
    <i name="e_fr_energy">     -0.46790129 </i>
    <i name="e_wo_entrp">     -0.42438061 </i>
    <i name="e_0_energy">     -0.44614095 </i>
   </energy>
  </scstep>
  <scstep>
   <time name="dav">    0.39    0.39</time>
   <time name="total">    1.84    1.84</time>
   <energy>
    <i name="e_fr_energy">     -1.25795171 </i>
    <i name="e_wo_entrp">     -1.20450054 </i>
    <i name="e_0_energy">     -1.23122612 </i>
   </energy>
  </scstep>
  <scstep>
   <time name="dav">    0.34    0.34</time>
   <time name="total">    1.79    1.79</time>
   <energy>
    <i name="e_fr_energy">     -1.95016820 </i>
    <i name="e_wo_entrp">     -1.92195870 </i>
    <i name="e_0_energy">     -1.93606345 </i>
   </energy>
  </scstep>
  <scstep>
   <time name="dav">    0.35    0.35</time>
   <time name="total">    1.80    1.80</time>
   <energy>
    <i name="e_fr_energy">     -1.02488835 </i>
    <i name="e_wo_entrp">     -0.99667887 </i>
    <i name="e_0_energy">     -1.01078361 </i>
   </energy>
  </scstep>
  <scstep>
   <time name="dav">    0.34    0.34</time>
   <time name="total">    1.79    1.79</time>
   <energy>
    <i name="e_fr_energy">     -0.67908042 </i>
    <i name="e_wo_entrp">     -0.65087094 </i>
    <i name="e_0_energy">     -0.66497568 </i>
   </energy>
  </scstep>
  <scstep>
   <time name="dav">    0.28    0.28</time>
   <time name="total">    1.73    1.73</time>
   <energy>
    <i name="e_fr_energy">     -0.65326319 </i>
    <i name="e_wo_entrp">     -0.62505371 </i>
    <i name="e_0_energy">     -0.63915845 </i>
   </energy>
  </scstep>
  <scstep>
   <time name="dav">    0.29    0.29</time>
   <time name="total">    1.74    1.74</time>
   <energy>
    <i name="e_fr_energy">     -0.51558879 </i>
    <i name="e_wo_entrp">     -0.48736717 </i>
    <i name="e_0_energy">     -0.50147798 </i>
   </energy>
  </scstep>
  <scstep>
   <time name="dav">    0.34    0.34</time>
   <time name="total">    1.79    1.79</time>
   <energy>
    <i name="e_fr_energy">     -0.50576237 </i>
    <i name="e_wo_entrp">     -0.47688343 </i>
    <i name="e_0_energy">     -0.49132290 </i>
   </energy>
  </scstep>
  <scstep>
   <time name="dav">    0.29    0.29</time>
   <time name="total">    1.74    1.74</time>
   <energy>
    <i name="e_fr_energy">     -0.49960931 </i>
    <i name="e_wo_entrp">     -0.46728214 </i>
    <i name="e_0_energy">     -0.48344573 </i>
   </energy>
  </scstep>
  <scstep>
   <time name="dav">    0.28    0.28</time>
   <time name="total">    1.74    1.75</time>
   <energy>
    <i name="e_fr_energy">     -0.54824781 </i>
    <i name="e_wo_entrp">     -0.53384571 </i>
    <i name="e_0_energy">     -0.54104676 </i>
   </energy>
  </scstep>
  <scstep>
   <time name="dav">    0.29    0.29</time>
   <time name="total">    1.76    1.76</time>
   <energy>
    <i name="e_fr_energy">     -1.62674590 </i>
    <i name="e_wo_entrp">     -1.55059143 </i>
    <i name="e_0_energy">     -1.58866867 </i>
   </energy>
  </scstep>
  <scstep>
   <time name="dav">    0.29    0.29</time>
   <time name="total">    1.75    1.75</time>
   <energy>
    <i name="e_fr_energy">     -1.88006835 </i>
    <i name="e_wo_entrp">     -1.82760528 </i>
    <i name="e_0_energy">     -1.85383681 </i>
   </energy>
  </scstep>
  <scstep>
   <time name="dav">    0.29    0.29</time>
   <time name="total">    1.75    1.75</time>
   <energy>
    <i name="e_fr_energy">     -0.47933443 </i>
    <i name="e_wo_entrp">     -0.45112495 </i>
    <i name="e_0_energy">     -0.46522969 </i>
   </energy>
  </scstep>
  <scstep>
   <time name="dav">    0.28    0.28</time>
   <time name="total">    1.73    1.73</time>
   <energy>
    <i name="e_fr_energy">     -0.63284179 </i>
    <i name="e_wo_entrp">     -0.60463231 </i>
    <i name="e_0_energy">     -0.61873705 </i>
   </energy>
  </scstep>
  <scstep>
   <time name="dav">    0.28    0.28</time>
   <time name="total">    1.73    1.73</time>
   <energy>
    <i name="e_fr_energy">     -0.62350174 </i>
    <i name="e_wo_entrp">     -0.59529226 </i>
    <i name="e_0_energy">     -0.60939700 </i>
   </energy>
  </scstep>
  <scstep>
   <time name="dav">    0.29    0.29</time>
   <time name="total">    1.74    1.74</time>
   <energy>
    <i name="e_fr_energy">     -0.64818067 </i>
    <i name="e_wo_entrp">     -0.61997119 </i>
    <i name="e_0_energy">     -0.63407593 </i>
   </energy>
  </scstep>
  <scstep>
   <time name="dav">    0.28    0.28</time>
   <time name="total">    1.73    1.73</time>
   <energy>
    <i name="e_fr_energy">     -0.65291650 </i>
    <i name="e_wo_entrp">     -0.62470702 </i>
    <i name="e_0_energy">     -0.63881176 </i>
   </energy>
  </scstep>
  <scstep>
   <time name="dav">    0.28    0.28</time>
   <time name="total">    1.73    1.73</time>
   <energy>
    <i name="e_fr_energy">     -0.62205706 </i>
    <i name="e_wo_entrp">     -0.59384758 </i>
    <i name="e_0_energy">     -0.60795232 </i>
   </energy>
  </scstep>
  <scstep>
   <time name="dav">    0.29    0.29</time>
   <time name="total">    1.73    1.73</time>
   <energy>
    <i name="e_fr_energy">     -0.62286489 </i>
    <i name="e_wo_entrp">     -0.59465541 </i>
    <i name="e_0_energy">     -0.60876015 </i>
   </energy>
  </scstep>
  <scstep>
   <time name="dav">    0.28    0.28</time>
   <time name="total">    1.73    1.73</time>
   <energy>
    <i name="e_fr_energy">     -0.62145277 </i>
    <i name="e_wo_entrp">     -0.59324329 </i>
    <i name="e_0_energy">     -0.60734803 </i>
   </energy>
  </scstep>
  <scstep>
   <time name="dav">    0.29    0.29</time>
   <time name="total">    1.73    1.73</time>
   <energy>
    <i name="e_fr_energy">     -0.62007383 </i>
    <i name="e_wo_entrp">     -0.59186435 </i>
    <i name="e_0_energy">     -0.60596909 </i>
   </energy>
  </scstep>
  <scstep>
   <time name="dav">    0.29    0.29</time>
   <time name="total">    1.73    1.73</time>
   <energy>
    <i name="e_fr_energy">     -0.63713200 </i>
    <i name="e_wo_entrp">     -0.60892252 </i>
    <i name="e_0_energy">     -0.62302726 </i>
   </energy>
  </scstep>
  <scstep>
   <time name="dav">    0.34    0.34</time>
   <time name="total">    1.78    1.78</time>
   <energy>
    <i name="e_fr_energy">     -0.63980212 </i>
    <i name="e_wo_entrp">     -0.61159264 </i>
    <i name="e_0_energy">     -0.62569738 </i>
   </energy>
  </scstep>
  <scstep>
   <time name="dav">    0.34    0.34</time>
   <time name="total">    1.78    1.78</time>
   <energy>
    <i name="e_fr_energy">     -0.61670924 </i>
    <i name="e_wo_entrp">     -0.58849977 </i>
    <i name="e_0_energy">     -0.60260450 </i>
   </energy>
  </scstep>
  <scstep>
   <time name="dav">    0.28    0.28</time>
   <time name="total">    1.73    1.73</time>
   <energy>
    <i name="e_fr_energy">     -0.61810850 </i>
    <i name="e_wo_entrp">     -0.58989902 </i>
    <i name="e_0_energy">     -0.60400376 </i>
   </energy>
  </scstep>
  <scstep>
   <time name="dav">    0.28    0.28</time>
   <time name="total">    1.73    1.73</time>
   <energy>
    <i name="e_fr_energy">     -0.61775927 </i>
    <i name="e_wo_entrp">     -0.58954979 </i>
    <i name="e_0_energy">     -0.60365453 </i>
   </energy>
  </scstep>
  <scstep>
   <time name="dav">    0.28    0.28</time>
   <time name="total">    1.73    1.73</time>
   <energy>
    <i name="e_fr_energy">     -0.61624018 </i>
    <i name="e_wo_entrp">     -0.58803070 </i>
    <i name="e_0_energy">     -0.60213544 </i>
   </energy>
  </scstep>
  <scstep>
   <time name="dav">    0.29    0.29</time>
   <time name="total">    1.74    1.74</time>
   <energy>
    <i name="e_fr_energy">     -0.61194762 </i>
    <i name="e_wo_entrp">     -0.58373815 </i>
    <i name="e_0_energy">     -0.59784288 </i>
   </energy>
  </scstep>
  <scstep>
   <time name="dav">    0.34    0.34</time>
   <time name="total">    1.79    1.79</time>
   <energy>
    <i name="e_fr_energy">     -0.60048148 </i>
    <i name="e_wo_entrp">     -0.57227201 </i>
    <i name="e_0_energy">     -0.58637674 </i>
   </energy>
  </scstep>
  <scstep>
   <time name="dav">    0.28    0.28</time>
   <time name="total">    1.77    1.77</time>
   <energy>
    <i name="e_fr_energy">     -0.59793297 </i>
    <i name="e_wo_entrp">     -0.56972349 </i>
    <i name="e_0_energy">     -0.58382823 </i>
   </energy>
  </scstep>
  <scstep>
   <time name="dav">    0.29    0.29</time>
   <time name="total">    1.73    1.74</time>
   <energy>
    <i name="e_fr_energy">     -0.57797225 </i>
    <i name="e_wo_entrp">     -0.54976277 </i>
    <i name="e_0_energy">     -0.56386751 </i>
   </energy>
  </scstep>
  <scstep>
   <time name="dav">    0.28    0.28</time>
   <time name="total">    1.73    1.73</time>
   <energy>
    <i name="e_fr_energy">     -0.56201250 </i>
    <i name="e_wo_entrp">     -0.53380302 </i>
    <i name="e_0_energy">     -0.54790776 </i>
   </energy>
  </scstep>
  <scstep>
   <time name="dav">    0.28    0.28</time>
   <time name="total">    1.73    1.73</time>
   <energy>
    <i name="e_fr_energy">     -0.53997170 </i>
    <i name="e_wo_entrp">     -0.51176222 </i>
    <i name="e_0_energy">     -0.52586696 </i>
   </energy>
  </scstep>
  <scstep>
   <time name="dav">    0.28    0.28</time>
   <time name="total">    1.74    1.74</time>
   <energy>
    <i name="e_fr_energy">     -0.52224157 </i>
    <i name="e_wo_entrp">     -0.49402362 </i>
    <i name="e_0_energy">     -0.50813260 </i>
   </energy>
  </scstep>
  <scstep>
   <time name="dav">    0.29    0.29</time>
   <time name="total">    1.75    1.76</time>
   <energy>
    <i name="e_fr_energy">     -0.50515700 </i>
    <i name="e_wo_entrp">     -0.47495522 </i>
    <i name="e_0_energy">     -0.49005611 </i>
   </energy>
  </scstep>
  <scstep>
   <time name="dav">    0.29    0.29</time>
   <time name="total">    1.74    1.74</time>
   <energy>
    <i name="e_fr_energy">     -0.51906476 </i>
    <i name="e_wo_entrp">     -0.49194534 </i>
    <i name="e_0_energy">     -0.50550505 </i>
   </energy>
  </scstep>
  <scstep>
   <time name="dav">    0.28    0.28</time>
   <time name="total">    1.74    1.74</time>
   <energy>
    <i name="e_fr_energy">     -1.45181560 </i>
    <i name="e_wo_entrp">     -1.41277071 </i>
    <i name="e_0_energy">     -1.43229315 </i>
   </energy>
  </scstep>
  <scstep>
   <time name="dav">    0.45    0.45</time>
   <time name="total">    1.90    1.90</time>
   <energy>
    <i name="e_fr_energy">     -2.24949726 </i>
    <i name="e_wo_entrp">     -2.22128778 </i>
    <i name="e_0_energy">     -2.23539252 </i>
   </energy>
  </scstep>
  <scstep>
   <time name="dav">    0.34    0.34</time>
   <time name="total">    1.79    1.79</time>
   <energy>
    <i name="e_fr_energy">     -0.96359163 </i>
    <i name="e_wo_entrp">     -0.93538215 </i>
    <i name="e_0_energy">     -0.94948689 </i>
   </energy>
  </scstep>
  <scstep>
   <time name="dav">    0.28    0.29</time>
   <time name="total">    1.73    1.73</time>
   <energy>
    <i name="e_fr_energy">     -0.71384416 </i>
    <i name="e_wo_entrp">     -0.68563468 </i>
    <i name="e_0_energy">     -0.69973942 </i>
   </energy>
  </scstep>
  <scstep>
   <time name="dav">    0.34    0.34</time>
   <time name="total">    1.79    1.79</time>
   <energy>
    <i name="e_fr_energy">     -0.63533907 </i>
    <i name="e_wo_entrp">     -0.60712959 </i>
    <i name="e_0_energy">     -0.62123433 </i>
   </energy>
  </scstep>
  <scstep>
   <time name="dav">    0.28    0.28</time>
   <time name="total">    1.73    1.73</time>
   <energy>
    <i name="e_fr_energy">     -0.56781536 </i>
    <i name="e_wo_entrp">     -0.53960588 </i>
    <i name="e_0_energy">     -0.55371062 </i>
   </energy>
  </scstep>
  <scstep>
   <time name="dav">    0.29    0.29</time>
   <time name="total">    1.74    1.74</time>
   <energy>
    <i name="e_fr_energy">     -0.50677468 </i>
    <i name="e_wo_entrp">     -0.47748612 </i>
    <i name="e_0_energy">     -0.49213040 </i>
   </energy>
  </scstep>
  <scstep>
   <time name="dav">    0.28    0.28</time>
   <time name="total">    1.74    1.74</time>
   <energy>
    <i name="e_fr_energy">     -0.55570650 </i>
    <i name="e_wo_entrp">     -0.54673670 </i>
    <i name="e_0_energy">     -0.55122160 </i>
   </energy>
  </scstep>
  <scstep>
   <time name="dav">    0.28    0.28</time>
   <time name="total">    1.74    1.74</time>
   <energy>
    <i name="e_fr_energy">     -1.75567989 </i>
    <i name="e_wo_entrp">     -1.71151478 </i>
    <i name="e_0_energy">     -1.73359733 </i>
   </energy>
  </scstep>
  <scstep>
   <time name="dav">    0.28    0.28</time>
   <time name="total">    1.73    1.73</time>
   <energy>
    <i name="e_fr_energy">     -0.72480834 </i>
    <i name="e_wo_entrp">     -0.69659887 </i>
    <i name="e_0_energy">     -0.71070360 </i>
   </energy>
  </scstep>
  <scstep>
   <time name="dav">    0.28    0.28</time>
   <time name="total">    1.74    1.74</time>
   <energy>
    <i name="e_fr_energy">     -1.85295656 </i>
    <i name="e_wo_entrp">     -1.79398913 </i>
    <i name="e_0_energy">     -1.82347285 </i>
   </energy>
  </scstep>
  <scstep>
   <time name="dav">    0.40    0.40</time>
   <time name="total">    1.83    1.83</time>
   <energy>
    <i name="e_fr_energy">    -11.25579172 </i>
    <i name="e_wo_entrp">    -11.22758225 </i>
    <i name="e_0_energy">    -11.24168699 </i>
   </energy>
  </scstep>
  <scstep>
   <time name="dav">    0.28    0.28</time>
   <time name="total">    1.69    1.69</time>
   <energy>
    <i name="e_fr_energy">     -6.81504619 </i>
    <i name="e_wo_entrp">     -6.78683672 </i>
    <i name="e_0_energy">     -6.80094145 </i>
   </energy>
  </scstep>
  <scstep>
   <time name="dav">    0.50    0.50</time>
   <time name="total">    1.95    1.95</time>
   <energy>
    <i name="e_fr_energy">     -2.76533142 </i>
    <i name="e_wo_entrp">     -2.73712194 </i>
    <i name="e_0_energy">     -2.75122668 </i>
   </energy>
  </scstep>
  <scstep>
   <time name="dav">    0.39    0.39</time>
   <time name="total">    1.84    1.84</time>
   <energy>
    <i name="e_fr_energy">     -0.81756542 </i>
    <i name="e_wo_entrp">     -0.78935594 </i>
    <i name="e_0_energy">     -0.80346068 </i>
   </energy>
  </scstep>
  <scstep>
   <time name="dav">    0.39    0.39</time>
   <time name="total">    1.84    1.84</time>
   <energy>
    <i name="e_fr_energy">     -0.61453841 </i>
    <i name="e_wo_entrp">     -0.58632894 </i>
    <i name="e_0_energy">     -0.60043368 </i>
   </energy>
  </scstep>
  <scstep>
   <time name="dav">    0.29    0.29</time>
   <time name="total">    1.73    1.74</time>
   <energy>
    <i name="e_fr_energy">     -0.51421936 </i>
    <i name="e_wo_entrp">     -0.48600988 </i>
    <i name="e_0_energy">     -0.50011462 </i>
   </energy>
  </scstep>
  <scstep>
   <time name="dav">    0.28    0.28</time>
   <time name="total">    1.73    1.74</time>
   <energy>
    <i name="e_fr_energy">     -0.49388290 </i>
    <i name="e_wo_entrp">     -0.46566151 </i>
    <i name="e_0_energy">     -0.47977220 </i>
   </energy>
  </scstep>
  <scstep>
   <time name="dav">    0.34    0.34</time>
   <time name="total">    1.79    1.79</time>
   <energy>
    <i name="e_fr_energy">     -0.47216543 </i>
    <i name="e_wo_entrp">     -0.43842783 </i>
    <i name="e_0_energy">     -0.45529663 </i>
   </energy>
  </scstep>
  <scstep>
   <time name="dav">    0.28    0.29</time>
   <time name="total">    1.74    1.74</time>
   <energy>
    <i name="e_fr_energy">     -0.52890226 </i>
    <i name="e_wo_entrp">     -0.51929172 </i>
    <i name="e_0_energy">     -0.52409699 </i>
   </energy>
  </scstep>
  <scstep>
   <time name="dav">    0.28    0.28</time>
   <time name="total">    1.74    1.74</time>
   <energy>
    <i name="e_fr_energy">     -2.46962505 </i>
    <i name="e_wo_entrp">     -2.41934024 </i>
    <i name="e_0_energy">     -2.44448265 </i>
   </energy>
  </scstep>
  <scstep>
   <time name="dav">    0.34    0.34</time>
   <time name="total">    1.80    1.80</time>
   <energy>
    <i name="e_fr_energy">     -3.52934149 </i>
    <i name="e_wo_entrp">     -3.49055619 </i>
    <i name="e_0_energy">     -3.50994884 </i>
   </energy>
  </scstep>
  <scstep>
   <time name="dav">    0.28    0.28</time>
   <time name="total">    1.74    1.74</time>
   <energy>
    <i name="e_fr_energy">     -3.14535351 </i>
    <i name="e_wo_entrp">     -3.10678375 </i>
    <i name="e_0_energy">     -3.12606863 </i>
   </energy>
  </scstep>
  <scstep>
   <time name="dav">    0.29    0.29</time>
   <time name="total">    1.74    1.74</time>
   <energy>
    <i name="e_fr_energy">     -2.27282370 </i>
    <i name="e_wo_entrp">     -2.23426208 </i>
    <i name="e_0_energy">     -2.25354289 </i>
   </energy>
  </scstep>
  <scstep>
   <time name="dav">    0.28    0.28</time>
   <time name="total">    1.74    1.75</time>
   <energy>
    <i name="e_fr_energy">     -3.98060133 </i>
    <i name="e_wo_entrp">     -3.94203977 </i>
    <i name="e_0_energy">     -3.96132055 </i>
   </energy>
  </scstep>
  <scstep>
   <time name="dav">    0.34    0.34</time>
   <time name="total">    1.80    1.80</time>
   <energy>
    <i name="e_fr_energy">     -2.56281074 </i>
    <i name="e_wo_entrp">     -2.52424925 </i>
    <i name="e_0_energy">     -2.54353000 </i>
   </energy>
  </scstep>
  <scstep>
   <time name="dav">    0.28    0.28</time>
   <time name="total">    1.74    1.75</time>
   <energy>
    <i name="e_fr_energy">     -2.66975980 </i>
    <i name="e_wo_entrp">     -2.63119842 </i>
    <i name="e_0_energy">     -2.65047911 </i>
   </energy>
  </scstep>
  <scstep>
   <time name="dav">    0.28    0.28</time>
   <time name="total">    1.75    1.75</time>
   <energy>
    <i name="e_fr_energy">     -2.47113884 </i>
    <i name="e_wo_entrp">     -2.43257743 </i>
    <i name="e_0_energy">     -2.45185814 </i>
   </energy>
  </scstep>
  <scstep>
   <time name="dav">    0.28    0.28</time>
   <time name="total">    1.77    1.77</time>
   <energy>
    <i name="e_fr_energy">     -2.09832424 </i>
    <i name="e_wo_entrp">     -2.05976263 </i>
    <i name="e_0_energy">     -2.07904343 </i>
   </energy>
  </scstep>
  <scstep>
   <time name="dav">    0.29    0.29</time>
   <time name="total">    1.74    1.74</time>
   <energy>
    <i name="e_fr_energy">     -2.17054532 </i>
    <i name="e_wo_entrp">     -2.13198390 </i>
    <i name="e_0_energy">     -2.15126461 </i>
   </energy>
  </scstep>
  <scstep>
   <time name="dav">    0.28    0.28</time>
   <time name="total">    1.74    1.74</time>
   <energy>
    <i name="e_fr_energy">     -1.82184358 </i>
    <i name="e_wo_entrp">     -1.78328217 </i>
    <i name="e_0_energy">     -1.80256288 </i>
   </energy>
  </scstep>
  <scstep>
   <time name="dav">    0.29    0.29</time>
   <time name="total">    1.74    1.74</time>
   <energy>
    <i name="e_fr_energy">     -1.42253770 </i>
    <i name="e_wo_entrp">     -1.38397398 </i>
    <i name="e_0_energy">     -1.40325584 </i>
   </energy>
  </scstep>
  <scstep>
   <time name="dav">    0.28    0.28</time>
   <time name="total">    1.75    1.75</time>
   <energy>
    <i name="e_fr_energy">     -1.03319133 </i>
    <i name="e_wo_entrp">     -0.97822211 </i>
    <i name="e_0_energy">     -1.00570672 </i>
   </energy>
  </scstep>
  <scstep>
   <time name="dav">    0.28    0.28</time>
   <time name="total">    1.74    1.74</time>
   <energy>
    <i name="e_fr_energy">     -1.18278215 </i>
    <i name="e_wo_entrp">     -1.13630732 </i>
    <i name="e_0_energy">     -1.15954474 </i>
   </energy>
  </scstep>
  <scstep>
   <time name="dav">    0.29    0.29</time>
   <time name="total">    1.74    1.74</time>
   <energy>
    <i name="e_fr_energy">     -1.10908833 </i>
    <i name="e_wo_entrp">     -1.05506919 </i>
    <i name="e_0_energy">     -1.08207876 </i>
   </energy>
  </scstep>
  <scstep>
   <time name="dav">    0.34    0.34</time>
   <time name="total">    1.79    1.79</time>
   <energy>
    <i name="e_fr_energy">     -0.40423499 </i>
    <i name="e_wo_entrp">     -0.36738798 </i>
    <i name="e_0_energy">     -0.38581149 </i>
   </energy>
  </scstep>
  <scstep>
   <time name="dav">    0.28    0.28</time>
   <time name="total">    1.75    1.75</time>
   <energy>
    <i name="e_fr_energy">     -3.16143582 </i>
    <i name="e_wo_entrp">     -3.10158812 </i>
    <i name="e_0_energy">     -3.13151197 </i>
   </energy>
  </scstep>
  <scstep>
   <time name="dav">    0.28    0.28</time>
   <time name="total">    1.74    1.74</time>
   <energy>
    <i name="e_fr_energy">     -0.38643696 </i>
    <i name="e_wo_entrp">     -0.35454922 </i>
    <i name="e_0_energy">     -0.37049309 </i>
   </energy>
  </scstep>
  <scstep>
   <time name="dav">    0.28    0.28</time>
   <time name="total">    1.73    1.73</time>
   <energy>
    <i name="e_fr_energy">     -0.41484004 </i>
    <i name="e_wo_entrp">     -0.37643491 </i>
    <i name="e_0_energy">     -0.39563747 </i>
   </energy>
  </scstep>
  <scstep>
   <time name="dav">    0.28    0.28</time>
   <time name="total">    1.73    1.73</time>
   <energy>
    <i name="e_fr_energy">     -0.72601875 </i>
    <i name="e_wo_entrp">     -0.69780927 </i>
    <i name="e_0_energy">     -0.71191401 </i>
   </energy>
  </scstep>
  <scstep>
   <time name="dav">    0.28    0.28</time>
   <time name="total">    1.73    1.73</time>
   <energy>
    <i name="e_fr_energy">     -0.81890303 </i>
    <i name="e_wo_entrp">     -0.79069355 </i>
    <i name="e_0_energy">     -0.80479829 </i>
   </energy>
  </scstep>
  <scstep>
   <time name="dav">    0.28    0.28</time>
   <time name="total">    1.73    1.73</time>
   <energy>
    <i name="e_fr_energy">     -0.72294852 </i>
    <i name="e_wo_entrp">     -0.69473904 </i>
    <i name="e_0_energy">     -0.70884378 </i>
   </energy>
  </scstep>
  <scstep>
   <time name="dav">    0.29    0.29</time>
   <time name="total">    1.74    1.74</time>
   <energy>
    <i name="e_fr_energy">     -0.66055075 </i>
    <i name="e_wo_entrp">     -0.63234127 </i>
    <i name="e_0_energy">     -0.64644601 </i>
   </energy>
  </scstep>
  <scstep>
   <time name="dav">    0.34    0.34</time>
   <time name="total">    1.79    1.79</time>
   <energy>
    <i name="e_fr_energy">     -0.69160068 </i>
    <i name="e_wo_entrp">     -0.66339120 </i>
    <i name="e_0_energy">     -0.67749594 </i>
   </energy>
  </scstep>
  <scstep>
   <time name="dav">    0.29    0.29</time>
   <time name="total">    1.74    1.74</time>
   <energy>
    <i name="e_fr_energy">     -0.66674549 </i>
    <i name="e_wo_entrp">     -0.63853601 </i>
    <i name="e_0_energy">     -0.65264075 </i>
   </energy>
  </scstep>
  <scstep>
   <time name="dav">    0.28    0.28</time>
   <time name="total">    1.74    1.74</time>
   <energy>
    <i name="e_fr_energy">     -0.56963047 </i>
    <i name="e_wo_entrp">     -0.54142099 </i>
    <i name="e_0_energy">     -0.55552573 </i>
   </energy>
  </scstep>
  <scstep>
   <time name="dav">    0.28    0.28</time>
   <time name="total">    1.74    1.75</time>
   <energy>
    <i name="e_fr_energy">     -0.54649866 </i>
    <i name="e_wo_entrp">     -0.51828918 </i>
    <i name="e_0_energy">     -0.53239392 </i>
   </energy>
  </scstep>
  <scstep>
   <time name="dav">    0.29    0.29</time>
   <time name="total">    1.74    1.74</time>
   <energy>
    <i name="e_fr_energy">     -0.52088763 </i>
    <i name="e_wo_entrp">     -0.49267129 </i>
    <i name="e_0_energy">     -0.50677946 </i>
   </energy>
  </scstep>
  <scstep>
   <time name="dav">    0.28    0.28</time>
   <time name="total">    1.74    1.74</time>
   <energy>
    <i name="e_fr_energy">     -0.49712983 </i>
    <i name="e_wo_entrp">     -0.45858066 </i>
    <i name="e_0_energy">     -0.47785525 </i>
   </energy>
  </scstep>
  <scstep>
   <time name="dav">    0.28    0.28</time>
   <time name="total">    1.74    1.74</time>
   <energy>
    <i name="e_fr_energy">     -0.51410729 </i>
    <i name="e_wo_entrp">     -0.48749231 </i>
    <i name="e_0_energy">     -0.50079980 </i>
   </energy>
  </scstep>
  <scstep>
   <time name="dav">    0.28    0.28</time>
   <time name="total">    1.74    1.74</time>
   <energy>
    <i name="e_fr_energy">     -0.54489138 </i>
    <i name="e_wo_entrp">     -0.53563748 </i>
    <i name="e_0_energy">     -0.54026443 </i>
   </energy>
  </scstep>
  <scstep>
   <time name="dav">    0.28    0.28</time>
   <time name="total">    1.73    1.73</time>
   <energy>
    <i name="e_fr_energy">     -0.50861088 </i>
    <i name="e_wo_entrp">     -0.49224781 </i>
    <i name="e_0_energy">     -0.50042935 </i>
   </energy>
  </scstep>
  <scstep>
   <time name="dav">    0.28    0.28</time>
   <time name="total">    1.73    1.73</time>
   <energy>
    <i name="e_fr_energy">     -0.43499895 </i>
    <i name="e_wo_entrp">     -0.39608145 </i>
    <i name="e_0_energy">     -0.41554020 </i>
   </energy>
  </scstep>
  <scstep>
   <time name="dav">    0.28    0.28</time>
   <time name="total">    1.74    1.74</time>
   <energy>
    <i name="e_fr_energy">     -0.48463914 </i>
    <i name="e_wo_entrp">     -0.45176405 </i>
    <i name="e_0_energy">     -0.46820159 </i>
   </energy>
  </scstep>
  <scstep>
   <time name="dav">    0.34    0.34</time>
   <time name="total">    1.80    1.80</time>
   <energy>
    <i name="e_fr_energy">     -0.46954044 </i>
    <i name="e_wo_entrp">     -0.43157394 </i>
    <i name="e_0_energy">     -0.45055719 </i>
   </energy>
  </scstep>
  <scstep>
   <time name="dav">    0.28    0.28</time>
   <time name="total">    1.74    1.74</time>
   <energy>
    <i name="e_fr_energy">     -0.59144500 </i>
    <i name="e_wo_entrp">     -0.58234314 </i>
    <i name="e_0_energy">     -0.58689407 </i>
   </energy>
  </scstep>
  <scstep>
   <time name="dav">    0.28    0.28</time>
   <time name="total">    1.74    1.74</time>
   <energy>
    <i name="e_fr_energy">     -0.50393732 </i>
    <i name="e_wo_entrp">     -0.46256318 </i>
    <i name="e_0_energy">     -0.48325025 </i>
   </energy>
  </scstep>
  <scstep>
   <time name="dav">    0.28    0.28</time>
   <time name="total">    1.73    1.73</time>
   <energy>
    <i name="e_fr_energy">     -0.43879654 </i>
    <i name="e_wo_entrp">     -0.41047610 </i>
    <i name="e_0_energy">     -0.42463632 </i>
   </energy>
  </scstep>
  <scstep>
   <time name="dav">    0.28    0.28</time>
   <time name="total">    1.74    1.74</time>
   <energy>
    <i name="e_fr_energy">     -0.48232276 </i>
    <i name="e_wo_entrp">     -0.45013394 </i>
    <i name="e_0_energy">     -0.46622835 </i>
   </energy>
  </scstep>
  <scstep>
   <time name="dav">    0.28    0.28</time>
   <time name="total">    1.75    1.75</time>
   <energy>
    <i name="e_fr_energy">     -0.48606359 </i>
    <i name="e_wo_entrp">     -0.44686115 </i>
    <i name="e_0_energy">     -0.46646237 </i>
   </energy>
  </scstep>
  <scstep>
   <time name="dav">    0.28    0.28</time>
   <time name="total">    1.74    1.74</time>
   <energy>
    <i name="e_fr_energy">     -0.49156832 </i>
    <i name="e_wo_entrp">     -0.45620591 </i>
    <i name="e_0_energy">     -0.47388712 </i>
   </energy>
  </scstep>
  <scstep>
   <time name="dav">    0.28    0.28</time>
   <time name="total">    1.74    1.74</time>
   <energy>
    <i name="e_fr_energy">     -0.46440334 </i>
    <i name="e_wo_entrp">     -0.41962549 </i>
    <i name="e_0_energy">     -0.44201442 </i>
   </energy>
  </scstep>
  <scstep>
   <time name="dav">    0.29    0.29</time>
   <time name="total">    1.74    1.74</time>
   <energy>
    <i name="e_fr_energy">     -0.43022157 </i>
    <i name="e_wo_entrp">     -0.39065897 </i>
    <i name="e_0_energy">     -0.41044027 </i>
   </energy>
  </scstep>
  <scstep>
   <time name="dav">    0.29    0.29</time>
   <time name="total">    1.74    1.74</time>
   <energy>
    <i name="e_fr_energy">     -0.45852700 </i>
    <i name="e_wo_entrp">     -0.41616077 </i>
    <i name="e_0_energy">     -0.43734388 </i>
   </energy>
  </scstep>
  <scstep>
   <time name="dav">    0.28    0.28</time>
   <time name="total">    1.74    1.74</time>
   <energy>
    <i name="e_fr_energy">     -0.45606762 </i>
    <i name="e_wo_entrp">     -0.41650963 </i>
    <i name="e_0_energy">     -0.43628863 </i>
   </energy>
  </scstep>
  <scstep>
   <time name="dav">    0.29    0.29</time>
   <time name="total">    1.75    1.75</time>
   <energy>
    <i name="e_fr_energy">     -0.49251625 </i>
    <i name="e_wo_entrp">     -0.45491419 </i>
    <i name="e_0_energy">     -0.47371522 </i>
   </energy>
  </scstep>
  <scstep>
   <time name="dav">    0.29    0.29</time>
   <time name="total">    1.74    1.74</time>
   <energy>
    <i name="e_fr_energy">     -0.44978833 </i>
    <i name="e_wo_entrp">     -0.40579175 </i>
    <i name="e_0_energy">     -0.42779004 </i>
   </energy>
  </scstep>
  <scstep>
   <time name="dav">    0.28    0.28</time>
   <time name="total">    1.74    1.74</time>
   <energy>
    <i name="e_fr_energy">     -0.49131176 </i>
    <i name="e_wo_entrp">     -0.45969540 </i>
    <i name="e_0_energy">     -0.47550358 </i>
   </energy>
  </scstep>
  <scstep>
   <time name="dav">    0.29    0.29</time>
   <time name="total">    1.74    1.74</time>
   <energy>
    <i name="e_fr_energy">     -0.50583800 </i>
    <i name="e_wo_entrp">     -0.46892605 </i>
    <i name="e_0_energy">     -0.48738202 </i>
   </energy>
  </scstep>
  <scstep>
   <time name="dav">    0.28    0.28</time>
   <time name="total">    1.73    1.74</time>
   <energy>
    <i name="e_fr_energy">     -0.46926242 </i>
    <i name="e_wo_entrp">     -0.44247614 </i>
    <i name="e_0_energy">     -0.45586928 </i>
   </energy>
  </scstep>
  <scstep>
   <time name="dav">    0.34    0.34</time>
   <time name="total">    1.79    1.79</time>
   <energy>
    <i name="e_fr_energy">     -0.47740913 </i>
    <i name="e_wo_entrp">     -0.43497424 </i>
    <i name="e_0_energy">     -0.45619168 </i>
   </energy>
  </scstep>
  <scstep>
   <time name="dav">    0.28    0.28</time>
   <time name="total">    1.74    1.74</time>
   <energy>
    <i name="e_fr_energy">     -0.47403410 </i>
    <i name="e_wo_entrp">     -0.45499127 </i>
    <i name="e_0_energy">     -0.46451269 </i>
   </energy>
  </scstep>
  <scstep>
   <time name="dav">    0.28    0.28</time>
   <time name="total">    1.74    1.74</time>
   <energy>
    <i name="e_fr_energy">     -0.48591952 </i>
    <i name="e_wo_entrp">     -0.43999215 </i>
    <i name="e_0_energy">     -0.46295583 </i>
   </energy>
  </scstep>
  <scstep>
   <time name="dav">    0.29    0.29</time>
   <time name="total">    1.74    1.74</time>
   <energy>
    <i name="e_fr_energy">     -0.50853780 </i>
    <i name="e_wo_entrp">     -0.49518477 </i>
    <i name="e_0_energy">     -0.50186128 </i>
   </energy>
  </scstep>
  <scstep>
   <time name="dav">    0.28    0.28</time>
   <time name="total">    1.74    1.74</time>
   <energy>
    <i name="e_fr_energy">     -0.48628622 </i>
    <i name="e_wo_entrp">     -0.44094483 </i>
    <i name="e_0_energy">     -0.46361553 </i>
   </energy>
  </scstep>
  <scstep>
   <time name="dav">    0.28    0.28</time>
   <time name="total">    1.73    1.73</time>
   <energy>
    <i name="e_fr_energy">     -0.60717480 </i>
    <i name="e_wo_entrp">     -0.60622627 </i>
    <i name="e_0_energy">     -0.60670053 </i>
   </energy>
  </scstep>
  <scstep>
   <time name="dav">    0.29    0.29</time>
   <time name="total">    1.74    1.74</time>
   <energy>
    <i name="e_fr_energy">     -0.59193714 </i>
    <i name="e_wo_entrp">     -0.54631478 </i>
    <i name="e_0_energy">     -0.56912596 </i>
   </energy>
  </scstep>
  <scstep>
   <time name="dav">    0.29    0.29</time>
   <time name="total">    1.74    1.74</time>
   <energy>
    <i name="e_fr_energy">     -0.64825821 </i>
    <i name="e_wo_entrp">     -0.64776154 </i>
    <i name="e_0_energy">     -0.64800987 </i>
   </energy>
  </scstep>
  <scstep>
   <time name="dav">    0.29    0.29</time>
   <time name="total">    1.75    1.75</time>
   <energy>
    <i name="e_fr_energy">     -0.60664898 </i>
    <i name="e_wo_entrp">     -0.55645519 </i>
    <i name="e_0_energy">     -0.58155209 </i>
   </energy>
  </scstep>
  <scstep>
   <time name="dav">    0.28    0.28</time>
   <time name="total">    1.73    1.74</time>
   <energy>
    <i name="e_fr_energy">     -0.55660626 </i>
    <i name="e_wo_entrp">     -0.55460650 </i>
    <i name="e_0_energy">     -0.55560638 </i>
   </energy>
  </scstep>
[...]
        <r>     4.2454     0.0000     0.0000     0.0000     0.0000     0.0000     0.0000     0.0000     0.0000     0.0000     0.0000     0.0000     0.0000     0.0000     0.0000     0.0000     0.0000 </r>
        <r>     4.3951     0.0000     0.0000     0.0000     0.0000     0.0000     0.0000     0.0000     0.0000     0.0000     0.0000     0.0000     0.0000     0.0000     0.0000     0.0000     0.0000 </r>
        <r>     4.5449     0.0000     0.0000     0.0000     0.0000     0.0000     0.0000     0.0000     0.0000     0.0000     0.0000     0.0000     0.0000     0.0000     0.0000     0.0000     0.0000 </r>
        <r>     4.6946     0.0000     0.0000     0.0000     0.0000     0.0000     0.0000     0.0000     0.0000     0.0000     0.0000     0.0000     0.0000     0.0000     0.0000     0.0000     0.0000 </r>
        <r>     4.8444     0.0000     0.0000     0.0000     0.0000     0.0000     0.0000     0.0000     0.0000     0.0000     0.0000     0.0000     0.0000     0.0000     0.0000     0.0000     0.0000 </r>
        <r>     4.9941     0.0000     0.0000     0.0000     0.0000     0.0000     0.0000     0.0000     0.0000     0.0000     0.0000     0.0000     0.0000     0.0000     0.0000     0.0000     0.0000 </r>
        <r>     5.1439     0.0000     0.0000     0.0000     0.0000     0.0000     0.0000     0.0000     0.0000     0.0000     0.0000     0.0000     0.0000     0.0000     0.0000     0.0000     0.0000 </r>
        <r>     5.2937     0.0000     0.0000     0.0000     0.0000     0.0000     0.0000     0.0000     0.0000     0.0000     0.0000     0.0000     0.0000     0.0000     0.0000     0.0000     0.0000 </r>
       </set>
      </set>
     </set>
    </array>
   </partial>
  </dos>
  <projected>
   <eigenvalues>
    <array>
     <dimension dim="1">band</dimension>
     <dimension dim="2">kpoint</dimension>
     <dimension dim="3">spin</dimension>
     <field>eigene</field>
     <field>occ</field>
     <set>
      <set comment="spin 1">
       <set comment="kpoint 1">
        <r>  -37.5275    1.0000 </r>
        <r>  -21.0210    1.0000 </r>
        <r>  -21.0210    1.0000 </r>
        <r>  -21.0210    1.0000 </r>
        <r>   -2.9513    1.0000 </r>
        <r>   -2.6245    0.0688 </r>
        <r>   -2.6007    0.0154 </r>
        <r>   -2.6007    0.0154 </r>
        <r>   -2.6007    0.0154 </r>
        <r>   -2.5931    0.0088 </r>
        <r>   -2.5931    0.0088 </r>
        <r>   -2.5931    0.0088 </r>
        <r>   -2.1154    0.0000 </r>
        <r>   -2.1154    0.0000 </r>
        <r>   -2.1154    0.0000 </r>
        <r>   -1.9669    0.0000 </r>
        <r>   -1.9669    0.0000 </r>
        <r>   -0.5273    0.0000 </r>
        <r>   -0.5273    0.0000 </r>
        <r>   -0.5273    0.0000 </r>
        <r>    0.0797    0.0000 </r>
        <r>    0.9090    0.0000 </r>
        <r>    0.9090    0.0000 </r>
        <r>    1.7762    0.0000 </r>
        <r>    1.7762    0.0000 </r>
        <r>    1.7762    0.0000 </r>
        <r>    2.0564    0.0000 </r>
        <r>    2.2171    0.0000 </r>
        <r>    2.2171    0.0000 </r>
        <r>    2.2171    0.0000 </r>
        <r>    2.2247    0.0000 </r>
        <r>    2.2247    0.0000 </r>
        <r>    2.2247    0.0000 </r>
        <r>    2.4818    0.0000 </r>
        <r>    2.4818    0.0000 </r>
        <r>    3.2515    0.0000 </r>
       </set>
      </set>
      <set comment="spin 2">
       <set comment="kpoint 1">
        <r>  -37.5909    1.0000 </r>
        <r>  -21.3688    1.0000 </r>
        <r>  -21.3688    1.0000 </r>
        <r>  -21.3688    1.0000 </r>
        <r>   -3.1804    1.0000 </r>
        <r>   -2.6707    0.4292 </r>
        <r>   -2.6707    0.4292 </r>
        <r>   -2.3536    0.0000 </r>
        <r>   -2.3536    0.0000 </r>
        <r>   -2.3536    0.0000 </r>
        <r>   -2.3448    0.0000 </r>
        <r>   -2.3448    0.0000 </r>
        <r>   -2.3448    0.0000 </r>
        <r>   -2.3402    0.0000 </r>
        <r>   -2.3388    0.0000 </r>
        <r>   -2.3388    0.0000 </r>
        <r>   -2.3388    0.0000 </r>
        <r>   -0.7468    0.0000 </r>
        <r>   -0.7468    0.0000 </r>
        <r>   -0.7468    0.0000 </r>
        <r>    0.0466    0.0000 </r>
        <r>    0.8285    0.0000 </r>
        <r>    0.8285    0.0000 </r>
        <r>    1.6879    0.0000 </r>
        <r>    1.6879    0.0000 </r>
        <r>    1.6879    0.0000 </r>
        <r>    2.0647    0.0000 </r>
        <r>    2.1508    0.0000 </r>
        <r>    2.1508    0.0000 </r>
        <r>    2.1508    0.0000 </r>
        <r>    2.1539    0.0000 </r>
        <r>    2.1539    0.0000 </r>
        <r>    2.1539    0.0000 </r>
        <r>    2.4489    0.0000 </r>
        <r>    2.4489    0.0000 </r>
        <r>    3.2327    0.0000 </r>
       </set>
      </set>
     </set>
    </array>
   </eigenvalues>
   <array>
    <dimension dim="1">ion</dimension>
    <dimension dim="2">band</dimension>
    <dimension dim="3">kpoint</dimension>
    <dimension dim="4">spin</dimension>
    <field>    s</field>
    <field>   py</field>
    <field>   pz</field>
    <field>   px</field>
    <field>  dxy</field>
    <field>  dyz</field>
    <field>  dz2</field>
    <field>  dxz</field>
    <field>x2-y2</field>
    <field>fy3x2</field>
    <field> fxyz</field>
    <field> fyz2</field>
    <field>  fz3</field>
    <field> fxz2</field>
    <field> fzx2</field>
    <field>  fx3</field>
    <set>
     <set comment="spin1">
      <set comment="kpoint 1">
       <set comment="band 1">
        <r>  0.9875  0.0000  0.0000  0.0000  0.0000  0.0000  0.0000  0.0000  0.0000  0.0000  0.0000  0.0000  0.0000  0.0000  0.0000  0.0000 </r>
       </set>
       <set comment="band 2">
        <r>  0.0000  0.0012  0.0000  0.9259  0.0000  0.0000  0.0000  0.0000  0.0000  0.0000  0.0000  0.0000  0.0000  0.0000  0.0000  0.0000 </r>
       </set>
       <set comment="band 3">
        <r>  0.0000  0.9259  0.0000  0.0012  0.0000  0.0000  0.0000  0.0000  0.0000  0.0000  0.0000  0.0000  0.0000  0.0000  0.0000  0.0000 </r>
       </set>
       <set comment="band 4">
        <r>  0.0000  0.0000  0.9270  0.0000  0.0000  0.0000  0.0000  0.0000  0.0000  0.0000  0.0000  0.0000  0.0000  0.0000  0.0000  0.0000 </r>
       </set>
       <set comment="band 5">
        <r>  0.1148  0.0000  0.0000  0.0000  0.0000  0.0000  0.0000  0.0000  0.0000  0.0000  0.0000  0.0000  0.0000  0.0000  0.0000  0.0000 </r>
       </set>
       <set comment="band 6">
        <r>  0.0000  0.0000  0.0000  0.0000  0.0000  0.0000  0.0000  0.0000  0.0000  0.0000  0.9629  0.0000  0.0000  0.0000  0.0000  0.0000 </r>
       </set>
       <set comment="band 7">
        <r>  0.0000  0.0000  0.0000  0.0000  0.0000  0.0000  0.0000  0.0000  0.0000  0.0041  0.0000  0.0025  0.0000  0.3589  0.0000  0.5982 </r>
       </set>
       <set comment="band 8">
        <r>  0.0000  0.0000  0.0000  0.0000  0.0000  0.0000  0.0000  0.0000  0.0000  0.5982  0.0000  0.3589  0.0000  0.0025  0.0000  0.0041 </r>
       </set>
       <set comment="band 9">
        <r>  0.0000  0.0000  0.0000  0.0000  0.0000  0.0000  0.0000  0.0000  0.0000  0.0000  0.0000  0.0000  0.9637  0.0000  0.0000  0.0000 </r>
       </set>
       <set comment="band 10">
        <r>  0.0000  0.0000  0.0000  0.0000  0.0000  0.0000  0.0000  0.0000  0.0000  0.0002  0.0000  0.0003  0.0000  0.6017  0.0000  0.3610 </r>
       </set>
       <set comment="band 11">
        <r>  0.0000  0.0000  0.0000  0.0000  0.0000  0.0000  0.0000  0.0000  0.0000  0.3610  0.0000  0.6017  0.0000  0.0003  0.0000  0.0002 </r>
       </set>
       <set comment="band 12">
        <r>  0.0000  0.0000  0.0000  0.0000  0.0000  0.0000  0.0000  0.0000  0.0000  0.0000  0.0000  0.0000  0.0000  0.0000  0.9632  0.0000 </r>
       </set>
       <set comment="band 13">
        <r>  0.0000  0.0000  0.0000  0.0000  0.5006  0.0000  0.0000  0.0000  0.0000  0.0000  0.0000  0.0000  0.0000  0.0000  0.0000  0.0000 </r>
       </set>
       <set comment="band 14">
        <r>  0.0000  0.0000  0.0000  0.0000  0.0000  0.0132  0.0000  0.4874  0.0000  0.0000  0.0000  0.0000  0.0000  0.0000  0.0000  0.0000 </r>
       </set>
       <set comment="band 15">
        <r>  0.0000  0.0000  0.0000  0.0000  0.0000  0.4874  0.0000  0.0132  0.0000  0.0000  0.0000  0.0000  0.0000  0.0000  0.0000  0.0000 </r>
       </set>
       <set comment="band 16">
        <r>  0.0000  0.0000  0.0000  0.0000  0.0000  0.0000  0.4829  0.0000  0.0000  0.0000  0.0000  0.0000  0.0000  0.0000  0.0000  0.0000 </r>
       </set>
       <set comment="band 17">
        <r>  0.0000  0.0000  0.0000  0.0000  0.0000  0.0000  0.0000  0.0000  0.4829  0.0000  0.0000  0.0000  0.0000  0.0000  0.0000  0.0000 </r>
       </set>
       <set comment="band 18">
        <r>  0.0000  0.0012  0.0000  0.0309  0.0000  0.0000  0.0000  0.0000  0.0000  0.0000  0.0000  0.0000  0.0000  0.0001  0.0000  0.0001 </r>
       </set>
       <set comment="band 19">
        <r>  0.0000  0.0309  0.0000  0.0012  0.0000  0.0000  0.0000  0.0000  0.0000  0.0001  0.0000  0.0001  0.0000  0.0000  0.0000  0.0000 </r>
       </set>
       <set comment="band 20">
        <r>  0.0000  0.0000  0.0322  0.0000  0.0000  0.0000  0.0000  0.0000  0.0000  0.0000  0.0000  0.0000  0.0002  0.0000  0.0000  0.0000 </r>
       </set>
       <set comment="band 21">
        <r>  0.0320  0.0000  0.0000  0.0000  0.0000  0.0000  0.0000  0.0000  0.0000  0.0000  0.0000  0.0000  0.0000  0.0000  0.0000  0.0000 </r>
       </set>
       <set comment="band 22">
        <r>  0.0000  0.0000  0.0000  0.0000  0.0000  0.0000  0.0647  0.0000  0.0000  0.0000  0.0000  0.0000  0.0000  0.0000  0.0000  0.0000 </r>
       </set>
       <set comment="band 23">
        <r>  0.0000  0.0000  0.0000  0.0000  0.0000  0.0000  0.0000  0.0000  0.0647  0.0000  0.0000  0.0000  0.0000  0.0000  0.0000  0.0000 </r>
       </set>
       <set comment="band 24">
        <r>  0.0000  0.0073  0.0001  0.0030  0.0000  0.0000  0.0000  0.0000  0.0000  0.0004  0.0000  0.0002  0.0000  0.0001  0.0000  0.0002 </r>
       </set>
       <set comment="band 25">
        <r>  0.0000  0.0028  0.0004  0.0071  0.0000  0.0000  0.0000  0.0000  0.0000  0.0002  0.0000  0.0001  0.0000  0.0002  0.0000  0.0004 </r>
       </set>
       <set comment="band 26">
        <r>  0.0000  0.0003  0.0099  0.0002  0.0000  0.0000  0.0000  0.0000  0.0000  0.0000  0.0000  0.0000  0.0009  0.0000  0.0000  0.0000 </r>
       </set>
       <set comment="band 27">
        <r>  0.0275  0.0000  0.0000  0.0000  0.0000  0.0000  0.0000  0.0000  0.0000  0.0000  0.0000  0.0000  0.0000  0.0000  0.0000  0.0000 </r>
       </set>
       <set comment="band 28">
        <r>  0.0000  0.0000  0.0000  0.0000  0.0000  0.0000  0.0000  0.0000  0.0000  0.0001  0.0000  0.0001  0.0000  0.0023  0.0000  0.0014 </r>
       </set>
       <set comment="band 29">
        <r>  0.0000  0.0000  0.0000  0.0000  0.0000  0.0000  0.0000  0.0000  0.0000  0.0014  0.0000  0.0024  0.0000  0.0001  0.0000  0.0001 </r>
       </set>
       <set comment="band 30">
        <r>  0.0000  0.0000  0.0000  0.0000  0.0000  0.0000  0.0000  0.0000  0.0000  0.0000  0.0000  0.0000  0.0000  0.0000  0.0039  0.0000 </r>
       </set>
       <set comment="band 31">
        <r>  0.0000  0.0000  0.0000  0.0000  0.0844  0.0000  0.0000  0.0000  0.0000  0.0000  0.0000  0.0000  0.0000  0.0000  0.0000  0.0000 </r>
       </set>
       <set comment="band 32">
        <r>  0.0000  0.0000  0.0000  0.0000  0.0000  0.0074  0.0000  0.0770  0.0000  0.0000  0.0000  0.0000  0.0000  0.0000  0.0000  0.0000 </r>
       </set>
       <set comment="band 33">
        <r>  0.0000  0.0000  0.0000  0.0000  0.0000  0.0770  0.0000  0.0074  0.0000  0.0000  0.0000  0.0000  0.0000  0.0000  0.0000  0.0000 </r>
       </set>
       <set comment="band 34">
        <r>  0.0000  0.0000  0.0000  0.0000  0.0000  0.0000  0.0186  0.0000  0.0000  0.0000  0.0000  0.0000  0.0000  0.0000  0.0000  0.0000 </r>
       </set>
       <set comment="band 35">
        <r>  0.0000  0.0000  0.0000  0.0000  0.0000  0.0000  0.0000  0.0000  0.0186  0.0000  0.0000  0.0000  0.0000  0.0000  0.0000  0.0000 </r>
       </set>
       <set comment="band 36">
        <r>  0.0000  0.0000  0.0000  0.0000  0.0000  0.0000  0.0000  0.0000  0.0000  0.0000  0.0097  0.0000  0.0000  0.0000  0.0000  0.0000 </r>
       </set>
      </set>
     </set>
     <set comment="spin2">
      <set comment="kpoint 1">
       <set comment="band 1">
        <r>  0.9677  0.0000  0.0000  0.0000  0.0000  0.0000  0.0000  0.0000  0.0000  0.0000  0.0000  0.0000  0.0000  0.0000  0.0000  0.0000 </r>
       </set>
       <set comment="band 2">
        <r>  0.0000  0.0000  0.9301  0.0000  0.0000  0.0000  0.0000  0.0000  0.0000  0.0000  0.0000  0.0000  0.0000  0.0000  0.0000  0.0000 </r>
       </set>
       <set comment="band 3">
        <r>  0.0000  0.0019  0.0000  0.9282  0.0000  0.0000  0.0000  0.0000  0.0000  0.0000  0.0000  0.0000  0.0000  0.0000  0.0000  0.0000 </r>
       </set>
       <set comment="band 4">
        <r>  0.0000  0.9282  0.0000  0.0019  0.0000  0.0000  0.0000  0.0000  0.0000  0.0000  0.0000  0.0000  0.0000  0.0000  0.0000  0.0000 </r>
       </set>
       <set comment="band 5">
        <r>  0.0922  0.0000  0.0000  0.0000  0.0000  0.0000  0.0000  0.0000  0.0000  0.0000  0.0000  0.0000  0.0000  0.0000  0.0000  0.0000 </r>
       </set>
       <set comment="band 6">
        <r>  0.0000  0.0000  0.0000  0.0000  0.0000  0.0000  0.0000  0.0000  0.5011  0.0000  0.0000  0.0000  0.0000  0.0000  0.0000  0.0000 </r>
       </set>
       <set comment="band 7">
        <r>  0.0000  0.0000  0.0000  0.0000  0.0000  0.0000  0.5011  0.0000  0.0000  0.0000  0.0000  0.0000  0.0000  0.0000  0.0000  0.0000 </r>
       </set>
       <set comment="band 8">
        <r>  0.0000  0.0000  0.0000  0.0000  0.0000  0.0000  0.0000  0.0000  0.0000  0.0000  0.0000  0.0000  0.0000  0.0000  0.9592  0.0000 </r>
       </set>
       <set comment="band 9">
        <r>  0.0000  0.0000  0.0000  0.0000  0.0000  0.0000  0.0000  0.0000  0.0000  0.0265  0.0000  0.0441  0.0000  0.5553  0.0000  0.3332 </r>
       </set>
       <set comment="band 10">
        <r>  0.0000  0.0000  0.0000  0.0000  0.0000  0.0000  0.0000  0.0000  0.0000  0.3332  0.0000  0.5553  0.0000  0.0441  0.0000  0.0265 </r>
       </set>
       <set comment="band 11">
        <r>  0.0000  0.0000  0.0000  0.0000  0.0000  0.0096  0.0000  0.4979  0.0000  0.0000  0.0000  0.0000  0.0000  0.0000  0.0000  0.0000 </r>
       </set>
       <set comment="band 12">
        <r>  0.0000  0.0000  0.0000  0.0000  0.0000  0.4979  0.0000  0.0096  0.0000  0.0000  0.0000  0.0000  0.0000  0.0000  0.0000  0.0000 </r>
       </set>
       <set comment="band 13">
        <r>  0.0000  0.0000  0.0000  0.0000  0.5075  0.0000  0.0000  0.0000  0.0000  0.0000  0.0000  0.0000  0.0000  0.0000  0.0000  0.0000 </r>
       </set>
       <set comment="band 14">
        <r>  0.0000  0.0000  0.0000  0.0000  0.0000  0.0000  0.0000  0.0000  0.0000  0.0000  0.9615  0.0000  0.0000  0.0000  0.0000  0.0000 </r>
       </set>
       <set comment="band 15">
        <r>  0.0000  0.0000  0.0001  0.0000  0.0000  0.0000  0.0000  0.0000  0.0000  0.0000  0.0000  0.0000  0.9569  0.0000  0.0000  0.0000 </r>
       </set>
       <set comment="band 16">
        <r>  0.0000  0.0000  0.0000  0.0001  0.0000  0.0000  0.0000  0.0000  0.0000  0.0272  0.0000  0.0163  0.0000  0.3425  0.0000  0.5708 </r>
       </set>
       <set comment="band 17">
        <r>  0.0000  0.0001  0.0000  0.0000  0.0000  0.0000  0.0000  0.0000  0.0000  0.5708  0.0000  0.3425  0.0000  0.0163  0.0000  0.0272 </r>
       </set>
       <set comment="band 18">
        <r>  0.0000  0.0325  0.0000  0.0025  0.0000  0.0000  0.0000  0.0000  0.0000  0.0003  0.0000  0.0002  0.0000  0.0000  0.0000  0.0000 </r>
       </set>
       <set comment="band 19">
        <r>  0.0000  0.0025  0.0000  0.0325  0.0000  0.0000  0.0000  0.0000  0.0000  0.0000  0.0000  0.0000  0.0000  0.0002  0.0000  0.0003 </r>
       </set>
       <set comment="band 20">
        <r>  0.0000  0.0000  0.0351  0.0000  0.0000  0.0000  0.0000  0.0000  0.0000  0.0000  0.0000  0.0000  0.0006  0.0000  0.0000  0.0000 </r>
       </set>
       <set comment="band 21">
        <r>  0.0241  0.0000  0.0000  0.0000  0.0000  0.0000  0.0000  0.0000  0.0000  0.0000  0.0000  0.0000  0.0000  0.0000  0.0000  0.0000 </r>
       </set>
       <set comment="band 22">
        <r>  0.0000  0.0000  0.0000  0.0000  0.0000  0.0000  0.0000  0.0000  0.0562  0.0000  0.0000  0.0000  0.0000  0.0000  0.0000  0.0000 </r>
       </set>
       <set comment="band 23">
        <r>  0.0000  0.0000  0.0000  0.0000  0.0000  0.0000  0.0562  0.0000  0.0000  0.0000  0.0000  0.0000  0.0000  0.0000  0.0000  0.0000 </r>
       </set>
       <set comment="band 24">
        <r>  0.0000  0.0092  0.0000  0.0004  0.0000  0.0000  0.0000  0.0000  0.0000  0.0014  0.0000  0.0009  0.0000  0.0000  0.0000  0.0001 </r>
       </set>
       <set comment="band 25">
        <r>  0.0000  0.0004  0.0000  0.0092  0.0000  0.0000  0.0000  0.0000  0.0000  0.0001  0.0000  0.0000  0.0000  0.0009  0.0000  0.0015 </r>
       </set>
       <set comment="band 26">
        <r>  0.0000  0.0000  0.0097  0.0000  0.0000  0.0000  0.0000  0.0000  0.0000  0.0000  0.0000  0.0000  0.0024  0.0000  0.0000  0.0000 </r>
       </set>
       <set comment="band 27">
        <r>  0.0217  0.0000  0.0000  0.0000  0.0000  0.0000  0.0000  0.0000  0.0000  0.0000  0.0000  0.0000  0.0000  0.0000  0.0000  0.0000 </r>
       </set>
       <set comment="band 28">
        <r>  0.0000  0.0000  0.0000  0.0000  0.0000  0.0000  0.0000  0.0000  0.0000  0.0000  0.0000  0.0000  0.0000  0.0000  0.0052  0.0000 </r>
       </set>
       <set comment="band 29">
        <r>  0.0000  0.0000  0.0000  0.0000  0.0000  0.0000  0.0000  0.0000  0.0000  0.0019  0.0000  0.0032  0.0000  0.0000  0.0000  0.0000 </r>
       </set>
       <set comment="band 30">
        <r>  0.0000  0.0000  0.0000  0.0000  0.0000  0.0000  0.0000  0.0000  0.0000  0.0000  0.0000  0.0000  0.0000  0.0032  0.0000  0.0019 </r>
       </set>
       <set comment="band 31">
        <r>  0.0000  0.0000  0.0000  0.0000  0.0000  0.0683  0.0000  0.0166  0.0000  0.0000  0.0000  0.0000  0.0000  0.0000  0.0000  0.0000 </r>
       </set>
       <set comment="band 32">
        <r>  0.0000  0.0000  0.0000  0.0000  0.0000  0.0166  0.0000  0.0683  0.0000  0.0000  0.0000  0.0000  0.0000  0.0000  0.0000  0.0000 </r>
       </set>
       <set comment="band 33">
        <r>  0.0000  0.0000  0.0000  0.0000  0.0849  0.0000  0.0000  0.0000  0.0000  0.0000  0.0000  0.0000  0.0000  0.0000  0.0000  0.0000 </r>
       </set>
       <set comment="band 34">
        <r>  0.0000  0.0000  0.0000  0.0000  0.0000  0.0000  0.0000  0.0000  0.0193  0.0000  0.0000  0.0000  0.0000  0.0000  0.0000  0.0000 </r>
       </set>
       <set comment="band 35">
        <r>  0.0000  0.0000  0.0000  0.0000  0.0000  0.0000  0.0193  0.0000  0.0000  0.0000  0.0000  0.0000  0.0000  0.0000  0.0000  0.0000 </r>
       </set>
       <set comment="band 36">
        <r>  0.0000  0.0000  0.0000  0.0000  0.0000  0.0000  0.0000  0.0000  0.0000  0.0000  0.0102  0.0000  0.0000  0.0000  0.0000  0.0000 </r>
       </set>
      </set>
     </set>
    </set>
   </array>
  </projected>
 </calculation>
 <structure name="finalpos" >
  <crystal>
   <varray name="basis" >
    <v>      10.00000000       0.00000000       0.00000000 </v>
    <v>       0.00000000      10.00000000       0.00000000 </v>
    <v>       0.00000000       0.00000000      10.00000000 </v>
   </varray>
   <i name="volume">   1000.00000000 </i>
   <varray name="rec_basis" >
    <v>       0.10000000       0.00000000       0.00000000 </v>
    <v>       0.00000000       0.10000000       0.00000000 </v>
    <v>       0.00000000       0.00000000       0.10000000 </v>
   </varray>
  </crystal>
  <varray name="positions" >
   <v>       0.50000000       0.50000000       0.50000000 </v>
  </varray>
 </structure>
</modeling>
