       N       E                     dE             d eps       ncg     rms          ort
DAV:   1     0.146233610986E+02    0.14623E+02   -0.82415E+02    36   0.657E+01
DAV:   2     0.303123603209E+01   -0.11592E+02   -0.11589E+02    36   0.163E+01
DAV:   3     0.588429734345E+00   -0.24428E+01   -0.24426E+01    36   0.669E+00
DAV:   4     0.217484511633E+00   -0.37095E+00   -0.37092E+00    36   0.348E+00
DAV:   5     0.155543999949E+00   -0.61941E-01   -0.61940E-01    36   0.755E-01
SDA:   6    -0.277414790748E+00   -0.43296E+00   -0.42153E-01    36   0.105E+00 0.000E+00
DMP:   7    -0.302722280521E+00   -0.25307E-01   -0.23113E-01    36   0.490E-01 0.230E-01
DMP:   8    -0.309230244828E+00   -0.65080E-02   -0.22786E-01    36   0.677E-01-0.281E-01
DMP:   9    -0.307875463817E+00    0.13548E-02   -0.37831E-01    36   0.119E+00-0.649E-01
DMP:  10    -0.306363221886E+00    0.15122E-02   -0.45644E-01    36   0.153E+00-0.103E+00
DMP:  11    -0.309278289560E+00   -0.29151E-02   -0.31480E-01    36   0.117E+00-0.994E-01
DMP:  12    -0.315628673056E+00   -0.63504E-02   -0.92552E-02    36   0.411E-01-0.471E-01
DMP:  13    -0.319213876566E+00   -0.35852E-02   -0.44573E-03    36   0.313E-02-0.526E-02
DMP:  14    -0.319359129113E+00   -0.14525E-03   -0.80796E-03    36   0.217E-02-0.392E-03
DMP:  15    -0.319481929840E+00   -0.12280E-03   -0.28751E-03    36   0.126E-02-0.141E-02
DMP:  16    -0.319627533654E+00   -0.14560E-03   -0.45859E-04    36   0.111E-03 0.839E-05
DMP:  17    -0.319627950824E+00   -0.41717E-06   -0.48305E-04    36   0.164E-03-0.112E-03
   1 F= -.31962795E+00 E0= -.31962795E+00  d E =-.319628E+00  mag=     1.0000
