       N       E                     dE             d eps       ncg     rms          ort
DAV:   1     0.677204750977E+02    0.67720E+02   -0.30751E+03    36   0.216E+02
DAV:   2     0.235435376909E+02   -0.44177E+02   -0.44177E+02    36   0.202E+01
DAV:   3     0.396821688718E+01   -0.19575E+02   -0.19420E+02    36   0.297E+01
DAV:   4     0.678310462036E+00   -0.32899E+01   -0.32358E+01    36   0.125E+01
DAV:   5    -0.159036794694E+00   -0.83735E+00   -0.81502E+00    36   0.676E+00
SDA:   6     0.113738201373E+01    0.12964E+01   -0.26078E+01    36   0.652E+01 0.000E+00
DMP:   7     0.292378524839E+01    0.17864E+01   -0.18414E+02    36   0.606E+02-0.381E+02
DMP:   8     0.126416086308E+01   -0.16596E+01   -0.63172E+01    36   0.230E+02-0.189E+02
DMP:   9    -0.453593826996E+00   -0.17178E+01   -0.50499E-01    36   0.286E+00-0.418E+00
DMP:  10    -0.456331189852E+00   -0.27374E-02   -0.13595E+00    36   0.389E+00-0.128E+00
DMP:  11    -0.532983362443E+00   -0.76652E-01   -0.21377E-01    36   0.377E-01 0.413E-01
DMP:  12    -0.537501175500E+00   -0.45178E-02   -0.17659E-01    36   0.564E-01-0.322E-01
DMP:  13    -0.549492150147E+00   -0.11991E-01   -0.87411E-02    36   0.153E-01 0.171E-01
DMP:  14    -0.553069501713E+00   -0.35774E-02   -0.60314E-03    36   0.265E-02-0.299E-02
DMP:  15    -0.553290790509E+00   -0.22129E-03   -0.12251E-02    36   0.318E-02-0.303E-03
DMP:  16    -0.554058529333E+00   -0.76774E-03   -0.22421E-03    36   0.272E-03 0.756E-03
DMP:  17    -0.554111308437E+00   -0.52779E-04   -0.55838E-04    36   0.257E-03-0.307E-03
DMP:  18    -0.554152271007E+00   -0.40963E-04   -0.66632E-04    36   0.141E-03 0.674E-04
DMP:  19    -0.554187986822E+00   -0.35716E-04   -0.69842E-05    36   0.110E-04 0.169E-04
   1 F= -.55418799E+00 E0= -.53490517E+00  d E =-.554188E+00  mag=     2.0000
