       N       E                     dE             d eps       ncg     rms          rms(c)
DAV:   1     0.259997964452E+02    0.26000E+02   -0.16849E+03   144   0.126E+02
DAV:   2    -0.746145112998E+00   -0.26746E+02   -0.26261E+02   288   0.248E+01
DAV:   3    -0.837829692575E+00   -0.91685E-01   -0.91186E-01   144   0.231E+00
DAV:   4    -0.838321310071E+00   -0.49162E-03   -0.49157E-03   216   0.194E-01
DAV:   5    -0.838321728725E+00   -0.41865E-06   -0.41831E-06   144   0.390E-03    0.172E+01
DAV:   6     0.125036275397E+01    0.20887E+01   -0.64262E+01   216   0.164E+01    0.246E+01
DAV:   7     0.309582531786E+00   -0.94078E+00   -0.17421E+01   216   0.114E+01    0.743E+00
DAV:   8     0.701151579201E+00    0.39157E+00   -0.63637E-01   180   0.241E+00    0.542E+00
DAV:   9    -0.123068757265E+01   -0.19318E+01   -0.31525E-01   180   0.119E+00    0.633E+00
DAV:  10    -0.120716698910E+01    0.23521E-01   -0.36785E-02   180   0.609E-01    0.666E+00
DAV:  11    -0.132471948328E+01   -0.11755E+00   -0.18396E-01   216   0.125E+00    0.541E+00
DAV:  12    -0.179685987631E+01   -0.47214E+00   -0.24404E+00   216   0.271E+00    0.769E+00
DAV:  13    -0.192478719083E+01   -0.12793E+00   -0.36108E-02   180   0.716E-01    0.746E+00
DAV:  14    -0.177833509753E+01    0.14645E+00   -0.27071E-01   144   0.163E+00    0.563E+00
DAV:  15    -0.176291619699E+01    0.15419E-01   -0.66030E-03   144   0.210E-01    0.531E+00
DAV:  16    -0.178309838237E+01   -0.20182E-01   -0.66678E-02   144   0.668E-01    0.286E+00
DAV:  17    -0.184537016072E+01   -0.62272E-01   -0.12605E-01   144   0.791E-01    0.379E+00
DAV:  18    -0.185725168408E+01   -0.11882E-01   -0.16581E-02   144   0.462E-01    0.404E+00
DAV:  19    -0.184327297542E+01    0.13979E-01   -0.12969E-02   144   0.312E-01    0.180E+00
DAV:  20    -0.185669495214E+01   -0.13422E-01   -0.34329E-03   144   0.146E-01    0.120E+00
DAV:  21    -0.186254804917E+01   -0.58531E-02   -0.66223E-03   144   0.229E-01    0.132E+00
DAV:  22    -0.186484258412E+01   -0.22945E-02   -0.18744E-02   144   0.410E-01    0.195E+00
DAV:  23    -0.186210565033E+01    0.27369E-02   -0.10413E-02   144   0.304E-01    0.434E-01
DAV:  24    -0.186402482437E+01   -0.19192E-02   -0.79364E-04   144   0.982E-02    0.931E-01
DAV:  25    -0.186371176436E+01    0.31306E-03   -0.11743E-03   144   0.972E-02    0.335E-01
DAV:  26    -0.186465240749E+01   -0.94064E-03   -0.23504E-04   144   0.479E-02    0.372E-01
DAV:  27    -0.186471694332E+01   -0.64536E-04   -0.47625E-04   144   0.588E-02    0.143E-02
DAV:  28    -0.186485070494E+01   -0.13376E-03   -0.72102E-05   144   0.303E-02    0.914E-02
DAV:  29    -0.186486318725E+01   -0.12482E-04   -0.38737E-05   144   0.185E-02
   1 F= -.18648632E+01 E0= -.18450096E+01  d E =-.186486E+01  mag=     2.9989
