<?xml version="1.0" encoding="ISO-8859-1"?>
<modeling>
 <generator>
  <i name="program" type="string">vasp </i>
  <i name="version" type="string">5.4.4.18Apr17-6-g9f103f2a35  </i>
  <i name="subversion" type="string">(build Nov 08 2019 15:19:53) gamma-only         parallel </i>
  <i name="platform" type="string">LinuxIFC </i>
  <i name="date" type="string">2020 11 30 </i>
  <i name="time" type="string">09:30:43 </i>
 </generator>
 <incar>
  <i type="string" name="PREC">accurate</i>
  <i type="string" name="ALGO"> D</i>
  <i type="int" name="ISPIN">     2</i>
  <i type="int" name="NELM">   300</i>
  <i type="int" name="IBRION">     2</i>
  <i name="EDIFF">      0.00005000</i>
  <i type="int" name="NSW">    99</i>
  <i type="int" name="ISIF">     2</i>
  <i name="ENCUT">    520.00000000</i>
  <v name="MAGMOM">      1.00000000</v>
  <i type="string" name="LREAL"> Auto</i>
  <i type="int" name="ISMEAR">     0</i>
  <i name="SIGMA">      0.05000000</i>
  <i type="logical" name="LWAVE"> F  </i>
  <i type="int" name="LORBIT">    11</i>
  <i type="logical" name="LASPH"> T  </i>
  <v type="int" name="KPOINT_BSE">    -1     0     0     0</v>
  <i type="int" name="NELM">   300</i>
  <i type="logical" name="LASPH"> T  </i>
 </incar>
 <structure name="primitive_cell" >
  <crystal>
   <varray name="basis" >
    <v>      10.00000000       0.00000000       0.00000000 </v>
    <v>       0.00000000      10.00000000       0.00000000 </v>
    <v>       0.00000000       0.00000000      10.00000000 </v>
   </varray>
   <i name="volume">   1000.00000000 </i>
   <varray name="rec_basis" >
    <v>       0.10000000       0.00000000       0.00000000 </v>
    <v>       0.00000000       0.10000000       0.00000000 </v>
    <v>       0.00000000       0.00000000       0.10000000 </v>
   </varray>
  </crystal>
  <varray name="positions" >
   <v>      -0.50000000      -0.50000000      -0.50000000 </v>
  </varray>
 </structure>
 <varray name="primitive_index" >
  <v type="int" >        1 </v>
 </varray>
 <kpoints>
  <generation param="Gamma">
   <v type="int" name="divisions">       1        1        1 </v>
   <v name="usershift">      0.00000000       0.00000000       0.00000000 </v>
   <v name="genvec1">      1.00000000       0.00000000       0.00000000 </v>
   <v name="genvec2">      0.00000000       1.00000000       0.00000000 </v>
   <v name="genvec3">      0.00000000       0.00000000       1.00000000 </v>
   <v name="shift">      0.00000000       0.00000000       0.00000000 </v>
  </generation>
  <varray name="kpointlist" >
   <v>       0.00000000       0.00000000       0.00000000 </v>
  </varray>
  <varray name="weights" >
   <v>       1.00000000 </v>
  </varray>
 </kpoints>
 <parameters>
  <separator name="general" >
   <i type="string" name="SYSTEM">unknown system</i>
   <i type="logical" name="LCOMPAT"> F  </i>
  </separator>
  <separator name="electronic" >
   <i type="string" name="PREC">accura</i>
   <i name="ENMAX">    520.00000000</i>
   <i name="ENAUG">    400.00000000</i>
   <i name="EDIFF">      0.00005000</i>
   <i type="int" name="IALGO">    53</i>
   <i type="int" name="IWAVPR">    11</i>
   <i type="int" name="NBANDS">    36</i>
   <i name="NELECT">      1.00000000</i>
   <i type="int" name="TURBO">     0</i>
   <i type="int" name="IRESTART">     0</i>
   <i type="int" name="NREBOOT">     0</i>
   <i type="int" name="NMIN">     0</i>
   <i name="EREF">      0.00000000</i>
   <separator name="electronic smearing" >
    <i type="int" name="ISMEAR">     0</i>
    <i name="SIGMA">      0.05000000</i>
    <i name="KSPACING">      0.50000000</i>
    <i type="logical" name="KGAMMA"> T  </i>
   </separator>
   <separator name="electronic projectors" >
    <i type="logical" name="LREAL"> T  </i>
    <v name="ROPT">     -0.00025000</v>
    <i type="int" name="LMAXPAW">  -100</i>
    <i type="int" name="LMAXMIX">     2</i>
    <i type="logical" name="NLSPLINE"> F  </i>
   </separator>
   <separator name="electronic startup" >
    <i type="int" name="ISTART">     0</i>
    <i type="int" name="ICHARG">     2</i>
    <i type="int" name="INIWAV">     1</i>
   </separator>
   <separator name="electronic spin" >
    <i type="int" name="ISPIN">     2</i>
    <i type="logical" name="LNONCOLLINEAR"> F  </i>
    <v name="MAGMOM">      1.00000000</v>
    <i name="NUPDOWN">     -1.00000000</i>
    <i type="logical" name="LSORBIT"> F  </i>
    <v name="SAXIS">      0.00000000      0.00000000      1.00000000</v>
    <i type="logical" name="LSPIRAL"> F  </i>
    <v name="QSPIRAL">      0.00000000      0.00000000      0.00000000</v>
    <i type="logical" name="LZEROZ"> F  </i>
   </separator>
   <separator name="electronic exchange-correlation" >
    <i type="logical" name="LASPH"> T  </i>
    <i type="logical" name="LMETAGGA"> F  </i>
   </separator>
   <separator name="electronic convergence" >
    <i type="int" name="NELM">   300</i>
    <i type="int" name="NELMDL">    -5</i>
    <i type="int" name="NELMIN">     2</i>
    <i name="ENINI">    520.00000000</i>
    <separator name="electronic convergence detail" >
     <i type="logical" name="LDIAG"> T  </i>
     <i type="logical" name="LSUBROT"> F  </i>
     <i name="WEIMIN">      0.00100000</i>
     <i name="EBREAK">      0.00000035</i>
     <i name="DEPER">      0.30000000</i>
     <i type="int" name="NRMM">     4</i>
     <i name="TIME">      0.40000000</i>
    </separator>
   </separator>
   <separator name="electronic mixer" >
    <i name="AMIX">      0.40000000</i>
    <i name="BMIX">      1.00000000</i>
    <i name="AMIN">      0.10000000</i>
    <i name="AMIX_MAG">      1.60000000</i>
    <i name="BMIX_MAG">      1.00000000</i>
    <separator name="electronic mixer details" >
     <i type="int" name="IMIX">     4</i>
     <i type="logical" name="MIXFIRST"> F  </i>
     <i type="int" name="MAXMIX">   -45</i>
     <i name="WC">    100.00000000</i>
     <i type="int" name="INIMIX">     1</i>
     <i type="int" name="MIXPRE">     1</i>
     <i type="int" name="MREMOVE">     5</i>
    </separator>
   </separator>
   <separator name="electronic dipolcorrection" >
    <i type="logical" name="LDIPOL"> F  </i>
    <i type="logical" name="LMONO"> F  </i>
    <i type="int" name="IDIPOL">     0</i>
    <i name="EPSILON">      1.00000000</i>
    <v name="DIPOL">   -100.00000000   -100.00000000   -100.00000000</v>
    <i name="EFIELD">      0.00000000</i>
   </separator>
  </separator>
  <separator name="grids" >
   <i type="int" name="NGX">    80</i>
   <i type="int" name="NGY">    80</i>
   <i type="int" name="NGZ">    80</i>
   <i type="int" name="NGXF">   160</i>
   <i type="int" name="NGYF">   160</i>
   <i type="int" name="NGZF">   160</i>
   <i type="logical" name="ADDGRID"> F  </i>
  </separator>
  <separator name="ionic" >
   <i type="int" name="NSW">    99</i>
   <i type="int" name="IBRION">     2</i>
   <i type="int" name="MDALGO">     0</i>
   <i type="int" name="ISIF">     2</i>
   <i name="PSTRESS">      0.00000000</i>
   <i name="EDIFFG">      0.00050000</i>
   <i type="int" name="NFREE">     1</i>
   <i name="POTIM">      0.50000000</i>
   <i name="SMASS">     -3.00000000</i>
   <i name="SCALEE">      1.00000000</i>
  </separator>
  <separator name="ionic md" >
   <i name="TEBEG">      0.00010000</i>
   <i name="TEEND">      0.00010000</i>
   <i type="int" name="NBLOCK">     1</i>
   <i type="int" name="KBLOCK">    99</i>
   <i type="int" name="NPACO">   256</i>
   <i name="APACO">     16.00000000</i>
  </separator>
  <separator name="symmetry" >
   <i type="int" name="ISYM">     2</i>
   <i name="SYMPREC">      0.00001000</i>
  </separator>
  <separator name="dos" >
   <i type="int" name="LORBIT">    11</i>
   <v name="RWIGS">     -1.00000000</v>
   <i type="int" name="NEDOS">   301</i>
   <i name="EMIN">     10.00000000</i>
   <i name="EMAX">    -10.00000000</i>
   <i name="EFERMI">      0.00000000</i>
  </separator>
  <separator name="writing" >
   <i type="int" name="NWRITE">     2</i>
   <i type="logical" name="LWAVE"> F  </i>
   <i type="logical" name="LDOWNSAMPLE"> F  </i>
   <i type="logical" name="LCHARG"> T  </i>
   <i type="logical" name="LPARD"> F  </i>
   <i type="logical" name="LVTOT"> F  </i>
   <i type="logical" name="LVHAR"> F  </i>
   <i type="logical" name="LELF"> F  </i>
   <i type="logical" name="LOPTICS"> F  </i>
   <v name="STM">      0.00000000      0.00000000      0.00000000      0.00000000      0.00000000      0.00000000      0.00000000</v>
  </separator>
  <separator name="performance" >
   <i type="int" name="NPAR">    36</i>
   <i type="int" name="NSIM">     4</i>
   <i type="int" name="NBLK">    -1</i>
   <i type="logical" name="LPLANE"> T  </i>
   <i type="logical" name="LSCALAPACK"> T  </i>
   <i type="logical" name="LSCAAWARE"> F  </i>
   <i type="logical" name="LSCALU"> F  </i>
   <i type="logical" name="LASYNC"> F  </i>
   <i type="logical" name="LORBITALREAL"> F  </i>
  </separator>
  <separator name="miscellaneous" >
   <i type="int" name="IDIOT">     3</i>
   <i type="int" name="ISPECIAL">     0</i>
   <i type="logical" name="LMUSIC"> F  </i>
   <v name="POMASS">      1.00000000</v>
   <v name="DARWINR">      0.00000000</v>
   <v name="DARWINV">      1.00000000</v>
   <i type="logical" name="LCORR"> T  </i>
  </separator>
  <i type="logical" name="GGA_COMPAT"> T  </i>
  <i type="logical" name="LBERRY"> F  </i>
  <i type="int" name="ICORELEVEL">     0</i>
  <i type="logical" name="LDAU"> F  </i>
  <i type="int" name="I_CONSTRAINED_M">     0</i>
  <separator name="electronic exchange-correlation" >
   <i type="string" name="GGA">--</i>
   <i type="int" name="VOSKOWN">     0</i>
   <i type="logical" name="LHFCALC"> F  </i>
   <i type="string" name="PRECFOCK"></i>
   <i type="logical" name="LSYMGRAD"> F  </i>
   <i type="logical" name="LHFONE"> F  </i>
   <i type="logical" name="LRHFCALC"> F  </i>
   <i type="logical" name="LTHOMAS"> F  </i>
   <i type="logical" name="LMODELHF"> F  </i>
   <i name="ENCUT4O">     -1.00000000</i>
   <i type="int" name="EXXOEP">     0</i>
   <i type="int" name="FOURORBIT">     0</i>
   <i name="AEXX">      0.00000000</i>
   <i name="HFALPHA">      0.00000000</i>
   <i name="MCALPHA">      0.00000000</i>
   <i name="ALDAX">      1.00000000</i>
   <i name="AGGAX">      1.00000000</i>
   <i name="ALDAC">      1.00000000</i>
   <i name="AGGAC">      1.00000000</i>
   <i type="int" name="NKREDX">     1</i>
   <i type="int" name="NKREDY">     1</i>
   <i type="int" name="NKREDZ">     1</i>
   <i type="logical" name="SHIFTRED"> F  </i>
   <i type="logical" name="ODDONLY"> F  </i>
   <i type="logical" name="EVENONLY"> F  </i>
   <i type="int" name="LMAXFOCK">     0</i>
   <i type="int" name="NMAXFOCKAE">     0</i>
   <i type="logical" name="LFOCKAEDFT"> F  </i>
   <i name="HFSCREEN">      0.00000000</i>
   <i name="HFSCREENC">      0.00000000</i>
   <i type="int" name="NBANDSGWLOW">     0</i>
  </separator>
  <separator name="vdW DFT" >
   <i type="logical" name="LUSE_VDW"> F  </i>
   <i name="Zab_VDW">     -0.84910000</i>
   <i name="PARAM1">      0.12340000</i>
   <i name="PARAM2">      1.00000000</i>
   <i name="PARAM3">      0.00000000</i>
  </separator>
  <separator name="model GW" >
   <i type="int" name="MODEL_GW">     0</i>
   <i name="MODEL_EPS0">    600.00000000</i>
   <i name="MODEL_ALPHA">      1.00000000</i>
  </separator>
  <separator name="linear response parameters" >
   <i type="logical" name="LEPSILON"> F  </i>
   <i type="logical" name="LRPA"> F  </i>
   <i type="logical" name="LNABLA"> F  </i>
   <i type="logical" name="LVEL"> F  </i>
   <i type="int" name="KINTER">     0</i>
   <i name="CSHIFT">      0.10000000</i>
   <i name="OMEGAMAX">     -1.00000000</i>
   <i name="DEG_THRESHOLD">      0.00200000</i>
   <i name="RTIME">     -0.10000000</i>
   <i name="WPLASMAI">      0.00000000</i>
   <v name="DFIELD">      0.00000000      0.00000000      0.00000000</v>
   <v name="WPLASMA">      0.00000000      0.00000000      0.00000000      0.00000000      0.00000000      0.00000000      0.00000000      0.00000000      0.00000000</v>
  </separator>
  <separator name="orbital magnetization" >
   <i type="logical" name="NUCIND"> F  </i>
   <v name="MAGPOS">      0.00000000      0.00000000      0.00000000</v>
   <i type="logical" name="LNICSALL"> T  </i>
   <i type="logical" name="ORBITALMAG"> F  </i>
   <i type="logical" name="LMAGBLOCH"> F  </i>
   <i type="logical" name="LCHIMAG"> F  </i>
   <i type="logical" name="LGAUGE"> T  </i>
   <i type="int" name="MAGATOM">     0</i>
   <v name="MAGDIPOL">      0.00000000      0.00000000      0.00000000</v>
   <v name="AVECCONST">      0.00000000      0.00000000      0.00000000</v>
  </separator>
  <separator name="response functions" >
   <i type="logical" name="LADDER"> F  </i>
   <i type="logical" name="LRPAFORCE"> F  </i>
   <i type="logical" name="LFXC"> F  </i>
   <i type="logical" name="LHARTREE"> T  </i>
   <i type="int" name="IBSE">     0</i>
   <v type="int" name="KPOINT">    -1     0     0     0</v>
   <i type="logical" name="LTCTE"> F  </i>
   <i type="logical" name="LTETE"> F  </i>
   <i type="logical" name="LTRIPLET"> F  </i>
   <i type="logical" name="LFXCEPS"> F  </i>
   <i type="logical" name="LFXHEG"> F  </i>
   <i type="int" name="NATURALO">     2</i>
   <i type="logical" name="L2ORDER"> F  </i>
   <i type="logical" name="LMP2LT"> F  </i>
   <i type="logical" name="LUSEW"> F  </i>
   <i name="ENCUTGW">     -2.00000000</i>
   <i name="ENCUTGWSOFT">     -2.00000000</i>
   <i name="ENCUTLF">     -1.00000000</i>
   <i type="int" name="LMAXMP2">    -1</i>
   <i name="SCISSOR">      0.00000000</i>
   <i type="int" name="NOMEGA">     0</i>
   <i type="int" name="NOMEGAR">     0</i>
   <i type="int" name="NBANDSGW">    -1</i>
   <i type="int" name="NBANDSO">    -1</i>
   <i type="int" name="NBANDSV">    -1</i>
   <i type="int" name="NELM">   300</i>
   <i type="int" name="NELMHF">     1</i>
   <i type="int" name="DIM">     3</i>
   <i type="int" name="ANTIRES">     0</i>
   <i name="OMEGAMAX">    -30.00000000</i>
   <i name="OMEGAMIN">    -30.00000000</i>
   <i name="OMEGATL">   -200.00000000</i>
   <i type="int" name="OMEGAGRID">   140</i>
   <i name="CSHIFT">     -0.10000000</i>
   <i type="logical" name="SELFENERGY"> F  </i>
   <i type="logical" name="LSPECTRAL"> F  </i>
   <i type="logical" name="LSPECTRALGW"> F  </i>
   <i type="logical" name="LSINGLES"> F  </i>
   <i type="logical" name="LFERMIGW"> F  </i>
   <i type="logical" name="ODDONLYGW"> F  </i>
   <i type="logical" name="EVENONLYGW"> F  </i>
   <i type="int" name="NKREDLFX">     1</i>
   <i type="int" name="NKREDLFY">     1</i>
   <i type="int" name="NKREDLFZ">     1</i>
   <i type="int" name="MAXMEM">  2800</i>
   <i type="int" name="TELESCOPE">     0</i>
   <i type="int" name="TAUPAR">     1</i>
   <i type="int" name="OMEGAPAR">    -1</i>
   <i name="LAMBDA">      1.00000000</i>
  </separator>
  <separator name="External order field" >
   <i name="OFIELD_KAPPA">      0.00000000</i>
   <v name="OFIELD_K">      0.00000000      0.00000000      0.00000000</v>
   <i name="OFIELD_Q6_NEAR">      0.00000000</i>
   <i name="OFIELD_Q6_FAR">      0.00000000</i>
   <i name="OFIELD_A">      0.00000000</i>
  </separator>
 </parameters>
 <atominfo>
  <atoms>       1 </atoms>
  <types>       1 </types>
  <array name="atoms" >
   <dimension dim="1">ion</dimension>
   <field type="string">element</field>
   <field type="int">atomtype</field>
   <set>
    <rc><c>H </c><c>   1</c></rc>
   </set>
  </array>
  <array name="atomtypes" >
   <dimension dim="1">type</dimension>
   <field type="int">atomspertype</field>
   <field type="string">element</field>
   <field>mass</field>
   <field>valence</field>
   <field type="string">pseudopotential</field>
   <set>
    <rc><c>   1</c><c>H </c><c>      1.00000000</c><c>      1.00000000</c><c>  PAW_PBE H 15Jun2001                   </c></rc>
   </set>
  </array>
 </atominfo>
 <structure name="initialpos" >
  <crystal>
   <varray name="basis" >
    <v>      10.00000000       0.00000000       0.00000000 </v>
    <v>       0.00000000      10.00000000       0.00000000 </v>
    <v>       0.00000000       0.00000000      10.00000000 </v>
   </varray>
   <i name="volume">   1000.00000000 </i>
   <varray name="rec_basis" >
    <v>       0.10000000       0.00000000       0.00000000 </v>
    <v>       0.00000000       0.10000000       0.00000000 </v>
    <v>       0.00000000       0.00000000       0.10000000 </v>
   </varray>
  </crystal>
  <varray name="positions" >
   <v>       0.50000000       0.50000000       0.50000000 </v>
  </varray>
 </structure>
 <calculation>
  <scstep>
   <time name="total">    0.78    0.79</time>
   <energy>
    <i name="alphaZ">      0.00243617 </i>
    <i name="ewald">     -2.04282400 </i>
    <i name="hartreedc">     -5.86380841 </i>
    <i name="XCdc">      2.20983316 </i>
    <i name="pawpsdc">      1.79432987 </i>
    <i name="pawaedc">     -1.80270143 </i>
    <i name="eentropy">     -0.00000000 </i>
    <i name="bandstr">     -3.52911168 </i>
    <i name="atom">     12.48697088 </i>
    <i name="e_fr_energy">      3.25512456 </i>
    <i name="e_wo_entrp">      3.25512456 </i>
    <i name="e_0_energy">      3.25512456 </i>
   </energy>
  </scstep>
  <scstep>
   <time name="total">    0.49    0.49</time>
   <energy>
    <i name="e_fr_energy">     -0.56537864 </i>
    <i name="e_wo_entrp">     -0.56537864 </i>
    <i name="e_0_energy">     -0.56537864 </i>
   </energy>
  </scstep>
  <scstep>
   <time name="total">    0.49    0.49</time>
   <energy>
    <i name="e_fr_energy">     -1.05254371 </i>
    <i name="e_wo_entrp">     -1.05254371 </i>
    <i name="e_0_energy">     -1.05254371 </i>
   </energy>
  </scstep>
  <scstep>
   <time name="total">    0.49    0.49</time>
   <energy>
    <i name="e_fr_energy">     -1.11209289 </i>
    <i name="e_wo_entrp">     -1.11209289 </i>
    <i name="e_0_energy">     -1.11209289 </i>
   </energy>
  </scstep>
  <scstep>
   <time name="total">    0.72    0.72</time>
   <energy>
    <i name="e_fr_energy">     -1.12108334 </i>
    <i name="e_wo_entrp">     -1.12108334 </i>
    <i name="e_0_energy">     -1.12108334 </i>
   </energy>
  </scstep>
  <scstep>
   <time name="total">    0.81    0.82</time>
   <energy>
    <i name="e_fr_energy">     -1.11480012 </i>
    <i name="e_wo_entrp">     -1.11480012 </i>
    <i name="e_0_energy">     -1.11480012 </i>
   </energy>
  </scstep>
  <scstep>
   <time name="total">    0.79    0.79</time>
   <energy>
    <i name="e_fr_energy">     -1.11668738 </i>
    <i name="e_wo_entrp">     -1.11668738 </i>
    <i name="e_0_energy">     -1.11668738 </i>
   </energy>
  </scstep>
  <scstep>
   <time name="total">    0.79    0.79</time>
   <energy>
    <i name="e_fr_energy">     -1.11691155 </i>
    <i name="e_wo_entrp">     -1.11691155 </i>
    <i name="e_0_energy">     -1.11691155 </i>
   </energy>
  </scstep>
  <scstep>
   <time name="total">    0.77    0.77</time>
   <energy>
    <i name="e_fr_energy">     -1.11712262 </i>
    <i name="e_wo_entrp">     -1.11712262 </i>
    <i name="e_0_energy">     -1.11712262 </i>
   </energy>
  </scstep>
  <scstep>
   <time name="total">    0.77    0.77</time>
   <energy>
    <i name="e_fr_energy">     -1.11720861 </i>
    <i name="e_wo_entrp">     -1.11720861 </i>
    <i name="e_0_energy">     -1.11720861 </i>
   </energy>
  </scstep>
  <scstep>
   <time name="total">    0.87    0.87</time>
   <energy>
    <i name="alphaZ">      0.00243617 </i>
    <i name="ewald">     -2.04282400 </i>
    <i name="hartreedc">     -6.32699525 </i>
    <i name="XCdc">      2.33702536 </i>
    <i name="pawpsdc">      2.14115850 </i>
    <i name="pawaedc">     -2.15131567 </i>
    <i name="eentropy">     -0.00000000 </i>
    <i name="bandstr">     -7.56369308 </i>
    <i name="atom">     12.48697088 </i>
    <i name="e_fr_energy">     -1.11723710 </i>
    <i name="e_wo_entrp">     -1.11723710 </i>
    <i name="e_0_energy">     -1.11723710 </i>
   </energy>
  </scstep>
  <structure>
   <crystal>
    <varray name="basis" >
     <v>      10.00000000       0.00000000       0.00000000 </v>
     <v>       0.00000000      10.00000000       0.00000000 </v>
     <v>       0.00000000       0.00000000      10.00000000 </v>
    </varray>
    <i name="volume">   1000.00000000 </i>
    <varray name="rec_basis" >
     <v>       0.10000000       0.00000000       0.00000000 </v>
     <v>       0.00000000       0.10000000       0.00000000 </v>
     <v>       0.00000000       0.00000000       0.10000000 </v>
    </varray>
   </crystal>
   <varray name="positions" >
    <v>       0.50000000       0.50000000       0.50000000 </v>
   </varray>
  </structure>
  <varray name="forces" >
   <v>       0.00000000       0.00000000       0.00000000 </v>
  </varray>
  <varray name="stress" >
   <v>      -0.01271080      -0.00000000       0.00000000 </v>
   <v>       0.00000000      -0.01271080       0.00000000 </v>
   <v>      -0.00000000       0.00000000      -0.01271080 </v>
  </varray>
  <energy>
   <i name="e_fr_energy">     -1.11723710 </i>
   <i name="e_wo_entrp">     -1.11723710 </i>
   <i name="e_0_energy">     -0.00000000 </i>
  </energy>
  <time name="totalsc">   15.24   15.50</time>
  <eigenvalues>
   <array>
    <dimension dim="1">band</dimension>
    <dimension dim="2">kpoint</dimension>
    <dimension dim="3">spin</dimension>
    <field>eigene</field>
    <field>occ</field>
    <set>
     <set comment="spin 1">
      <set comment="kpoint 1">
       <r>   -7.5637    1.0000 </r>
       <r>   -0.2558    0.0000 </r>
       <r>    0.7565    0.0000 </r>
       <r>    0.7610    0.0000 </r>
       <r>    0.7849    0.0000 </r>
       <r>    1.2594    0.0000 </r>
       <r>    1.2596    0.0000 </r>
       <r>    1.3502    0.0000 </r>
       <r>    2.2921    0.0000 </r>
       <r>    2.3660    0.0000 </r>
       <r>    2.4837    0.0000 </r>
       <r>    2.4899    0.0000 </r>
       <r>    2.4975    0.0000 </r>
       <r>    2.5658    0.0000 </r>
       <r>    2.6822    0.0000 </r>
       <r>    2.7227    0.0000 </r>
       <r>    2.9037    0.0000 </r>
       <r>    2.9203    0.0000 </r>
       <r>    2.9940    0.0000 </r>
       <r>    3.2063    0.0000 </r>
       <r>    3.8425    0.0000 </r>
       <r>    4.0115    0.0000 </r>
       <r>    4.1112    0.0000 </r>
       <r>    4.1997    0.0000 </r>
       <r>    4.2648    0.0000 </r>
       <r>    4.3822    0.0000 </r>
       <r>    5.0298    0.0000 </r>
       <r>    5.2777    0.0000 </r>
       <r>    5.3264    0.0000 </r>
       <r>    5.6307    0.0000 </r>
       <r>    5.8301    0.0000 </r>
       <r>    5.9351    0.0000 </r>
       <r>    6.5026    0.0000 </r>
       <r>    7.0279    0.0000 </r>
       <r>    7.1419    0.0000 </r>
       <r>    7.4949    0.0000 </r>
      </set>
     </set>
     <set comment="spin 2">
      <set comment="kpoint 1">
       <r>    0.0838    0.0000 </r>
       <r>    1.5370    0.0000 </r>
       <r>    1.5384    0.0000 </r>
       <r>    1.5646    0.0000 </r>
       <r>    1.5693    0.0000 </r>
       <r>    1.5702    0.0000 </r>
       <r>    1.7813    0.0000 </r>
       <r>    3.0434    0.0000 </r>
       <r>    3.0454    0.0000 </r>
       <r>    3.0483    0.0000 </r>
       <r>    3.0484    0.0000 </r>
       <r>    3.0500    0.0000 </r>
       <r>    3.0766    0.0000 </r>
       <r>    3.1325    0.0000 </r>
       <r>    3.1591    0.0000 </r>
       <r>    3.1714    0.0000 </r>
       <r>    3.2049    0.0000 </r>
       <r>    3.2789    0.0000 </r>
       <r>    3.3814    0.0000 </r>
       <r>    4.5133    0.0000 </r>
       <r>    4.5339    0.0000 </r>
       <r>    4.5415    0.0000 </r>
       <r>    4.6063    0.0000 </r>
       <r>    4.6452    0.0000 </r>
       <r>    4.7158    0.0000 </r>
       <r>    4.8784    0.0000 </r>
       <r>    5.3219    0.0000 </r>
       <r>    5.7385    0.0000 </r>
       <r>    5.9222    0.0000 </r>
       <r>    6.1239    0.0000 </r>
       <r>    6.9327    0.0000 </r>
       <r>    7.1616    0.0000 </r>
       <r>    7.5084    0.0000 </r>
       <r>    7.5393    0.0000 </r>
       <r>    7.5642    0.0000 </r>
       <r>    7.5840    0.0000 </r>
      </set>
     </set>
    </set>
   </array>
  </eigenvalues>
  <separator name="orbital magnetization" >
   <v name="MAGDIPOLOUT">      0.00000000      0.00000000      0.00000000</v>
  </separator>
  <dos>
   <i name="efermi">     -7.31788144 </i>
   <total>
    <array>
     <dimension dim="1">gridpoints</dimension>
     <dimension dim="2">spin</dimension>
     <field>energy</field>
     <field>total</field>
     <field>integrated</field>
     <set>
      <set comment="spin 1">
       <r>    -8.3211     0.0000     0.0000 </r>
       <r>    -8.2656     0.0000     0.0000 </r>
       <r>    -8.2100     0.0000     0.0000 </r>
       <r>    -8.1545     0.0000     0.0000 </r>
       <r>    -8.0989     0.0000     0.0000 </r>
       <r>    -8.0434     0.0000     0.0000 </r>
       <r>    -7.9879     0.0000     0.0000 </r>
       <r>    -7.9323     0.0000     0.0000 </r>
       <r>    -7.8768     0.0000     0.0000 </r>
       <r>    -7.8212     0.0000     0.0000 </r>
       <r>    -7.7657     0.0000     0.0000 </r>
       <r>    -7.7101     0.0003     0.0000 </r>
       <r>    -7.6546     0.0911     0.0051 </r>
       <r>    -7.5991     2.7664     0.1587 </r>
       <r>    -7.5435    10.0350     0.7161 </r>
       <r>    -7.4880     4.8220     0.9839 </r>
       <r>    -7.4324     0.2878     0.9999 </r>
       <r>    -7.3769     0.0018     1.0000 </r>
       <r>    -7.3214     0.0000     1.0000 </r>
       <r>    -7.2658     0.0000     1.0000 </r>
       <r>    -7.2103     0.0000     1.0000 </r>
       <r>    -7.1547     0.0000     1.0000 </r>
       <r>    -7.0992     0.0000     1.0000 </r>
       <r>    -7.0436     0.0000     1.0000 </r>
       <r>    -6.9881     0.0000     1.0000 </r>
       <r>    -6.9326     0.0000     1.0000 </r>
       <r>    -6.8770     0.0000     1.0000 </r>
       <r>    -6.8215     0.0000     1.0000 </r>
       <r>    -6.7659     0.0000     1.0000 </r>
       <r>    -6.7104     0.0000     1.0000 </r>
       <r>    -6.6549     0.0000     1.0000 </r>
       <r>    -6.5993     0.0000     1.0000 </r>
       <r>    -6.5438     0.0000     1.0000 </r>
       <r>    -6.4882     0.0000     1.0000 </r>
       <r>    -6.4327     0.0000     1.0000 </r>
       <r>    -6.3771     0.0000     1.0000 </r>
       <r>    -6.3216     0.0000     1.0000 </r>
       <r>    -6.2661     0.0000     1.0000 </r>
       <r>    -6.2105     0.0000     1.0000 </r>
       <r>    -6.1550     0.0000     1.0000 </r>
       <r>    -6.0994     0.0000     1.0000 </r>
       <r>    -6.0439     0.0000     1.0000 </r>
       <r>    -5.9884     0.0000     1.0000 </r>
       <r>    -5.9328     0.0000     1.0000 </r>
       <r>    -5.8773     0.0000     1.0000 </r>
       <r>    -5.8217     0.0000     1.0000 </r>
       <r>    -5.7662     0.0000     1.0000 </r>
       <r>    -5.7106     0.0000     1.0000 </r>
       <r>    -5.6551     0.0000     1.0000 </r>
       <r>    -5.5996     0.0000     1.0000 </r>
       <r>    -5.5440     0.0000     1.0000 </r>
       <r>    -5.4885     0.0000     1.0000 </r>
       <r>    -5.4329     0.0000     1.0000 </r>
       <r>    -5.3774     0.0000     1.0000 </r>
       <r>    -5.3219     0.0000     1.0000 </r>
       <r>    -5.2663     0.0000     1.0000 </r>
       <r>    -5.2108     0.0000     1.0000 </r>
       <r>    -5.1552     0.0000     1.0000 </r>
       <r>    -5.0997     0.0000     1.0000 </r>
       <r>    -5.0441     0.0000     1.0000 </r>
       <r>    -4.9886     0.0000     1.0000 </r>
       <r>    -4.9331     0.0000     1.0000 </r>
       <r>    -4.8775     0.0000     1.0000 </r>
       <r>    -4.8220     0.0000     1.0000 </r>
       <r>    -4.7664     0.0000     1.0000 </r>
       <r>    -4.7109     0.0000     1.0000 </r>
       <r>    -4.6554     0.0000     1.0000 </r>
       <r>    -4.5998     0.0000     1.0000 </r>
       <r>    -4.5443     0.0000     1.0000 </r>
       <r>    -4.4887     0.0000     1.0000 </r>
       <r>    -4.4332     0.0000     1.0000 </r>
       <r>    -4.3776     0.0000     1.0000 </r>
       <r>    -4.3221     0.0000     1.0000 </r>
       <r>    -4.2666     0.0000     1.0000 </r>
       <r>    -4.2110     0.0000     1.0000 </r>
       <r>    -4.1555     0.0000     1.0000 </r>
       <r>    -4.0999     0.0000     1.0000 </r>
       <r>    -4.0444     0.0000     1.0000 </r>
       <r>    -3.9888     0.0000     1.0000 </r>
       <r>    -3.9333     0.0000     1.0000 </r>
       <r>    -3.8778     0.0000     1.0000 </r>
       <r>    -3.8222     0.0000     1.0000 </r>
       <r>    -3.7667     0.0000     1.0000 </r>
       <r>    -3.7111     0.0000     1.0000 </r>
       <r>    -3.6556     0.0000     1.0000 </r>
       <r>    -3.6001     0.0000     1.0000 </r>
       <r>    -3.5445     0.0000     1.0000 </r>
       <r>    -3.4890     0.0000     1.0000 </r>
       <r>    -3.4334     0.0000     1.0000 </r>
       <r>    -3.3779     0.0000     1.0000 </r>
       <r>    -3.3223     0.0000     1.0000 </r>
       <r>    -3.2668     0.0000     1.0000 </r>
       <r>    -3.2113     0.0000     1.0000 </r>
       <r>    -3.1557     0.0000     1.0000 </r>
       <r>    -3.1002     0.0000     1.0000 </r>
       <r>    -3.0446     0.0000     1.0000 </r>
       <r>    -2.9891     0.0000     1.0000 </r>
       <r>    -2.9336     0.0000     1.0000 </r>
       <r>    -2.8780     0.0000     1.0000 </r>
       <r>    -2.8225     0.0000     1.0000 </r>
       <r>    -2.7669     0.0000     1.0000 </r>
       <r>    -2.7114     0.0000     1.0000 </r>
       <r>    -2.6558     0.0000     1.0000 </r>
       <r>    -2.6003     0.0000     1.0000 </r>
       <r>    -2.5448     0.0000     1.0000 </r>
       <r>    -2.4892     0.0000     1.0000 </r>
       <r>    -2.4337     0.0000     1.0000 </r>
       <r>    -2.3781     0.0000     1.0000 </r>
       <r>    -2.3226     0.0000     1.0000 </r>
       <r>    -2.2671     0.0000     1.0000 </r>
       <r>    -2.2115     0.0000     1.0000 </r>
       <r>    -2.1560     0.0000     1.0000 </r>
       <r>    -2.1004     0.0000     1.0000 </r>
       <r>    -2.0449     0.0000     1.0000 </r>
       <r>    -1.9893     0.0000     1.0000 </r>
       <r>    -1.9338     0.0000     1.0000 </r>
       <r>    -1.8783     0.0000     1.0000 </r>
       <r>    -1.8227     0.0000     1.0000 </r>
       <r>    -1.7672     0.0000     1.0000 </r>
       <r>    -1.7116     0.0000     1.0000 </r>
       <r>    -1.6561     0.0000     1.0000 </r>
       <r>    -1.6006     0.0000     1.0000 </r>
       <r>    -1.5450     0.0000     1.0000 </r>
       <r>    -1.4895     0.0000     1.0000 </r>
       <r>    -1.4339     0.0000     1.0000 </r>
       <r>    -1.3784     0.0000     1.0000 </r>
       <r>    -1.3228     0.0000     1.0000 </r>
       <r>    -1.2673     0.0000     1.0000 </r>
       <r>    -1.2118     0.0000     1.0000 </r>
       <r>    -1.1562     0.0000     1.0000 </r>
       <r>    -1.1007     0.0000     1.0000 </r>
       <r>    -1.0451     0.0000     1.0000 </r>
       <r>    -0.9896     0.0000     1.0000 </r>
       <r>    -0.9341     0.0000     1.0000 </r>
       <r>    -0.8785     0.0000     1.0000 </r>
       <r>    -0.8230     0.0000     1.0000 </r>
       <r>    -0.7674     0.0000     1.0000 </r>
       <r>    -0.7119     0.0000     1.0000 </r>
       <r>    -0.6563     0.0000     1.0000 </r>
       <r>    -0.6008     0.0000     1.0000 </r>
       <r>    -0.5453     0.0000     1.0000 </r>
       <r>    -0.4897     0.0000     1.0000 </r>
       <r>    -0.4342     0.0000     1.0000 </r>
       <r>    -0.3786     0.0046     1.0003 </r>
       <r>    -0.3231     0.5086     1.0285 </r>
       <r>    -0.2676     6.1453     1.3698 </r>
       <r>    -0.2120     9.4062     1.8923 </r>
       <r>    -0.1565     1.8951     1.9975 </r>
       <r>    -0.1009     0.0445     2.0000 </r>
       <r>    -0.0454     0.0001     2.0000 </r>
       <r>     0.0102     0.0000     2.0000 </r>
       <r>     0.0657     0.0000     2.0000 </r>
       <r>     0.1212     0.0000     2.0000 </r>
       <r>     0.1768     0.0000     2.0000 </r>
       <r>     0.2323     0.0000     2.0000 </r>
       <r>     0.2879     0.0000     2.0000 </r>
       <r>     0.3434     0.0000     2.0000 </r>
       <r>     0.3989     0.0000     2.0000 </r>
       <r>     0.4545     0.0000     2.0000 </r>
       <r>     0.5100     0.0000     2.0000 </r>
       <r>     0.5656     0.0000     2.0000 </r>
       <r>     0.6211     0.0019     2.0001 </r>
       <r>     0.6767     0.3871     2.0216 </r>
       <r>     0.7322     9.0017     2.5216 </r>
       <r>     0.7877    28.7503     4.1184 </r>
       <r>     0.8433    14.6753     4.9335 </r>
       <r>     0.8988     1.1843     4.9993 </r>
       <r>     0.9544     0.0129     5.0000 </r>
       <r>     1.0099     0.0000     5.0000 </r>
       <r>     1.0654     0.0000     5.0000 </r>
       <r>     1.1210     0.0016     5.0001 </r>
       <r>     1.1765     0.3391     5.0189 </r>
       <r>     1.2321     7.5468     5.4381 </r>
       <r>     1.2876    21.1309     6.6117 </r>
       <r>     1.3432    14.2563     7.4036 </r>
       <r>     1.3987     9.2091     7.9150 </r>
       <r>     1.4542     1.5004     7.9984 </r>
       <r>     1.5098     0.0291     8.0000 </r>
       <r>     1.5653     0.0001     8.0000 </r>
       <r>     1.6209     0.0000     8.0000 </r>
       <r>     1.6764     0.0000     8.0000 </r>
       <r>     1.7319     0.0000     8.0000 </r>
       <r>     1.7875     0.0000     8.0000 </r>
       <r>     1.8430     0.0000     8.0000 </r>
       <r>     1.8986     0.0000     8.0000 </r>
       <r>     1.9541     0.0000     8.0000 </r>
       <r>     2.0097     0.0000     8.0000 </r>
       <r>     2.0652     0.0000     8.0000 </r>
       <r>     2.1207     0.0000     8.0000 </r>
       <r>     2.1763     0.0094     8.0005 </r>
       <r>     2.2318     0.7846     8.0441 </r>
       <r>     2.2874     7.4791     8.4595 </r>
       <r>     2.3429    13.0034     9.1817 </r>
       <r>     2.3984    11.7604     9.8349 </r>
       <r>     2.4540    11.2342    10.4589 </r>
       <r>     2.5095    30.7528    12.1670 </r>
       <r>     2.5651    22.8639    13.4369 </r>
       <r>     2.6206     9.8116    13.9818 </r>
       <r>     2.6762     9.7894    14.5255 </r>
       <r>     2.7317    17.9069    15.5201 </r>
       <r>     2.7872     8.0136    15.9652 </r>
       <r>     2.8428     1.6403    16.0563 </r>
       <r>     2.8983    11.7750    16.7103 </r>
       <r>     2.9539    21.0465    17.8793 </r>
       <r>     3.0094    14.0837    18.6615 </r>
       <r>     3.0649     5.6921    18.9777 </r>
       <r>     3.1205     0.5366    19.0075 </r>
       <r>     3.1760     3.3988    19.1962 </r>
       <r>     3.2316    10.2033    19.7629 </r>
       <r>     3.2871     4.0682    19.9889 </r>
       <r>     3.3427     0.1989    19.9999 </r>
       <r>     3.3982     0.0010    20.0000 </r>
       <r>     3.4537     0.0000    20.0000 </r>
       <r>     3.5093     0.0000    20.0000 </r>
       <r>     3.5648     0.0000    20.0000 </r>
       <r>     3.6204     0.0000    20.0000 </r>
       <r>     3.6759     0.0000    20.0000 </r>
       <r>     3.7314     0.0151    20.0008 </r>
       <r>     3.7870     1.0316    20.0581 </r>
       <r>     3.8425     7.9581    20.5001 </r>
       <r>     3.8981     7.9665    20.9426 </r>
       <r>     3.9536     1.9346    21.0501 </r>
       <r>     4.0092     7.6678    21.4759 </r>
       <r>     4.0647     9.9474    22.0284 </r>
       <r>     4.1202    10.5189    22.6127 </r>
       <r>     4.1758    10.9534    23.2211 </r>
       <r>     4.2313    13.7636    23.9855 </r>
       <r>     4.2869    13.4080    24.7302 </r>
       <r>     4.3424     6.9492    25.1162 </r>
       <r>     4.3980    10.0094    25.6721 </r>
       <r>     4.4535     5.5099    25.9781 </r>
       <r>     4.5090     0.3904    25.9998 </r>
       <r>     4.5646     0.0030    26.0000 </r>
       <r>     4.6201     0.0000    26.0000 </r>
       <r>     4.6757     0.0000    26.0000 </r>
       <r>     4.7312     0.0000    26.0000 </r>
       <r>     4.7867     0.0000    26.0000 </r>
       <r>     4.8423     0.0000    26.0000 </r>
       <r>     4.8978     0.0017    26.0001 </r>
       <r>     4.9534     0.2745    26.0153 </r>
       <r>     5.0089     4.7203    26.2775 </r>
       <r>     5.0645    10.0667    26.8366 </r>
       <r>     5.1200     2.8449    26.9946 </r>
       <r>     5.1755     0.1311    27.0019 </r>
       <r>     5.2311     1.7178    27.0973 </r>
       <r>     5.2866    11.3977    27.7304 </r>
       <r>     5.3422    16.3460    28.6383 </r>
       <r>     5.3977     6.1135    28.9778 </r>
       <r>     5.4532     0.3963    28.9998 </r>
       <r>     5.5088     0.0081    29.0003 </r>
       <r>     5.5643     0.5397    29.0303 </r>
       <r>     5.6199     6.2928    29.3798 </r>
       <r>     5.6754     9.3134    29.8970 </r>
       <r>     5.7310     1.8581    30.0002 </r>
       <r>     5.7865     1.9574    30.1090 </r>
       <r>     5.8420     9.5046    30.6369 </r>
       <r>     5.8976     8.6247    31.1159 </r>
       <r>     5.9531    10.4109    31.6941 </r>
       <r>     6.0087     5.1685    31.9812 </r>
       <r>     6.0642     0.3361    31.9999 </r>
       <r>     6.1197     0.0024    32.0000 </r>
       <r>     6.1753     0.0000    32.0000 </r>
       <r>     6.2308     0.0000    32.0000 </r>
       <r>     6.2864     0.0000    32.0000 </r>
       <r>     6.3419     0.0000    32.0000 </r>
       <r>     6.3975     0.0264    32.0015 </r>
       <r>     6.4530     1.4203    32.0804 </r>
       <r>     6.5085     8.7586    32.5668 </r>
       <r>     6.5641     7.0610    32.9590 </r>
       <r>     6.6196     0.7297    32.9995 </r>
       <r>     6.6752     0.0084    33.0000 </r>
       <r>     6.7307     0.0000    33.0000 </r>
       <r>     6.7862     0.0000    33.0000 </r>
       <r>     6.8418     0.0000    33.0000 </r>
       <r>     6.8973     0.0020    33.0001 </r>
       <r>     6.9529     0.3032    33.0170 </r>
       <r>     7.0084     4.9369    33.2912 </r>
       <r>     7.0640    10.2432    33.8601 </r>
       <r>     7.1195     7.1771    34.2587 </r>
       <r>     7.1750    10.2128    34.8259 </r>
       <r>     7.2306     3.0249    34.9940 </r>
       <r>     7.2861     0.1085    35.0000 </r>
       <r>     7.3417     0.0005    35.0000 </r>
       <r>     7.3972     0.0512    35.0028 </r>
       <r>     7.4527     2.0427    35.1163 </r>
       <r>     7.5083     9.5553    35.6470 </r>
       <r>     7.5638     5.8927    35.9743 </r>
       <r>     7.6194     0.4587    35.9998 </r>
       <r>     7.6749     0.0039    36.0000 </r>
       <r>     7.7305     0.0000    36.0000 </r>
       <r>     7.7860     0.0000    36.0000 </r>
       <r>     7.8415     0.0000    36.0000 </r>
       <r>     7.8971     0.0000    36.0000 </r>
       <r>     7.9526     0.0000    36.0000 </r>
       <r>     8.0082     0.0000    36.0000 </r>
       <r>     8.0637     0.0000    36.0000 </r>
       <r>     8.1192     0.0000    36.0000 </r>
       <r>     8.1748     0.0000    36.0000 </r>
       <r>     8.2303     0.0000    36.0000 </r>
       <r>     8.2859     0.0000    36.0000 </r>
       <r>     8.3414     0.0000    36.0000 </r>
      </set>
      <set comment="spin 2">
       <r>    -8.3211     0.0000     0.0000 </r>
       <r>    -8.2656     0.0000     0.0000 </r>
       <r>    -8.2100     0.0000     0.0000 </r>
       <r>    -8.1545     0.0000     0.0000 </r>
       <r>    -8.0989     0.0000     0.0000 </r>
       <r>    -8.0434     0.0000     0.0000 </r>
       <r>    -7.9879     0.0000     0.0000 </r>
       <r>    -7.9323     0.0000     0.0000 </r>
       <r>    -7.8768     0.0000     0.0000 </r>
       <r>    -7.8212     0.0000     0.0000 </r>
       <r>    -7.7657     0.0000     0.0000 </r>
       <r>    -7.7101     0.0000     0.0000 </r>
       <r>    -7.6546     0.0000     0.0000 </r>
       <r>    -7.5991     0.0000     0.0000 </r>
       <r>    -7.5435     0.0000     0.0000 </r>
       <r>    -7.4880     0.0000     0.0000 </r>
       <r>    -7.4324     0.0000     0.0000 </r>
       <r>    -7.3769     0.0000     0.0000 </r>
       <r>    -7.3214     0.0000     0.0000 </r>
       <r>    -7.2658     0.0000     0.0000 </r>
       <r>    -7.2103     0.0000     0.0000 </r>
       <r>    -7.1547     0.0000     0.0000 </r>
       <r>    -7.0992     0.0000     0.0000 </r>
       <r>    -7.0436     0.0000     0.0000 </r>
       <r>    -6.9881     0.0000     0.0000 </r>
       <r>    -6.9326     0.0000     0.0000 </r>
       <r>    -6.8770     0.0000     0.0000 </r>
       <r>    -6.8215     0.0000     0.0000 </r>
       <r>    -6.7659     0.0000     0.0000 </r>
       <r>    -6.7104     0.0000     0.0000 </r>
       <r>    -6.6549     0.0000     0.0000 </r>
       <r>    -6.5993     0.0000     0.0000 </r>
       <r>    -6.5438     0.0000     0.0000 </r>
       <r>    -6.4882     0.0000     0.0000 </r>
       <r>    -6.4327     0.0000     0.0000 </r>
       <r>    -6.3771     0.0000     0.0000 </r>
       <r>    -6.3216     0.0000     0.0000 </r>
       <r>    -6.2661     0.0000     0.0000 </r>
       <r>    -6.2105     0.0000     0.0000 </r>
       <r>    -6.1550     0.0000     0.0000 </r>
       <r>    -6.0994     0.0000     0.0000 </r>
       <r>    -6.0439     0.0000     0.0000 </r>
       <r>    -5.9884     0.0000     0.0000 </r>
       <r>    -5.9328     0.0000     0.0000 </r>
       <r>    -5.8773     0.0000     0.0000 </r>
       <r>    -5.8217     0.0000     0.0000 </r>
       <r>    -5.7662     0.0000     0.0000 </r>
       <r>    -5.7106     0.0000     0.0000 </r>
       <r>    -5.6551     0.0000     0.0000 </r>
       <r>    -5.5996     0.0000     0.0000 </r>
       <r>    -5.5440     0.0000     0.0000 </r>
       <r>    -5.4885     0.0000     0.0000 </r>
       <r>    -5.4329     0.0000     0.0000 </r>
       <r>    -5.3774     0.0000     0.0000 </r>
       <r>    -5.3219     0.0000     0.0000 </r>
       <r>    -5.2663     0.0000     0.0000 </r>
       <r>    -5.2108     0.0000     0.0000 </r>
       <r>    -5.1552     0.0000     0.0000 </r>
       <r>    -5.0997     0.0000     0.0000 </r>
       <r>    -5.0441     0.0000     0.0000 </r>
       <r>    -4.9886     0.0000     0.0000 </r>
       <r>    -4.9331     0.0000     0.0000 </r>
       <r>    -4.8775     0.0000     0.0000 </r>
       <r>    -4.8220     0.0000     0.0000 </r>
       <r>    -4.7664     0.0000     0.0000 </r>
       <r>    -4.7109     0.0000     0.0000 </r>
       <r>    -4.6554     0.0000     0.0000 </r>
       <r>    -4.5998     0.0000     0.0000 </r>
       <r>    -4.5443     0.0000     0.0000 </r>
       <r>    -4.4887     0.0000     0.0000 </r>
       <r>    -4.4332     0.0000     0.0000 </r>
       <r>    -4.3776     0.0000     0.0000 </r>
       <r>    -4.3221     0.0000     0.0000 </r>
       <r>    -4.2666     0.0000     0.0000 </r>
       <r>    -4.2110     0.0000     0.0000 </r>
       <r>    -4.1555     0.0000     0.0000 </r>
       <r>    -4.0999     0.0000     0.0000 </r>
       <r>    -4.0444     0.0000     0.0000 </r>
       <r>    -3.9888     0.0000     0.0000 </r>
       <r>    -3.9333     0.0000     0.0000 </r>
       <r>    -3.8778     0.0000     0.0000 </r>
       <r>    -3.8222     0.0000     0.0000 </r>
       <r>    -3.7667     0.0000     0.0000 </r>
       <r>    -3.7111     0.0000     0.0000 </r>
       <r>    -3.6556     0.0000     0.0000 </r>
       <r>    -3.6001     0.0000     0.0000 </r>
       <r>    -3.5445     0.0000     0.0000 </r>
       <r>    -3.4890     0.0000     0.0000 </r>
       <r>    -3.4334     0.0000     0.0000 </r>
       <r>    -3.3779     0.0000     0.0000 </r>
       <r>    -3.3223     0.0000     0.0000 </r>
       <r>    -3.2668     0.0000     0.0000 </r>
       <r>    -3.2113     0.0000     0.0000 </r>
       <r>    -3.1557     0.0000     0.0000 </r>
       <r>    -3.1002     0.0000     0.0000 </r>
       <r>    -3.0446     0.0000     0.0000 </r>
       <r>    -2.9891     0.0000     0.0000 </r>
       <r>    -2.9336     0.0000     0.0000 </r>
       <r>    -2.8780     0.0000     0.0000 </r>
       <r>    -2.8225     0.0000     0.0000 </r>
       <r>    -2.7669     0.0000     0.0000 </r>
       <r>    -2.7114     0.0000     0.0000 </r>
       <r>    -2.6558     0.0000     0.0000 </r>
       <r>    -2.6003     0.0000     0.0000 </r>
       <r>    -2.5448     0.0000     0.0000 </r>
       <r>    -2.4892     0.0000     0.0000 </r>
       <r>    -2.4337     0.0000     0.0000 </r>
       <r>    -2.3781     0.0000     0.0000 </r>
       <r>    -2.3226     0.0000     0.0000 </r>
       <r>    -2.2671     0.0000     0.0000 </r>
       <r>    -2.2115     0.0000     0.0000 </r>
       <r>    -2.1560     0.0000     0.0000 </r>
       <r>    -2.1004     0.0000     0.0000 </r>
       <r>    -2.0449     0.0000     0.0000 </r>
       <r>    -1.9893     0.0000     0.0000 </r>
       <r>    -1.9338     0.0000     0.0000 </r>
       <r>    -1.8783     0.0000     0.0000 </r>
       <r>    -1.8227     0.0000     0.0000 </r>
       <r>    -1.7672     0.0000     0.0000 </r>
       <r>    -1.7116     0.0000     0.0000 </r>
       <r>    -1.6561     0.0000     0.0000 </r>
       <r>    -1.6006     0.0000     0.0000 </r>
       <r>    -1.5450     0.0000     0.0000 </r>
       <r>    -1.4895     0.0000     0.0000 </r>
       <r>    -1.4339     0.0000     0.0000 </r>
       <r>    -1.3784     0.0000     0.0000 </r>
       <r>    -1.3228     0.0000     0.0000 </r>
       <r>    -1.2673     0.0000     0.0000 </r>
       <r>    -1.2118     0.0000     0.0000 </r>
       <r>    -1.1562     0.0000     0.0000 </r>
       <r>    -1.1007     0.0000     0.0000 </r>
       <r>    -1.0451     0.0000     0.0000 </r>
       <r>    -0.9896     0.0000     0.0000 </r>
       <r>    -0.9341     0.0000     0.0000 </r>
       <r>    -0.8785     0.0000     0.0000 </r>
       <r>    -0.8230     0.0000     0.0000 </r>
       <r>    -0.7674     0.0000     0.0000 </r>
       <r>    -0.7119     0.0000     0.0000 </r>
       <r>    -0.6563     0.0000     0.0000 </r>
       <r>    -0.6008     0.0000     0.0000 </r>
       <r>    -0.5453     0.0000     0.0000 </r>
       <r>    -0.4897     0.0000     0.0000 </r>
       <r>    -0.4342     0.0000     0.0000 </r>
       <r>    -0.3786     0.0000     0.0000 </r>
       <r>    -0.3231     0.0000     0.0000 </r>
       <r>    -0.2676     0.0000     0.0000 </r>
       <r>    -0.2120     0.0000     0.0000 </r>
       <r>    -0.1565     0.0000     0.0000 </r>
       <r>    -0.1009     0.0000     0.0000 </r>
       <r>    -0.0454     0.0023     0.0001 </r>
       <r>     0.0102     0.3332     0.0186 </r>
       <r>     0.0657     5.1447     0.3044 </r>
       <r>     0.1212     9.9177     0.8552 </r>
       <r>     0.1768     2.5297     0.9957 </r>
       <r>     0.2323     0.0766     1.0000 </r>
       <r>     0.2879     0.0002     1.0000 </r>
       <r>     0.3434     0.0000     1.0000 </r>
       <r>     0.3989     0.0000     1.0000 </r>
       <r>     0.4545     0.0000     1.0000 </r>
       <r>     0.5100     0.0000     1.0000 </r>
       <r>     0.5656     0.0000     1.0000 </r>
       <r>     0.6211     0.0000     1.0000 </r>
       <r>     0.6767     0.0000     1.0000 </r>
       <r>     0.7322     0.0000     1.0000 </r>
       <r>     0.7877     0.0000     1.0000 </r>
       <r>     0.8433     0.0000     1.0000 </r>
       <r>     0.8988     0.0000     1.0000 </r>
       <r>     0.9544     0.0000     1.0000 </r>
       <r>     1.0099     0.0000     1.0000 </r>
       <r>     1.0654     0.0000     1.0000 </r>
       <r>     1.1210     0.0000     1.0000 </r>
       <r>     1.1765     0.0000     1.0000 </r>
       <r>     1.2321     0.0000     1.0000 </r>
       <r>     1.2876     0.0000     1.0000 </r>
       <r>     1.3432     0.0000     1.0000 </r>
       <r>     1.3987     0.0016     1.0001 </r>
       <r>     1.4542     0.3626     1.0202 </r>
       <r>     1.5098    10.0741     1.5798 </r>
       <r>     1.5653    43.0848     3.9728 </r>
       <r>     1.6209    32.4841     5.7770 </r>
       <r>     1.6764     3.9804     5.9981 </r>
       <r>     1.7319     1.4978     6.0813 </r>
       <r>     1.7875     8.7851     6.5692 </r>
       <r>     1.8430     7.0278     6.9595 </r>
       <r>     1.8986     0.7204     6.9995 </r>
       <r>     1.9541     0.0082     7.0000 </r>
       <r>     2.0097     0.0000     7.0000 </r>
       <r>     2.0652     0.0000     7.0000 </r>
       <r>     2.1207     0.0000     7.0000 </r>
       <r>     2.1763     0.0000     7.0000 </r>
       <r>     2.2318     0.0000     7.0000 </r>
       <r>     2.2874     0.0000     7.0000 </r>
       <r>     2.3429     0.0000     7.0000 </r>
       <r>     2.3984     0.0000     7.0000 </r>
       <r>     2.4540     0.0000     7.0000 </r>
       <r>     2.5095     0.0000     7.0000 </r>
       <r>     2.5651     0.0000     7.0000 </r>
       <r>     2.6206     0.0000     7.0000 </r>
       <r>     2.6762     0.0000     7.0000 </r>
       <r>     2.7317     0.0000     7.0000 </r>
       <r>     2.7872     0.0000     7.0000 </r>
       <r>     2.8428     0.0000     7.0000 </r>
       <r>     2.8983     0.0012     7.0001 </r>
       <r>     2.9539     0.3870     7.0216 </r>
       <r>     3.0094    13.0801     7.7481 </r>
       <r>     3.0649    56.1814    10.8685 </r>
       <r>     3.1205    45.3004    13.3845 </r>
       <r>     3.1760    35.0820    15.3330 </r>
       <r>     3.2316    26.3805    16.7983 </r>
       <r>     3.2871    14.1611    17.5848 </r>
       <r>     3.3427     9.2907    18.1008 </r>
       <r>     3.3982    10.4691    18.6823 </r>
       <r>     3.4537     5.3534    18.9796 </r>
       <r>     3.5093     0.3641    18.9999 </r>
       <r>     3.5648     0.0027    19.0000 </r>
       <r>     3.6204     0.0000    19.0000 </r>
       <r>     3.6759     0.0000    19.0000 </r>
       <r>     3.7314     0.0000    19.0000 </r>
       <r>     3.7870     0.0000    19.0000 </r>
       <r>     3.8425     0.0000    19.0000 </r>
       <r>     3.8981     0.0000    19.0000 </r>
       <r>     3.9536     0.0000    19.0000 </r>
       <r>     4.0092     0.0000    19.0000 </r>
       <r>     4.0647     0.0000    19.0000 </r>
       <r>     4.1202     0.0000    19.0000 </r>
       <r>     4.1758     0.0000    19.0000 </r>
       <r>     4.2313     0.0000    19.0000 </r>
       <r>     4.2869     0.0000    19.0000 </r>
       <r>     4.3424     0.0000    19.0000 </r>
       <r>     4.3980     0.0115    19.0006 </r>
       <r>     4.4535     1.1295    19.0634 </r>
       <r>     4.5090    14.6304    19.8760 </r>
       <r>     4.5646    31.1811    21.6078 </r>
       <r>     4.6201    22.7857    22.8734 </r>
       <r>     4.6757    18.6465    23.9090 </r>
       <r>     4.7312    13.5416    24.6612 </r>
       <r>     4.7867     5.7837    24.9824 </r>
       <r>     4.8423     3.0776    25.1533 </r>
       <r>     4.8978     9.9982    25.7086 </r>
       <r>     4.9534     4.9399    25.9830 </r>
       <r>     5.0089     0.3038    25.9999 </r>
       <r>     5.0645     0.0020    26.0000 </r>
       <r>     5.1200     0.0000    26.0000 </r>
       <r>     5.1755     0.0003    26.0000 </r>
       <r>     5.2311     0.0916    26.0051 </r>
       <r>     5.2866     2.7743    26.1592 </r>
       <r>     5.3422    10.0383    26.7167 </r>
       <r>     5.3977     4.8117    26.9840 </r>
       <r>     5.4532     0.2864    26.9999 </r>
       <r>     5.5088     0.0018    27.0000 </r>
       <r>     5.5643     0.0000    27.0000 </r>
       <r>     5.6199     0.0071    27.0004 </r>
       <r>     5.6754     0.6616    27.0371 </r>
       <r>     5.7310     6.8089    27.4153 </r>
       <r>     5.7865     8.9548    27.9127 </r>
       <r>     5.8420     1.7510    28.0099 </r>
       <r>     5.8976     4.1902    28.2427 </r>
       <r>     5.9531    10.1916    28.8087 </r>
       <r>     6.0087     3.3230    28.9933 </r>
       <r>     6.0642     0.9414    29.0456 </r>
       <r>     6.1197     7.3360    29.4530 </r>
       <r>     6.1753     8.5313    29.9269 </r>
       <r>     6.2308     1.2940    29.9988 </r>
       <r>     6.2864     0.0224    30.0000 </r>
       <r>     6.3419     0.0000    30.0000 </r>
       <r>     6.3975     0.0000    30.0000 </r>
       <r>     6.4530     0.0000    30.0000 </r>
       <r>     6.5085     0.0000    30.0000 </r>
       <r>     6.5641     0.0000    30.0000 </r>
       <r>     6.6196     0.0000    30.0000 </r>
       <r>     6.6752     0.0000    30.0000 </r>
       <r>     6.7307     0.0000    30.0000 </r>
       <r>     6.7862     0.0003    30.0000 </r>
       <r>     6.8418     0.0907    30.0051 </r>
       <r>     6.8973     2.7613    30.1584 </r>
       <r>     6.9529    10.0328    30.7157 </r>
       <r>     7.0084     4.8289    30.9839 </r>
       <r>     7.0640     0.3404    31.0028 </r>
       <r>     7.1195     2.0556    31.1169 </r>
       <r>     7.1750     9.5656    31.6482 </r>
       <r>     7.2306     5.8742    31.9745 </r>
       <r>     7.2861     0.4552    31.9998 </r>
       <r>     7.3417     0.0039    32.0000 </r>
       <r>     7.3972     0.0155    32.0009 </r>
       <r>     7.4527     1.1698    32.0658 </r>
       <r>     7.5083    12.5300    32.7618 </r>
       <r>     7.5638    30.8863    34.4772 </r>
       <r>     7.6194    23.2640    35.7694 </r>
       <r>     7.6749     4.0443    35.9940 </r>
       <r>     7.7305     0.1078    36.0000 </r>
       <r>     7.7860     0.0003    36.0000 </r>
       <r>     7.8415     0.0000    36.0000 </r>
       <r>     7.8971     0.0000    36.0000 </r>
       <r>     7.9526     0.0000    36.0000 </r>
       <r>     8.0082     0.0000    36.0000 </r>
       <r>     8.0637     0.0000    36.0000 </r>
       <r>     8.1192     0.0000    36.0000 </r>
       <r>     8.1748     0.0000    36.0000 </r>
       <r>     8.2303     0.0000    36.0000 </r>
       <r>     8.2859     0.0000    36.0000 </r>
       <r>     8.3414     0.0000    36.0000 </r>
      </set>
     </set>
    </array>
   </total>
   <partial>
    <array>
     <dimension dim="1">gridpoints</dimension>
     <dimension dim="2">spin</dimension>
     <dimension dim="3">ion</dimension>
     <field>energy</field>
     <field>    s</field>
     <field>   py</field>
     <field>   pz</field>
     <field>   px</field>
     <field>  dxy</field>
     <field>  dyz</field>
     <field>  dz2</field>
     <field>  dxz</field>
     <field>x2-y2</field>
     <set>
      <set comment="ion 1">
       <set comment="spin 1">
        <r>    -8.3211     0.0000     0.0000     0.0000     0.0000     0.0000     0.0000     0.0000     0.0000     0.0000 </r>
        <r>    -8.2656     0.0000     0.0000     0.0000     0.0000     0.0000     0.0000     0.0000     0.0000     0.0000 </r>
        <r>    -8.2100     0.0000     0.0000     0.0000     0.0000     0.0000     0.0000     0.0000     0.0000     0.0000 </r>
        <r>    -8.1545     0.0000     0.0000     0.0000     0.0000     0.0000     0.0000     0.0000     0.0000     0.0000 </r>
        <r>    -8.0989     0.0000     0.0000     0.0000     0.0000     0.0000     0.0000     0.0000     0.0000     0.0000 </r>
        <r>    -8.0434     0.0000     0.0000     0.0000     0.0000     0.0000     0.0000     0.0000     0.0000     0.0000 </r>
        <r>    -7.9879     0.0000     0.0000     0.0000     0.0000     0.0000     0.0000     0.0000     0.0000     0.0000 </r>
        <r>    -7.9323     0.0000     0.0000     0.0000     0.0000     0.0000     0.0000     0.0000     0.0000     0.0000 </r>
        <r>    -7.8768     0.0000     0.0000     0.0000     0.0000     0.0000     0.0000     0.0000     0.0000     0.0000 </r>
        <r>    -7.8212     0.0000     0.0000     0.0000     0.0000     0.0000     0.0000     0.0000     0.0000     0.0000 </r>
        <r>    -7.7657     0.0000     0.0000     0.0000     0.0000     0.0000     0.0000     0.0000     0.0000     0.0000 </r>
        <r>    -7.7101     0.0001     0.0000     0.0000     0.0000     0.0000     0.0000     0.0000     0.0000     0.0000 </r>
        <r>    -7.6546     0.0346     0.0000     0.0000     0.0000     0.0000     0.0000     0.0000     0.0000     0.0000 </r>
        <r>    -7.5991     1.0508     0.0000     0.0000     0.0000     0.0000     0.0000     0.0000     0.0000     0.0000 </r>
        <r>    -7.5435     3.8117     0.0000     0.0000     0.0000     0.0000     0.0000     0.0000     0.0000     0.0000 </r>
        <r>    -7.4880     1.8316     0.0000     0.0000     0.0000     0.0000     0.0000     0.0000     0.0000     0.0000 </r>
        <r>    -7.4324     0.1093     0.0000     0.0000     0.0000     0.0000     0.0000     0.0000     0.0000     0.0000 </r>
        <r>    -7.3769     0.0007     0.0000     0.0000     0.0000     0.0000     0.0000     0.0000     0.0000     0.0000 </r>
        <r>    -7.3214     0.0000     0.0000     0.0000     0.0000     0.0000     0.0000     0.0000     0.0000     0.0000 </r>
        <r>    -7.2658     0.0000     0.0000     0.0000     0.0000     0.0000     0.0000     0.0000     0.0000     0.0000 </r>
        <r>    -7.2103     0.0000     0.0000     0.0000     0.0000     0.0000     0.0000     0.0000     0.0000     0.0000 </r>
        <r>    -7.1547     0.0000     0.0000     0.0000     0.0000     0.0000     0.0000     0.0000     0.0000     0.0000 </r>
        <r>    -7.0992     0.0000     0.0000     0.0000     0.0000     0.0000     0.0000     0.0000     0.0000     0.0000 </r>
        <r>    -7.0436     0.0000     0.0000     0.0000     0.0000     0.0000     0.0000     0.0000     0.0000     0.0000 </r>
        <r>    -6.9881     0.0000     0.0000     0.0000     0.0000     0.0000     0.0000     0.0000     0.0000     0.0000 </r>
        <r>    -6.9326     0.0000     0.0000     0.0000     0.0000     0.0000     0.0000     0.0000     0.0000     0.0000 </r>
        <r>    -6.8770     0.0000     0.0000     0.0000     0.0000     0.0000     0.0000     0.0000     0.0000     0.0000 </r>
        <r>    -6.8215     0.0000     0.0000     0.0000     0.0000     0.0000     0.0000     0.0000     0.0000     0.0000 </r>
        <r>    -6.7659     0.0000     0.0000     0.0000     0.0000     0.0000     0.0000     0.0000     0.0000     0.0000 </r>
        <r>    -6.7104     0.0000     0.0000     0.0000     0.0000     0.0000     0.0000     0.0000     0.0000     0.0000 </r>
        <r>    -6.6549     0.0000     0.0000     0.0000     0.0000     0.0000     0.0000     0.0000     0.0000     0.0000 </r>
        <r>    -6.5993     0.0000     0.0000     0.0000     0.0000     0.0000     0.0000     0.0000     0.0000     0.0000 </r>
        <r>    -6.5438     0.0000     0.0000     0.0000     0.0000     0.0000     0.0000     0.0000     0.0000     0.0000 </r>
        <r>    -6.4882     0.0000     0.0000     0.0000     0.0000     0.0000     0.0000     0.0000     0.0000     0.0000 </r>
        <r>    -6.4327     0.0000     0.0000     0.0000     0.0000     0.0000     0.0000     0.0000     0.0000     0.0000 </r>
        <r>    -6.3771     0.0000     0.0000     0.0000     0.0000     0.0000     0.0000     0.0000     0.0000     0.0000 </r>
        <r>    -6.3216     0.0000     0.0000     0.0000     0.0000     0.0000     0.0000     0.0000     0.0000     0.0000 </r>
        <r>    -6.2661     0.0000     0.0000     0.0000     0.0000     0.0000     0.0000     0.0000     0.0000     0.0000 </r>
        <r>    -6.2105     0.0000     0.0000     0.0000     0.0000     0.0000     0.0000     0.0000     0.0000     0.0000 </r>
        <r>    -6.1550     0.0000     0.0000     0.0000     0.0000     0.0000     0.0000     0.0000     0.0000     0.0000 </r>
        <r>    -6.0994     0.0000     0.0000     0.0000     0.0000     0.0000     0.0000     0.0000     0.0000     0.0000 </r>
        <r>    -6.0439     0.0000     0.0000     0.0000     0.0000     0.0000     0.0000     0.0000     0.0000     0.0000 </r>
        <r>    -5.9884     0.0000     0.0000     0.0000     0.0000     0.0000     0.0000     0.0000     0.0000     0.0000 </r>
        <r>    -5.9328     0.0000     0.0000     0.0000     0.0000     0.0000     0.0000     0.0000     0.0000     0.0000 </r>
        <r>    -5.8773     0.0000     0.0000     0.0000     0.0000     0.0000     0.0000     0.0000     0.0000     0.0000 </r>
        <r>    -5.8217     0.0000     0.0000     0.0000     0.0000     0.0000     0.0000     0.0000     0.0000     0.0000 </r>
        <r>    -5.7662     0.0000     0.0000     0.0000     0.0000     0.0000     0.0000     0.0000     0.0000     0.0000 </r>
        <r>    -5.7106     0.0000     0.0000     0.0000     0.0000     0.0000     0.0000     0.0000     0.0000     0.0000 </r>
        <r>    -5.6551     0.0000     0.0000     0.0000     0.0000     0.0000     0.0000     0.0000     0.0000     0.0000 </r>
        <r>    -5.5996     0.0000     0.0000     0.0000     0.0000     0.0000     0.0000     0.0000     0.0000     0.0000 </r>
        <r>    -5.5440     0.0000     0.0000     0.0000     0.0000     0.0000     0.0000     0.0000     0.0000     0.0000 </r>
        <r>    -5.4885     0.0000     0.0000     0.0000     0.0000     0.0000     0.0000     0.0000     0.0000     0.0000 </r>
        <r>    -5.4329     0.0000     0.0000     0.0000     0.0000     0.0000     0.0000     0.0000     0.0000     0.0000 </r>
        <r>    -5.3774     0.0000     0.0000     0.0000     0.0000     0.0000     0.0000     0.0000     0.0000     0.0000 </r>
        <r>    -5.3219     0.0000     0.0000     0.0000     0.0000     0.0000     0.0000     0.0000     0.0000     0.0000 </r>
        <r>    -5.2663     0.0000     0.0000     0.0000     0.0000     0.0000     0.0000     0.0000     0.0000     0.0000 </r>
        <r>    -5.2108     0.0000     0.0000     0.0000     0.0000     0.0000     0.0000     0.0000     0.0000     0.0000 </r>
        <r>    -5.1552     0.0000     0.0000     0.0000     0.0000     0.0000     0.0000     0.0000     0.0000     0.0000 </r>
        <r>    -5.0997     0.0000     0.0000     0.0000     0.0000     0.0000     0.0000     0.0000     0.0000     0.0000 </r>
        <r>    -5.0441     0.0000     0.0000     0.0000     0.0000     0.0000     0.0000     0.0000     0.0000     0.0000 </r>
        <r>    -4.9886     0.0000     0.0000     0.0000     0.0000     0.0000     0.0000     0.0000     0.0000     0.0000 </r>
        <r>    -4.9331     0.0000     0.0000     0.0000     0.0000     0.0000     0.0000     0.0000     0.0000     0.0000 </r>
        <r>    -4.8775     0.0000     0.0000     0.0000     0.0000     0.0000     0.0000     0.0000     0.0000     0.0000 </r>
        <r>    -4.8220     0.0000     0.0000     0.0000     0.0000     0.0000     0.0000     0.0000     0.0000     0.0000 </r>
        <r>    -4.7664     0.0000     0.0000     0.0000     0.0000     0.0000     0.0000     0.0000     0.0000     0.0000 </r>
        <r>    -4.7109     0.0000     0.0000     0.0000     0.0000     0.0000     0.0000     0.0000     0.0000     0.0000 </r>
        <r>    -4.6554     0.0000     0.0000     0.0000     0.0000     0.0000     0.0000     0.0000     0.0000     0.0000 </r>
        <r>    -4.5998     0.0000     0.0000     0.0000     0.0000     0.0000     0.0000     0.0000     0.0000     0.0000 </r>
        <r>    -4.5443     0.0000     0.0000     0.0000     0.0000     0.0000     0.0000     0.0000     0.0000     0.0000 </r>
        <r>    -4.4887     0.0000     0.0000     0.0000     0.0000     0.0000     0.0000     0.0000     0.0000     0.0000 </r>
        <r>    -4.4332     0.0000     0.0000     0.0000     0.0000     0.0000     0.0000     0.0000     0.0000     0.0000 </r>
        <r>    -4.3776     0.0000     0.0000     0.0000     0.0000     0.0000     0.0000     0.0000     0.0000     0.0000 </r>
        <r>    -4.3221     0.0000     0.0000     0.0000     0.0000     0.0000     0.0000     0.0000     0.0000     0.0000 </r>
        <r>    -4.2666     0.0000     0.0000     0.0000     0.0000     0.0000     0.0000     0.0000     0.0000     0.0000 </r>
        <r>    -4.2110     0.0000     0.0000     0.0000     0.0000     0.0000     0.0000     0.0000     0.0000     0.0000 </r>
        <r>    -4.1555     0.0000     0.0000     0.0000     0.0000     0.0000     0.0000     0.0000     0.0000     0.0000 </r>
        <r>    -4.0999     0.0000     0.0000     0.0000     0.0000     0.0000     0.0000     0.0000     0.0000     0.0000 </r>
        <r>    -4.0444     0.0000     0.0000     0.0000     0.0000     0.0000     0.0000     0.0000     0.0000     0.0000 </r>
        <r>    -3.9888     0.0000     0.0000     0.0000     0.0000     0.0000     0.0000     0.0000     0.0000     0.0000 </r>
        <r>    -3.9333     0.0000     0.0000     0.0000     0.0000     0.0000     0.0000     0.0000     0.0000     0.0000 </r>
        <r>    -3.8778     0.0000     0.0000     0.0000     0.0000     0.0000     0.0000     0.0000     0.0000     0.0000 </r>
        <r>    -3.8222     0.0000     0.0000     0.0000     0.0000     0.0000     0.0000     0.0000     0.0000     0.0000 </r>
        <r>    -3.7667     0.0000     0.0000     0.0000     0.0000     0.0000     0.0000     0.0000     0.0000     0.0000 </r>
        <r>    -3.7111     0.0000     0.0000     0.0000     0.0000     0.0000     0.0000     0.0000     0.0000     0.0000 </r>
        <r>    -3.6556     0.0000     0.0000     0.0000     0.0000     0.0000     0.0000     0.0000     0.0000     0.0000 </r>
        <r>    -3.6001     0.0000     0.0000     0.0000     0.0000     0.0000     0.0000     0.0000     0.0000     0.0000 </r>
        <r>    -3.5445     0.0000     0.0000     0.0000     0.0000     0.0000     0.0000     0.0000     0.0000     0.0000 </r>
        <r>    -3.4890     0.0000     0.0000     0.0000     0.0000     0.0000     0.0000     0.0000     0.0000     0.0000 </r>
        <r>    -3.4334     0.0000     0.0000     0.0000     0.0000     0.0000     0.0000     0.0000     0.0000     0.0000 </r>
        <r>    -3.3779     0.0000     0.0000     0.0000     0.0000     0.0000     0.0000     0.0000     0.0000     0.0000 </r>
        <r>    -3.3223     0.0000     0.0000     0.0000     0.0000     0.0000     0.0000     0.0000     0.0000     0.0000 </r>
        <r>    -3.2668     0.0000     0.0000     0.0000     0.0000     0.0000     0.0000     0.0000     0.0000     0.0000 </r>
        <r>    -3.2113     0.0000     0.0000     0.0000     0.0000     0.0000     0.0000     0.0000     0.0000     0.0000 </r>
        <r>    -3.1557     0.0000     0.0000     0.0000     0.0000     0.0000     0.0000     0.0000     0.0000     0.0000 </r>
        <r>    -3.1002     0.0000     0.0000     0.0000     0.0000     0.0000     0.0000     0.0000     0.0000     0.0000 </r>
        <r>    -3.0446     0.0000     0.0000     0.0000     0.0000     0.0000     0.0000     0.0000     0.0000     0.0000 </r>
        <r>    -2.9891     0.0000     0.0000     0.0000     0.0000     0.0000     0.0000     0.0000     0.0000     0.0000 </r>
        <r>    -2.9336     0.0000     0.0000     0.0000     0.0000     0.0000     0.0000     0.0000     0.0000     0.0000 </r>
        <r>    -2.8780     0.0000     0.0000     0.0000     0.0000     0.0000     0.0000     0.0000     0.0000     0.0000 </r>
        <r>    -2.8225     0.0000     0.0000     0.0000     0.0000     0.0000     0.0000     0.0000     0.0000     0.0000 </r>
        <r>    -2.7669     0.0000     0.0000     0.0000     0.0000     0.0000     0.0000     0.0000     0.0000     0.0000 </r>
        <r>    -2.7114     0.0000     0.0000     0.0000     0.0000     0.0000     0.0000     0.0000     0.0000     0.0000 </r>
        <r>    -2.6558     0.0000     0.0000     0.0000     0.0000     0.0000     0.0000     0.0000     0.0000     0.0000 </r>
        <r>    -2.6003     0.0000     0.0000     0.0000     0.0000     0.0000     0.0000     0.0000     0.0000     0.0000 </r>
        <r>    -2.5448     0.0000     0.0000     0.0000     0.0000     0.0000     0.0000     0.0000     0.0000     0.0000 </r>
        <r>    -2.4892     0.0000     0.0000     0.0000     0.0000     0.0000     0.0000     0.0000     0.0000     0.0000 </r>
        <r>    -2.4337     0.0000     0.0000     0.0000     0.0000     0.0000     0.0000     0.0000     0.0000     0.0000 </r>
        <r>    -2.3781     0.0000     0.0000     0.0000     0.0000     0.0000     0.0000     0.0000     0.0000     0.0000 </r>
        <r>    -2.3226     0.0000     0.0000     0.0000     0.0000     0.0000     0.0000     0.0000     0.0000     0.0000 </r>
        <r>    -2.2671     0.0000     0.0000     0.0000     0.0000     0.0000     0.0000     0.0000     0.0000     0.0000 </r>
        <r>    -2.2115     0.0000     0.0000     0.0000     0.0000     0.0000     0.0000     0.0000     0.0000     0.0000 </r>
        <r>    -2.1560     0.0000     0.0000     0.0000     0.0000     0.0000     0.0000     0.0000     0.0000     0.0000 </r>
        <r>    -2.1004     0.0000     0.0000     0.0000     0.0000     0.0000     0.0000     0.0000     0.0000     0.0000 </r>
        <r>    -2.0449     0.0000     0.0000     0.0000     0.0000     0.0000     0.0000     0.0000     0.0000     0.0000 </r>
        <r>    -1.9893     0.0000     0.0000     0.0000     0.0000     0.0000     0.0000     0.0000     0.0000     0.0000 </r>
        <r>    -1.9338     0.0000     0.0000     0.0000     0.0000     0.0000     0.0000     0.0000     0.0000     0.0000 </r>
        <r>    -1.8783     0.0000     0.0000     0.0000     0.0000     0.0000     0.0000     0.0000     0.0000     0.0000 </r>
        <r>    -1.8227     0.0000     0.0000     0.0000     0.0000     0.0000     0.0000     0.0000     0.0000     0.0000 </r>
        <r>    -1.7672     0.0000     0.0000     0.0000     0.0000     0.0000     0.0000     0.0000     0.0000     0.0000 </r>
        <r>    -1.7116     0.0000     0.0000     0.0000     0.0000     0.0000     0.0000     0.0000     0.0000     0.0000 </r>
        <r>    -1.6561     0.0000     0.0000     0.0000     0.0000     0.0000     0.0000     0.0000     0.0000     0.0000 </r>
        <r>    -1.6006     0.0000     0.0000     0.0000     0.0000     0.0000     0.0000     0.0000     0.0000     0.0000 </r>
        <r>    -1.5450     0.0000     0.0000     0.0000     0.0000     0.0000     0.0000     0.0000     0.0000     0.0000 </r>
        <r>    -1.4895     0.0000     0.0000     0.0000     0.0000     0.0000     0.0000     0.0000     0.0000     0.0000 </r>
        <r>    -1.4339     0.0000     0.0000     0.0000     0.0000     0.0000     0.0000     0.0000     0.0000     0.0000 </r>
        <r>    -1.3784     0.0000     0.0000     0.0000     0.0000     0.0000     0.0000     0.0000     0.0000     0.0000 </r>
        <r>    -1.3228     0.0000     0.0000     0.0000     0.0000     0.0000     0.0000     0.0000     0.0000     0.0000 </r>
        <r>    -1.2673     0.0000     0.0000     0.0000     0.0000     0.0000     0.0000     0.0000     0.0000     0.0000 </r>
        <r>    -1.2118     0.0000     0.0000     0.0000     0.0000     0.0000     0.0000     0.0000     0.0000     0.0000 </r>
        <r>    -1.1562     0.0000     0.0000     0.0000     0.0000     0.0000     0.0000     0.0000     0.0000     0.0000 </r>
        <r>    -1.1007     0.0000     0.0000     0.0000     0.0000     0.0000     0.0000     0.0000     0.0000     0.0000 </r>
        <r>    -1.0451     0.0000     0.0000     0.0000     0.0000     0.0000     0.0000     0.0000     0.0000     0.0000 </r>
        <r>    -0.9896     0.0000     0.0000     0.0000     0.0000     0.0000     0.0000     0.0000     0.0000     0.0000 </r>
        <r>    -0.9341     0.0000     0.0000     0.0000     0.0000     0.0000     0.0000     0.0000     0.0000     0.0000 </r>
        <r>    -0.8785     0.0000     0.0000     0.0000     0.0000     0.0000     0.0000     0.0000     0.0000     0.0000 </r>
        <r>    -0.8230     0.0000     0.0000     0.0000     0.0000     0.0000     0.0000     0.0000     0.0000     0.0000 </r>
        <r>    -0.7674     0.0000     0.0000     0.0000     0.0000     0.0000     0.0000     0.0000     0.0000     0.0000 </r>
        <r>    -0.7119     0.0000     0.0000     0.0000     0.0000     0.0000     0.0000     0.0000     0.0000     0.0000 </r>
        <r>    -0.6563     0.0000     0.0000     0.0000     0.0000     0.0000     0.0000     0.0000     0.0000     0.0000 </r>
        <r>    -0.6008     0.0000     0.0000     0.0000     0.0000     0.0000     0.0000     0.0000     0.0000     0.0000 </r>
        <r>    -0.5453     0.0000     0.0000     0.0000     0.0000     0.0000     0.0000     0.0000     0.0000     0.0000 </r>
        <r>    -0.4897     0.0000     0.0000     0.0000     0.0000     0.0000     0.0000     0.0000     0.0000     0.0000 </r>
        <r>    -0.4342     0.0000     0.0000     0.0000     0.0000     0.0000     0.0000     0.0000     0.0000     0.0000 </r>
        <r>    -0.3786     0.0001     0.0000     0.0000     0.0000     0.0000     0.0000     0.0000     0.0000     0.0000 </r>
        <r>    -0.3231     0.0064     0.0000     0.0000     0.0000     0.0000     0.0000     0.0000     0.0000     0.0000 </r>
        <r>    -0.2676     0.0771     0.0000     0.0000     0.0000     0.0000     0.0000     0.0000     0.0000     0.0000 </r>
        <r>    -0.2120     0.1180     0.0000     0.0000     0.0000     0.0000     0.0000     0.0000     0.0000     0.0000 </r>
        <r>    -0.1565     0.0238     0.0000     0.0000     0.0000     0.0000     0.0000     0.0000     0.0000     0.0000 </r>
        <r>    -0.1009     0.0006     0.0000     0.0000     0.0000     0.0000     0.0000     0.0000     0.0000     0.0000 </r>
        <r>    -0.0454     0.0000     0.0000     0.0000     0.0000     0.0000     0.0000     0.0000     0.0000     0.0000 </r>
        <r>     0.0102     0.0000     0.0000     0.0000     0.0000     0.0000     0.0000     0.0000     0.0000     0.0000 </r>
        <r>     0.0657     0.0000     0.0000     0.0000     0.0000     0.0000     0.0000     0.0000     0.0000     0.0000 </r>
        <r>     0.1212     0.0000     0.0000     0.0000     0.0000     0.0000     0.0000     0.0000     0.0000     0.0000 </r>
        <r>     0.1768     0.0000     0.0000     0.0000     0.0000     0.0000     0.0000     0.0000     0.0000     0.0000 </r>
        <r>     0.2323     0.0000     0.0000     0.0000     0.0000     0.0000     0.0000     0.0000     0.0000     0.0000 </r>
        <r>     0.2879     0.0000     0.0000     0.0000     0.0000     0.0000     0.0000     0.0000     0.0000     0.0000 </r>
        <r>     0.3434     0.0000     0.0000     0.0000     0.0000     0.0000     0.0000     0.0000     0.0000     0.0000 </r>
        <r>     0.3989     0.0000     0.0000     0.0000     0.0000     0.0000     0.0000     0.0000     0.0000     0.0000 </r>
        <r>     0.4545     0.0000     0.0000     0.0000     0.0000     0.0000     0.0000     0.0000     0.0000     0.0000 </r>
        <r>     0.5100     0.0000     0.0000     0.0000     0.0000     0.0000     0.0000     0.0000     0.0000     0.0000 </r>
        <r>     0.5656     0.0000     0.0000     0.0000     0.0000     0.0000     0.0000     0.0000     0.0000     0.0000 </r>
        <r>     0.6211     0.0000     0.0000     0.0000     0.0000     0.0000     0.0000     0.0000     0.0000     0.0000 </r>
        <r>     0.6767     0.0000     0.0004     0.0002     0.0001     0.0000     0.0000     0.0000     0.0000     0.0000 </r>
        <r>     0.7322     0.0000     0.0072     0.0053     0.0030     0.0000     0.0000     0.0000     0.0000     0.0000 </r>
        <r>     0.7877     0.0001     0.0177     0.0163     0.0145     0.0000     0.0000     0.0000     0.0000     0.0000 </r>
        <r>     0.8433     0.0000     0.0058     0.0071     0.0108     0.0000     0.0000     0.0000     0.0000     0.0000 </r>
        <r>     0.8988     0.0000     0.0002     0.0004     0.0012     0.0000     0.0000     0.0000     0.0000     0.0000 </r>
        <r>     0.9544     0.0000     0.0000     0.0000     0.0000     0.0000     0.0000     0.0000     0.0000     0.0000 </r>
        <r>     1.0099     0.0000     0.0000     0.0000     0.0000     0.0000     0.0000     0.0000     0.0000     0.0000 </r>
        <r>     1.0654     0.0000     0.0000     0.0000     0.0000     0.0000     0.0000     0.0000     0.0000     0.0000 </r>
        <r>     1.1210     0.0000     0.0000     0.0000     0.0000     0.0000     0.0000     0.0000     0.0000     0.0000 </r>
        <r>     1.1765     0.0000     0.0000     0.0000     0.0000     0.0000     0.0000     0.0000     0.0000     0.0000 </r>
        <r>     1.2321     0.0002     0.0000     0.0000     0.0000     0.0000     0.0000     0.0000     0.0000     0.0000 </r>
        <r>     1.2876     0.0148     0.0000     0.0000     0.0000     0.0000     0.0000     0.0000     0.0000     0.0000 </r>
        <r>     1.3432     0.1487     0.0000     0.0000     0.0000     0.0000     0.0000     0.0000     0.0000     0.0000 </r>
        <r>     1.3987     0.1915     0.0000     0.0000     0.0000     0.0000     0.0000     0.0000     0.0000     0.0000 </r>
        <r>     1.4542     0.0323     0.0000     0.0000     0.0000     0.0000     0.0000     0.0000     0.0000     0.0000 </r>
        <r>     1.5098     0.0006     0.0000     0.0000     0.0000     0.0000     0.0000     0.0000     0.0000     0.0000 </r>
        <r>     1.5653     0.0000     0.0000     0.0000     0.0000     0.0000     0.0000     0.0000     0.0000     0.0000 </r>
        <r>     1.6209     0.0000     0.0000     0.0000     0.0000     0.0000     0.0000     0.0000     0.0000     0.0000 </r>
        <r>     1.6764     0.0000     0.0000     0.0000     0.0000     0.0000     0.0000     0.0000     0.0000     0.0000 </r>
        <r>     1.7319     0.0000     0.0000     0.0000     0.0000     0.0000     0.0000     0.0000     0.0000     0.0000 </r>
        <r>     1.7875     0.0000     0.0000     0.0000     0.0000     0.0000     0.0000     0.0000     0.0000     0.0000 </r>
        <r>     1.8430     0.0000     0.0000     0.0000     0.0000     0.0000     0.0000     0.0000     0.0000     0.0000 </r>
        <r>     1.8986     0.0000     0.0000     0.0000     0.0000     0.0000     0.0000     0.0000     0.0000     0.0000 </r>
        <r>     1.9541     0.0000     0.0000     0.0000     0.0000     0.0000     0.0000     0.0000     0.0000     0.0000 </r>
        <r>     2.0097     0.0000     0.0000     0.0000     0.0000     0.0000     0.0000     0.0000     0.0000     0.0000 </r>
        <r>     2.0652     0.0000     0.0000     0.0000     0.0000     0.0000     0.0000     0.0000     0.0000     0.0000 </r>
        <r>     2.1207     0.0000     0.0000     0.0000     0.0000     0.0000     0.0000     0.0000     0.0000     0.0000 </r>
        <r>     2.1763     0.0000     0.0000     0.0000     0.0000     0.0000     0.0000     0.0000     0.0000     0.0000 </r>
        <r>     2.2318     0.0000     0.0007     0.0000     0.0004     0.0000     0.0000     0.0000     0.0000     0.0000 </r>
        <r>     2.2874     0.0003     0.0068     0.0004     0.0036     0.0000     0.0000     0.0000     0.0000     0.0000 </r>
        <r>     2.3429     0.0005     0.0101     0.0022     0.0048     0.0000     0.0000     0.0000     0.0000     0.0000 </r>
        <r>     2.3984     0.0005     0.0064     0.0044     0.0020     0.0000     0.0000     0.0000     0.0000     0.0000 </r>
        <r>     2.4540     0.0024     0.0025     0.0049     0.0013     0.0000     0.0000     0.0000     0.0000     0.0000 </r>
        <r>     2.5095     0.0108     0.0035     0.0137     0.0040     0.0000     0.0000     0.0000     0.0000     0.0000 </r>
        <r>     2.5651     0.0068     0.0018     0.0071     0.0025     0.0000     0.0000     0.0000     0.0000     0.0000 </r>
        <r>     2.6206     0.0006     0.0002     0.0005     0.0004     0.0000     0.0000     0.0000     0.0000     0.0000 </r>
        <r>     2.6762     0.0001     0.0003     0.0003     0.0014     0.0000     0.0000     0.0000     0.0000     0.0000 </r>
[...]
        <r>     5.8420     0.0000     0.0000     0.0000     0.0000     0.0000     0.0000     0.0000     0.0000     0.0000 </r>
        <r>     5.8976     0.0000     0.0000     0.0000     0.0000     0.0000     0.0000     0.0000     0.0000     0.0000 </r>
        <r>     5.9531     0.0000     0.0000     0.0000     0.0000     0.0000     0.0000     0.0000     0.0000     0.0000 </r>
        <r>     6.0087     0.0000     0.0000     0.0000     0.0000     0.0000     0.0000     0.0000     0.0000     0.0000 </r>
        <r>     6.0642     0.0001     0.0000     0.0000     0.0000     0.0000     0.0000     0.0000     0.0000     0.0000 </r>
        <r>     6.1197     0.0013     0.0000     0.0000     0.0000     0.0000     0.0000     0.0000     0.0000     0.0000 </r>
        <r>     6.1753     0.0015     0.0000     0.0000     0.0000     0.0000     0.0000     0.0000     0.0000     0.0000 </r>
        <r>     6.2308     0.0002     0.0000     0.0000     0.0000     0.0000     0.0000     0.0000     0.0000     0.0000 </r>
        <r>     6.2864     0.0000     0.0000     0.0000     0.0000     0.0000     0.0000     0.0000     0.0000     0.0000 </r>
        <r>     6.3419     0.0000     0.0000     0.0000     0.0000     0.0000     0.0000     0.0000     0.0000     0.0000 </r>
        <r>     6.3975     0.0000     0.0000     0.0000     0.0000     0.0000     0.0000     0.0000     0.0000     0.0000 </r>
        <r>     6.4530     0.0000     0.0000     0.0000     0.0000     0.0000     0.0000     0.0000     0.0000     0.0000 </r>
        <r>     6.5085     0.0000     0.0000     0.0000     0.0000     0.0000     0.0000     0.0000     0.0000     0.0000 </r>
        <r>     6.5641     0.0000     0.0000     0.0000     0.0000     0.0000     0.0000     0.0000     0.0000     0.0000 </r>
        <r>     6.6196     0.0000     0.0000     0.0000     0.0000     0.0000     0.0000     0.0000     0.0000     0.0000 </r>
        <r>     6.6752     0.0000     0.0000     0.0000     0.0000     0.0000     0.0000     0.0000     0.0000     0.0000 </r>
        <r>     6.7307     0.0000     0.0000     0.0000     0.0000     0.0000     0.0000     0.0000     0.0000     0.0000 </r>
        <r>     6.7862     0.0000     0.0000     0.0000     0.0000     0.0000     0.0000     0.0000     0.0000     0.0000 </r>
        <r>     6.8418     0.0000     0.0000     0.0000     0.0000     0.0000     0.0000     0.0000     0.0000     0.0000 </r>
        <r>     6.8973     0.0000     0.0000     0.0000     0.0000     0.0000     0.0000     0.0000     0.0000     0.0000 </r>
        <r>     6.9529     0.0000     0.0000     0.0000     0.0000     0.0000     0.0000     0.0000     0.0000     0.0000 </r>
        <r>     7.0084     0.0000     0.0000     0.0000     0.0000     0.0000     0.0000     0.0000     0.0000     0.0000 </r>
        <r>     7.0640     0.0000     0.0000     0.0000     0.0000     0.0000     0.0000     0.0000     0.0000     0.0000 </r>
        <r>     7.1195     0.0000     0.0000     0.0000     0.0000     0.0000     0.0000     0.0000     0.0000     0.0000 </r>
        <r>     7.1750     0.0000     0.0000     0.0000     0.0000     0.0000     0.0000     0.0000     0.0000     0.0000 </r>
        <r>     7.2306     0.0000     0.0000     0.0000     0.0000     0.0000     0.0000     0.0000     0.0000     0.0000 </r>
        <r>     7.2861     0.0000     0.0000     0.0000     0.0000     0.0000     0.0000     0.0000     0.0000     0.0000 </r>
        <r>     7.3417     0.0000     0.0000     0.0000     0.0000     0.0000     0.0000     0.0000     0.0000     0.0000 </r>
        <r>     7.3972     0.0000     0.0000     0.0000     0.0000     0.0000     0.0000     0.0000     0.0000     0.0000 </r>
        <r>     7.4527     0.0000     0.0000     0.0000     0.0000     0.0000     0.0000     0.0000     0.0000     0.0000 </r>
        <r>     7.5083     0.0004     0.0000     0.0000     0.0000     0.0000     0.0000     0.0000     0.0000     0.0000 </r>
        <r>     7.5638     0.0005     0.0000     0.0000     0.0000     0.0000     0.0000     0.0000     0.0000     0.0000 </r>
        <r>     7.6194     0.0001     0.0000     0.0000     0.0000     0.0000     0.0000     0.0000     0.0000     0.0000 </r>
        <r>     7.6749     0.0000     0.0000     0.0000     0.0000     0.0000     0.0000     0.0000     0.0000     0.0000 </r>
        <r>     7.7305     0.0000     0.0000     0.0000     0.0000     0.0000     0.0000     0.0000     0.0000     0.0000 </r>
        <r>     7.7860     0.0000     0.0000     0.0000     0.0000     0.0000     0.0000     0.0000     0.0000     0.0000 </r>
        <r>     7.8415     0.0000     0.0000     0.0000     0.0000     0.0000     0.0000     0.0000     0.0000     0.0000 </r>
        <r>     7.8971     0.0000     0.0000     0.0000     0.0000     0.0000     0.0000     0.0000     0.0000     0.0000 </r>
        <r>     7.9526     0.0000     0.0000     0.0000     0.0000     0.0000     0.0000     0.0000     0.0000     0.0000 </r>
        <r>     8.0082     0.0000     0.0000     0.0000     0.0000     0.0000     0.0000     0.0000     0.0000     0.0000 </r>
        <r>     8.0637     0.0000     0.0000     0.0000     0.0000     0.0000     0.0000     0.0000     0.0000     0.0000 </r>
        <r>     8.1192     0.0000     0.0000     0.0000     0.0000     0.0000     0.0000     0.0000     0.0000     0.0000 </r>
        <r>     8.1748     0.0000     0.0000     0.0000     0.0000     0.0000     0.0000     0.0000     0.0000     0.0000 </r>
        <r>     8.2303     0.0000     0.0000     0.0000     0.0000     0.0000     0.0000     0.0000     0.0000     0.0000 </r>
        <r>     8.2859     0.0000     0.0000     0.0000     0.0000     0.0000     0.0000     0.0000     0.0000     0.0000 </r>
        <r>     8.3414     0.0000     0.0000     0.0000     0.0000     0.0000     0.0000     0.0000     0.0000     0.0000 </r>
       </set>
      </set>
     </set>
    </array>
   </partial>
  </dos>
  <projected>
   <eigenvalues>
    <array>
     <dimension dim="1">band</dimension>
     <dimension dim="2">kpoint</dimension>
     <dimension dim="3">spin</dimension>
     <field>eigene</field>
     <field>occ</field>
     <set>
      <set comment="spin 1">
       <set comment="kpoint 1">
        <r>   -7.5637    1.0000 </r>
        <r>   -0.2558    0.0000 </r>
        <r>    0.7565    0.0000 </r>
        <r>    0.7610    0.0000 </r>
        <r>    0.7849    0.0000 </r>
        <r>    1.2594    0.0000 </r>
        <r>    1.2596    0.0000 </r>
        <r>    1.3502    0.0000 </r>
        <r>    2.2921    0.0000 </r>
        <r>    2.3660    0.0000 </r>
        <r>    2.4837    0.0000 </r>
        <r>    2.4899    0.0000 </r>
        <r>    2.4975    0.0000 </r>
        <r>    2.5658    0.0000 </r>
        <r>    2.6822    0.0000 </r>
        <r>    2.7227    0.0000 </r>
        <r>    2.9037    0.0000 </r>
        <r>    2.9203    0.0000 </r>
        <r>    2.9940    0.0000 </r>
        <r>    3.2063    0.0000 </r>
        <r>    3.8425    0.0000 </r>
        <r>    4.0115    0.0000 </r>
        <r>    4.1112    0.0000 </r>
        <r>    4.1997    0.0000 </r>
        <r>    4.2648    0.0000 </r>
        <r>    4.3822    0.0000 </r>
        <r>    5.0298    0.0000 </r>
        <r>    5.2777    0.0000 </r>
        <r>    5.3264    0.0000 </r>
        <r>    5.6307    0.0000 </r>
        <r>    5.8301    0.0000 </r>
        <r>    5.9351    0.0000 </r>
        <r>    6.5026    0.0000 </r>
        <r>    7.0279    0.0000 </r>
        <r>    7.1419    0.0000 </r>
        <r>    7.4949    0.0000 </r>
       </set>
      </set>
      <set comment="spin 2">
       <set comment="kpoint 1">
        <r>    0.0838    0.0000 </r>
        <r>    1.5370    0.0000 </r>
        <r>    1.5384    0.0000 </r>
        <r>    1.5646    0.0000 </r>
        <r>    1.5693    0.0000 </r>
        <r>    1.5702    0.0000 </r>
        <r>    1.7813    0.0000 </r>
        <r>    3.0434    0.0000 </r>
        <r>    3.0454    0.0000 </r>
        <r>    3.0483    0.0000 </r>
        <r>    3.0484    0.0000 </r>
        <r>    3.0500    0.0000 </r>
        <r>    3.0766    0.0000 </r>
        <r>    3.1325    0.0000 </r>
        <r>    3.1591    0.0000 </r>
        <r>    3.1714    0.0000 </r>
        <r>    3.2049    0.0000 </r>
        <r>    3.2789    0.0000 </r>
        <r>    3.3814    0.0000 </r>
        <r>    4.5133    0.0000 </r>
        <r>    4.5339    0.0000 </r>
        <r>    4.5415    0.0000 </r>
        <r>    4.6063    0.0000 </r>
        <r>    4.6452    0.0000 </r>
        <r>    4.7158    0.0000 </r>
        <r>    4.8784    0.0000 </r>
        <r>    5.3219    0.0000 </r>
        <r>    5.7385    0.0000 </r>
        <r>    5.9222    0.0000 </r>
        <r>    6.1239    0.0000 </r>
        <r>    6.9327    0.0000 </r>
        <r>    7.1616    0.0000 </r>
        <r>    7.5084    0.0000 </r>
        <r>    7.5393    0.0000 </r>
        <r>    7.5642    0.0000 </r>
        <r>    7.5840    0.0000 </r>
       </set>
      </set>
     </set>
    </array>
   </eigenvalues>
   <array>
    <dimension dim="1">ion</dimension>
    <dimension dim="2">band</dimension>
    <dimension dim="3">kpoint</dimension>
    <dimension dim="4">spin</dimension>
    <field>    s</field>
    <field>   py</field>
    <field>   pz</field>
    <field>   px</field>
    <field>  dxy</field>
    <field>  dyz</field>
    <field>  dz2</field>
    <field>  dxz</field>
    <field>x2-y2</field>
    <set>
     <set comment="spin1">
      <set comment="kpoint 1">
       <set comment="band 1">
        <r>  0.3798  0.0000  0.0000  0.0000  0.0000  0.0000  0.0000  0.0000  0.0000 </r>
       </set>
       <set comment="band 2">
        <r>  0.0125  0.0000  0.0000  0.0000  0.0000  0.0000  0.0000  0.0000  0.0000 </r>
       </set>
       <set comment="band 3">
        <r>  0.0000  0.0017  0.0000  0.0001  0.0000  0.0000  0.0000  0.0000  0.0000 </r>
       </set>
       <set comment="band 4">
        <r>  0.0000  0.0000  0.0014  0.0003  0.0000  0.0000  0.0000  0.0000  0.0000 </r>
       </set>
       <set comment="band 5">
        <r>  0.0000  0.0000  0.0002  0.0012  0.0000  0.0000  0.0000  0.0000  0.0000 </r>
       </set>
       <set comment="band 6">
        <r>  0.0000  0.0000  0.0000  0.0000  0.0000  0.0000  0.0000  0.0000  0.0000 </r>
       </set>
       <set comment="band 7">
        <r>  0.0000  0.0000  0.0000  0.0000  0.0000  0.0000  0.0000  0.0000  0.0000 </r>
       </set>
       <set comment="band 8">
        <r>  0.0216  0.0000  0.0000  0.0000  0.0000  0.0000  0.0000  0.0000  0.0000 </r>
       </set>
       <set comment="band 9">
        <r>  0.0000  0.0009  0.0000  0.0005  0.0000  0.0000  0.0000  0.0000  0.0000 </r>
       </set>
       <set comment="band 10">
        <r>  0.0000  0.0005  0.0004  0.0001  0.0000  0.0000  0.0000  0.0000  0.0000 </r>
       </set>
       <set comment="band 11">
        <r>  0.0001  0.0002  0.0003  0.0000  0.0000  0.0000  0.0000  0.0000  0.0000 </r>
       </set>
       <set comment="band 12">
        <r>  0.0000  0.0000  0.0005  0.0001  0.0000  0.0000  0.0000  0.0000  0.0000 </r>
       </set>
       <set comment="band 13">
        <r>  0.0011  0.0002  0.0005  0.0003  0.0000  0.0000  0.0000  0.0000  0.0000 </r>
       </set>
       <set comment="band 14">
        <r>  0.0000  0.0000  0.0000  0.0000  0.0000  0.0000  0.0000  0.0000  0.0000 </r>
       </set>
       <set comment="band 15">
        <r>  0.0000  0.0000  0.0000  0.0002  0.0000  0.0000  0.0000  0.0000  0.0000 </r>
       </set>
       <set comment="band 16">
        <r>  0.0000  0.0000  0.0002  0.0000  0.0000  0.0000  0.0000  0.0000  0.0000 </r>
       </set>
       <set comment="band 17">
        <r>  0.0071  0.0000  0.0000  0.0000  0.0000  0.0000  0.0000  0.0000  0.0000 </r>
       </set>
       <set comment="band 18">
        <r>  0.0010  0.0001  0.0001  0.0000  0.0000  0.0000  0.0000  0.0000  0.0000 </r>
       </set>
       <set comment="band 19">
        <r>  0.0159  0.0000  0.0000  0.0000  0.0000  0.0000  0.0000  0.0000  0.0000 </r>
       </set>
       <set comment="band 20">
        <r>  0.0022  0.0001  0.0001  0.0002  0.0000  0.0000  0.0000  0.0000  0.0000 </r>
       </set>
       <set comment="band 21">
        <r>  0.0000  0.0000  0.0001  0.0000  0.0000  0.0000  0.0000  0.0000  0.0000 </r>
       </set>
       <set comment="band 22">
        <r>  0.0002  0.0001  0.0000  0.0000  0.0000  0.0000  0.0000  0.0000  0.0000 </r>
       </set>
       <set comment="band 23">
        <r>  0.0000  0.0000  0.0000  0.0000  0.0000  0.0000  0.0000  0.0000  0.0000 </r>
       </set>
       <set comment="band 24">
        <r>  0.0002  0.0000  0.0009  0.0001  0.0000  0.0000  0.0000  0.0000  0.0000 </r>
       </set>
       <set comment="band 25">
        <r>  0.0003  0.0000  0.0005  0.0012  0.0000  0.0000  0.0000  0.0000  0.0000 </r>
       </set>
       <set comment="band 26">
        <r>  0.0099  0.0000  0.0001  0.0002  0.0000  0.0000  0.0000  0.0000  0.0000 </r>
       </set>
       <set comment="band 27">
        <r>  0.0019  0.0000  0.0000  0.0000  0.0000  0.0000  0.0000  0.0000  0.0000 </r>
       </set>
       <set comment="band 28">
        <r>  0.0012  0.0000  0.0001  0.0000  0.0000  0.0000  0.0000  0.0000  0.0000 </r>
       </set>
       <set comment="band 29">
        <r>  0.0003  0.0001  0.0001  0.0002  0.0000  0.0000  0.0000  0.0000  0.0000 </r>
       </set>
       <set comment="band 30">
        <r>  0.0004  0.0001  0.0001  0.0000  0.0000  0.0000  0.0000  0.0000  0.0000 </r>
       </set>
       <set comment="band 31">
        <r>  0.0042  0.0003  0.0000  0.0000  0.0000  0.0000  0.0000  0.0000  0.0000 </r>
       </set>
       <set comment="band 32">
        <r>  0.0001  0.0010  0.0002  0.0003  0.0000  0.0000  0.0000  0.0000  0.0000 </r>
       </set>
       <set comment="band 33">
        <r>  0.0007  0.0002  0.0000  0.0002  0.0000  0.0000  0.0000  0.0000  0.0000 </r>
       </set>
       <set comment="band 34">
        <r>  0.0001  0.0001  0.0001  0.0000  0.0000  0.0000  0.0000  0.0000  0.0000 </r>
       </set>
       <set comment="band 35">
        <r>  0.0015  0.0003  0.0001  0.0000  0.0000  0.0000  0.0000  0.0000  0.0000 </r>
       </set>
       <set comment="band 36">
        <r>  0.0031  0.0001  0.0000  0.0000  0.0000  0.0000  0.0000  0.0000  0.0000 </r>
       </set>
      </set>
     </set>
     <set comment="spin2">
      <set comment="kpoint 1">
       <set comment="band 1">
        <r>  0.0000  0.0000  0.0000  0.0000  0.0000  0.0000  0.0000  0.0000  0.0000 </r>
       </set>
       <set comment="band 2">
        <r>  0.0000  0.0000  0.0000  0.0000  0.0000  0.0000  0.0000  0.0000  0.0000 </r>
       </set>
       <set comment="band 3">
        <r>  0.0000  0.0000  0.0000  0.0000  0.0000  0.0000  0.0000  0.0000  0.0000 </r>
       </set>
       <set comment="band 4">
        <r>  0.0000  0.0000  0.0000  0.0000  0.0000  0.0000  0.0000  0.0000  0.0000 </r>
       </set>
       <set comment="band 5">
        <r>  0.0000  0.0000  0.0000  0.0000  0.0000  0.0000  0.0000  0.0000  0.0000 </r>
       </set>
       <set comment="band 6">
        <r>  0.0000  0.0000  0.0000  0.0000  0.0000  0.0000  0.0000  0.0000  0.0000 </r>
       </set>
       <set comment="band 7">
        <r>  0.0001  0.0000  0.0000  0.0000  0.0000  0.0000  0.0000  0.0000  0.0000 </r>
       </set>
       <set comment="band 8">
        <r>  0.0000  0.0000  0.0000  0.0000  0.0000  0.0000  0.0000  0.0000  0.0000 </r>
       </set>
       <set comment="band 9">
        <r>  0.0000  0.0000  0.0000  0.0000  0.0000  0.0000  0.0000  0.0000  0.0000 </r>
       </set>
       <set comment="band 10">
        <r>  0.0000  0.0000  0.0000  0.0000  0.0000  0.0000  0.0000  0.0000  0.0000 </r>
       </set>
       <set comment="band 11">
        <r>  0.0000  0.0000  0.0000  0.0000  0.0000  0.0000  0.0000  0.0000  0.0000 </r>
       </set>
       <set comment="band 12">
        <r>  0.0000  0.0000  0.0000  0.0000  0.0000  0.0000  0.0000  0.0000  0.0000 </r>
       </set>
       <set comment="band 13">
        <r>  0.0000  0.0000  0.0000  0.0000  0.0000  0.0000  0.0000  0.0000  0.0000 </r>
       </set>
       <set comment="band 14">
        <r>  0.0000  0.0000  0.0000  0.0000  0.0000  0.0000  0.0000  0.0000  0.0000 </r>
       </set>
       <set comment="band 15">
        <r>  0.0000  0.0000  0.0000  0.0000  0.0000  0.0000  0.0000  0.0000  0.0000 </r>
       </set>
       <set comment="band 16">
        <r>  0.0000  0.0000  0.0000  0.0000  0.0000  0.0000  0.0000  0.0000  0.0000 </r>
       </set>
       <set comment="band 17">
        <r>  0.0000  0.0000  0.0000  0.0000  0.0000  0.0000  0.0000  0.0000  0.0000 </r>
       </set>
       <set comment="band 18">
        <r>  0.0001  0.0000  0.0000  0.0000  0.0000  0.0000  0.0000  0.0000  0.0000 </r>
       </set>
       <set comment="band 19">
        <r>  0.0002  0.0000  0.0000  0.0000  0.0000  0.0000  0.0000  0.0000  0.0000 </r>
       </set>
       <set comment="band 20">
        <r>  0.0000  0.0000  0.0000  0.0000  0.0000  0.0000  0.0000  0.0000  0.0000 </r>
       </set>
       <set comment="band 21">
        <r>  0.0000  0.0000  0.0000  0.0000  0.0000  0.0000  0.0000  0.0000  0.0000 </r>
       </set>
       <set comment="band 22">
        <r>  0.0000  0.0000  0.0000  0.0000  0.0000  0.0000  0.0000  0.0000  0.0000 </r>
       </set>
       <set comment="band 23">
        <r>  0.0000  0.0000  0.0000  0.0000  0.0000  0.0000  0.0000  0.0000  0.0000 </r>
       </set>
       <set comment="band 24">
        <r>  0.0000  0.0000  0.0000  0.0000  0.0000  0.0000  0.0000  0.0000  0.0000 </r>
       </set>
       <set comment="band 25">
        <r>  0.0000  0.0000  0.0000  0.0000  0.0000  0.0000  0.0000  0.0000  0.0000 </r>
       </set>
       <set comment="band 26">
        <r>  0.0003  0.0000  0.0000  0.0000  0.0000  0.0000  0.0000  0.0000  0.0000 </r>
       </set>
       <set comment="band 27">
        <r>  0.0000  0.0000  0.0000  0.0000  0.0000  0.0000  0.0000  0.0000  0.0000 </r>
       </set>
       <set comment="band 28">
        <r>  0.0000  0.0000  0.0000  0.0000  0.0000  0.0000  0.0000  0.0000  0.0000 </r>
       </set>
       <set comment="band 29">
        <r>  0.0000  0.0000  0.0000  0.0000  0.0000  0.0000  0.0000  0.0000  0.0000 </r>
       </set>
       <set comment="band 30">
        <r>  0.0002  0.0000  0.0000  0.0000  0.0000  0.0000  0.0000  0.0000  0.0000 </r>
       </set>
       <set comment="band 31">
        <r>  0.0000  0.0000  0.0000  0.0000  0.0000  0.0000  0.0000  0.0000  0.0000 </r>
       </set>
       <set comment="band 32">
        <r>  0.0000  0.0000  0.0000  0.0000  0.0000  0.0000  0.0000  0.0000  0.0000 </r>
       </set>
       <set comment="band 33">
        <r>  0.0000  0.0000  0.0000  0.0000  0.0000  0.0000  0.0000  0.0000  0.0000 </r>
       </set>
       <set comment="band 34">
        <r>  0.0000  0.0000  0.0000  0.0000  0.0000  0.0000  0.0000  0.0000  0.0000 </r>
       </set>
       <set comment="band 35">
        <r>  0.0000  0.0000  0.0000  0.0000  0.0000  0.0000  0.0000  0.0000  0.0000 </r>
       </set>
       <set comment="band 36">
        <r>  0.0000  0.0000  0.0000  0.0000  0.0000  0.0000  0.0000  0.0000  0.0000 </r>
       </set>
      </set>
     </set>
    </set>
   </array>
  </projected>
 </calculation>
 <structure name="finalpos" >
  <crystal>
   <varray name="basis" >
    <v>      10.00000000       0.00000000       0.00000000 </v>
    <v>       0.00000000      10.00000000       0.00000000 </v>
    <v>       0.00000000       0.00000000      10.00000000 </v>
   </varray>
   <i name="volume">   1000.00000000 </i>
   <varray name="rec_basis" >
    <v>       0.10000000       0.00000000       0.00000000 </v>
    <v>       0.00000000       0.10000000       0.00000000 </v>
    <v>       0.00000000       0.00000000       0.10000000 </v>
   </varray>
  </crystal>
  <varray name="positions" >
   <v>       0.50000000       0.50000000       0.50000000 </v>
  </varray>
 </structure>
</modeling>
