       N       E                     dE             d eps       ncg     rms          ort
DAV:   1     0.113897231734E+03    0.11390E+03   -0.49847E+03    36   0.281E+02
DAV:   2     0.153530893412E+02   -0.98544E+02   -0.97721E+02    36   0.809E+01
DAV:   3     0.259702175847E-01   -0.15327E+02   -0.15015E+02    36   0.429E+01
DAV:   4    -0.147983379672E+01   -0.15058E+01   -0.15058E+01    36   0.138E+01
DAV:   5    -0.175474529832E+01   -0.27491E+00   -0.27491E+00    36   0.406E+00
SDA:   6    -0.289417197537E+01   -0.11394E+01   -0.66063E+01    36   0.165E+02 0.000E+00
DMP:   7    -0.308331059683E+01   -0.18914E+00   -0.73979E+01    36   0.261E+02-0.200E+02
DMP:   8    -0.196297284386E+01    0.11203E+01   -0.15947E+02    36   0.491E+02-0.240E+02
DMP:   9     0.211285767799E+01    0.40758E+01   -0.32905E+02    36   0.104E+03-0.560E+02
DMP:  10     0.557359866860E+01    0.34607E+01   -0.48529E+02    36   0.159E+03-0.974E+02
DMP:  11     0.937737122937E+01    0.38038E+01   -0.35706E+02    36   0.124E+03-0.907E+02
DMP:  12    -0.276528662641E+01   -0.12143E+02   -0.43110E+01    36   0.209E+02-0.265E+02
DMP:  13    -0.459852377777E+01   -0.18332E+01   -0.15587E+01    36   0.433E+01-0.112E+01
DMP:  14     0.160187085218E+00    0.47587E+01   -0.82660E+01    36   0.235E+02-0.733E+01
DMP:  15    -0.249697235961E+01   -0.26572E+01   -0.50417E+01    36   0.191E+02-0.170E+02
DMP:  16    -0.483906403282E+01   -0.23421E+01   -0.45127E-01    36   0.171E+01-0.419E+01
DMP:  17    -0.674675268845E+00    0.41644E+01   -0.64769E+01    36   0.178E+02-0.427E+01
DMP:  18    -0.288459479752E+01   -0.22099E+01   -0.36443E+01    36   0.143E+02-0.137E+02
DMP:  19    -0.411803484232E+01   -0.12334E+01   -0.46362E+01    36   0.319E+02-0.531E+02
DMP:  20    -0.472942263883E+01   -0.61139E+00   -0.69220E+00    36   0.206E+01-0.855E+00
DMP:  21    -0.418018258550E+01    0.54924E+00   -0.12420E+02    36   0.357E+02-0.122E+02
DMP:  22    -0.474016452531E+01   -0.55998E+00   -0.56710E+00    36   0.204E+01-0.162E+01
DMP:  23    -0.509608047051E+01   -0.35592E+00   -0.12738E+00    36   0.180E+00 0.362E+00
DMP:  24    -0.511643291956E+01   -0.20352E-01   -0.25838E-01    36   0.147E+00-0.215E+00
DMP:  25    -0.513381842773E+01   -0.17386E-01   -0.34504E-01    36   0.775E-01 0.229E-01
DMP:  26    -0.515104281883E+01   -0.17224E-01   -0.41134E-02    36   0.105E-01-0.592E-03
DMP:  27    -0.515184097691E+01   -0.79816E-03   -0.35065E-02    36   0.112E-01-0.645E-02
DMP:  28    -0.515390200852E+01   -0.20610E-02   -0.14121E-02    36   0.296E-02 0.148E-02
DMP:  29    -0.515450867711E+01   -0.60667E-03   -0.27713E-03    36   0.888E-03-0.510E-03
DMP:  30    -0.515460350751E+01   -0.94830E-04   -0.18815E-03    36   0.551E-03-0.212E-03
DMP:  31    -0.515470368366E+01   -0.10018E-03   -0.68869E-04    36   0.157E-03 0.392E-04
DMP:  32    -0.515473051723E+01   -0.26834E-04   -0.18600E-04    36   0.603E-04-0.360E-04
   1 F= -.51547305E+01 E0= -.51547305E+01  d E =-.515473E+01  mag=     5.0000
