<?xml version="1.0" encoding="ISO-8859-1"?>
<modeling>
 <generator>
  <i name="program" type="string">vasp </i>
  <i name="version" type="string">5.4.4.18Apr17-6-g9f103f2a35  </i>
  <i name="subversion" type="string">(build Nov 08 2019 15:19:53) gamma-only         parallel </i>
  <i name="platform" type="string">LinuxIFC </i>
  <i name="date" type="string">2020 11 30 </i>
  <i name="time" type="string">09:30:50 </i>
 </generator>
 <incar>
  <i type="string" name="PREC">accurate</i>
  <i type="string" name="ALGO"> D</i>
  <i type="int" name="ISPIN">     2</i>
  <i type="int" name="NELM">   300</i>
  <i type="int" name="IBRION">     2</i>
  <i name="EDIFF">      0.00005000</i>
  <i type="int" name="NSW">    99</i>
  <i type="int" name="ISIF">     2</i>
  <i name="ENCUT">    520.00000000</i>
  <v name="MAGMOM">      0.60000000</v>
  <i type="string" name="LREAL"> Auto</i>
  <i type="int" name="ISMEAR">     0</i>
  <i name="SIGMA">      0.05000000</i>
  <i type="logical" name="LWAVE"> F  </i>
  <i type="int" name="LORBIT">    11</i>
  <i type="logical" name="LASPH"> T  </i>
  <v type="int" name="KPOINT_BSE">    -1     0     0     0</v>
  <i type="int" name="NELM">   300</i>
  <i type="logical" name="LASPH"> T  </i>
 </incar>
 <structure name="primitive_cell" >
  <crystal>
   <varray name="basis" >
    <v>      10.00000000       0.00000000       0.00000000 </v>
    <v>       0.00000000      10.00000000       0.00000000 </v>
    <v>       0.00000000       0.00000000      10.00000000 </v>
   </varray>
   <i name="volume">   1000.00000000 </i>
   <varray name="rec_basis" >
    <v>       0.10000000       0.00000000       0.00000000 </v>
    <v>       0.00000000       0.10000000       0.00000000 </v>
    <v>       0.00000000       0.00000000       0.10000000 </v>
   </varray>
  </crystal>
  <varray name="positions" >
   <v>      -0.50000000      -0.50000000      -0.50000000 </v>
  </varray>
 </structure>
 <varray name="primitive_index" >
  <v type="int" >        1 </v>
 </varray>
 <kpoints>
  <generation param="Gamma">
   <v type="int" name="divisions">       1        1        1 </v>
   <v name="usershift">      0.00000000       0.00000000       0.00000000 </v>
   <v name="genvec1">      1.00000000       0.00000000       0.00000000 </v>
   <v name="genvec2">      0.00000000       1.00000000       0.00000000 </v>
   <v name="genvec3">      0.00000000       0.00000000       1.00000000 </v>
   <v name="shift">      0.00000000       0.00000000       0.00000000 </v>
  </generation>
  <varray name="kpointlist" >
   <v>       0.00000000       0.00000000       0.00000000 </v>
  </varray>
  <varray name="weights" >
   <v>       1.00000000 </v>
  </varray>
 </kpoints>
 <parameters>
  <separator name="general" >
   <i type="string" name="SYSTEM">unknown system</i>
   <i type="logical" name="LCOMPAT"> F  </i>
  </separator>
  <separator name="electronic" >
   <i type="string" name="PREC">accura</i>
   <i name="ENMAX">    520.00000000</i>
   <i name="ENAUG">    569.08500000</i>
   <i name="EDIFF">      0.00005000</i>
   <i type="int" name="IALGO">    53</i>
   <i type="int" name="IWAVPR">    11</i>
   <i type="int" name="NBANDS">    36</i>
   <i name="NELECT">     13.00000000</i>
   <i type="int" name="TURBO">     0</i>
   <i type="int" name="IRESTART">     0</i>
   <i type="int" name="NREBOOT">     0</i>
   <i type="int" name="NMIN">     0</i>
   <i name="EREF">      0.00000000</i>
   <separator name="electronic smearing" >
    <i type="int" name="ISMEAR">     0</i>
    <i name="SIGMA">      0.05000000</i>
    <i name="KSPACING">      0.50000000</i>
    <i type="logical" name="KGAMMA"> T  </i>
   </separator>
   <separator name="electronic projectors" >
    <i type="logical" name="LREAL"> T  </i>
    <v name="ROPT">     -0.00025000</v>
    <i type="int" name="LMAXPAW">  -100</i>
    <i type="int" name="LMAXMIX">     2</i>
    <i type="logical" name="NLSPLINE"> F  </i>
   </separator>
   <separator name="electronic startup" >
    <i type="int" name="ISTART">     0</i>
    <i type="int" name="ICHARG">     2</i>
    <i type="int" name="INIWAV">     1</i>
   </separator>
   <separator name="electronic spin" >
    <i type="int" name="ISPIN">     2</i>
    <i type="logical" name="LNONCOLLINEAR"> F  </i>
    <v name="MAGMOM">      0.60000000</v>
    <i name="NUPDOWN">     -1.00000000</i>
    <i type="logical" name="LSORBIT"> F  </i>
    <v name="SAXIS">      0.00000000      0.00000000      1.00000000</v>
    <i type="logical" name="LSPIRAL"> F  </i>
    <v name="QSPIRAL">      0.00000000      0.00000000      0.00000000</v>
    <i type="logical" name="LZEROZ"> F  </i>
   </separator>
   <separator name="electronic exchange-correlation" >
    <i type="logical" name="LASPH"> T  </i>
    <i type="logical" name="LMETAGGA"> F  </i>
   </separator>
   <separator name="electronic convergence" >
    <i type="int" name="NELM">   300</i>
    <i type="int" name="NELMDL">    -5</i>
    <i type="int" name="NELMIN">     2</i>
    <i name="ENINI">    520.00000000</i>
    <separator name="electronic convergence detail" >
     <i type="logical" name="LDIAG"> T  </i>
     <i type="logical" name="LSUBROT"> F  </i>
     <i name="WEIMIN">      0.00100000</i>
     <i name="EBREAK">      0.00000035</i>
     <i name="DEPER">      0.30000000</i>
     <i type="int" name="NRMM">     4</i>
     <i name="TIME">      0.40000000</i>
    </separator>
   </separator>
   <separator name="electronic mixer" >
    <i name="AMIX">      0.40000000</i>
    <i name="BMIX">      1.00000000</i>
    <i name="AMIN">      0.10000000</i>
    <i name="AMIX_MAG">      1.60000000</i>
    <i name="BMIX_MAG">      1.00000000</i>
    <separator name="electronic mixer details" >
     <i type="int" name="IMIX">     4</i>
     <i type="logical" name="MIXFIRST"> F  </i>
     <i type="int" name="MAXMIX">   -45</i>
     <i name="WC">    100.00000000</i>
     <i type="int" name="INIMIX">     1</i>
     <i type="int" name="MIXPRE">     1</i>
     <i type="int" name="MREMOVE">     5</i>
    </separator>
   </separator>
   <separator name="electronic dipolcorrection" >
    <i type="logical" name="LDIPOL"> F  </i>
    <i type="logical" name="LMONO"> F  </i>
    <i type="int" name="IDIPOL">     0</i>
    <i name="EPSILON">      1.00000000</i>
    <v name="DIPOL">   -100.00000000   -100.00000000   -100.00000000</v>
    <i name="EFIELD">      0.00000000</i>
   </separator>
  </separator>
  <separator name="grids" >
   <i type="int" name="NGX">    80</i>
   <i type="int" name="NGY">    80</i>
   <i type="int" name="NGZ">    80</i>
   <i type="int" name="NGXF">   160</i>
   <i type="int" name="NGYF">   160</i>
   <i type="int" name="NGZF">   160</i>
   <i type="logical" name="ADDGRID"> F  </i>
  </separator>
  <separator name="ionic" >
   <i type="int" name="NSW">    99</i>
   <i type="int" name="IBRION">     2</i>
   <i type="int" name="MDALGO">     0</i>
   <i type="int" name="ISIF">     2</i>
   <i name="PSTRESS">      0.00000000</i>
   <i name="EDIFFG">      0.00050000</i>
   <i type="int" name="NFREE">     1</i>
   <i name="POTIM">      0.50000000</i>
   <i name="SMASS">     -3.00000000</i>
   <i name="SCALEE">      1.00000000</i>
  </separator>
  <separator name="ionic md" >
   <i name="TEBEG">      0.00010000</i>
   <i name="TEEND">      0.00010000</i>
   <i type="int" name="NBLOCK">     1</i>
   <i type="int" name="KBLOCK">    99</i>
   <i type="int" name="NPACO">   256</i>
   <i name="APACO">     16.00000000</i>
  </separator>
  <separator name="symmetry" >
   <i type="int" name="ISYM">     2</i>
   <i name="SYMPREC">      0.00001000</i>
  </separator>
  <separator name="dos" >
   <i type="int" name="LORBIT">    11</i>
   <v name="RWIGS">     -1.00000000</v>
   <i type="int" name="NEDOS">   301</i>
   <i name="EMIN">     10.00000000</i>
   <i name="EMAX">    -10.00000000</i>
   <i name="EFERMI">      0.00000000</i>
  </separator>
  <separator name="writing" >
   <i type="int" name="NWRITE">     2</i>
   <i type="logical" name="LWAVE"> F  </i>
   <i type="logical" name="LDOWNSAMPLE"> F  </i>
   <i type="logical" name="LCHARG"> T  </i>
   <i type="logical" name="LPARD"> F  </i>
   <i type="logical" name="LVTOT"> F  </i>
   <i type="logical" name="LVHAR"> F  </i>
   <i type="logical" name="LELF"> F  </i>
   <i type="logical" name="LOPTICS"> F  </i>
   <v name="STM">      0.00000000      0.00000000      0.00000000      0.00000000      0.00000000      0.00000000      0.00000000</v>
  </separator>
  <separator name="performance" >
   <i type="int" name="NPAR">    36</i>
   <i type="int" name="NSIM">     4</i>
   <i type="int" name="NBLK">    -1</i>
   <i type="logical" name="LPLANE"> T  </i>
   <i type="logical" name="LSCALAPACK"> T  </i>
   <i type="logical" name="LSCAAWARE"> F  </i>
   <i type="logical" name="LSCALU"> F  </i>
   <i type="logical" name="LASYNC"> F  </i>
   <i type="logical" name="LORBITALREAL"> F  </i>
  </separator>
  <separator name="miscellaneous" >
   <i type="int" name="IDIOT">     3</i>
   <i type="int" name="ISPECIAL">     0</i>
   <i type="logical" name="LMUSIC"> F  </i>
   <v name="POMASS">     54.93800000</v>
   <v name="DARWINR">      0.00000000</v>
   <v name="DARWINV">      1.00000000</v>
   <i type="logical" name="LCORR"> T  </i>
  </separator>
  <i type="logical" name="GGA_COMPAT"> T  </i>
  <i type="logical" name="LBERRY"> F  </i>
  <i type="int" name="ICORELEVEL">     0</i>
  <i type="logical" name="LDAU"> F  </i>
  <i type="int" name="I_CONSTRAINED_M">     0</i>
  <separator name="electronic exchange-correlation" >
   <i type="string" name="GGA">--</i>
   <i type="int" name="VOSKOWN">     0</i>
   <i type="logical" name="LHFCALC"> F  </i>
   <i type="string" name="PRECFOCK"></i>
   <i type="logical" name="LSYMGRAD"> F  </i>
   <i type="logical" name="LHFONE"> F  </i>
   <i type="logical" name="LRHFCALC"> F  </i>
   <i type="logical" name="LTHOMAS"> F  </i>
   <i type="logical" name="LMODELHF"> F  </i>
   <i name="ENCUT4O">     -1.00000000</i>
   <i type="int" name="EXXOEP">     0</i>
   <i type="int" name="FOURORBIT">     0</i>
   <i name="AEXX">      0.00000000</i>
   <i name="HFALPHA">      0.00000000</i>
   <i name="MCALPHA">      0.00000000</i>
   <i name="ALDAX">      1.00000000</i>
   <i name="AGGAX">      1.00000000</i>
   <i name="ALDAC">      1.00000000</i>
   <i name="AGGAC">      1.00000000</i>
   <i type="int" name="NKREDX">     1</i>
   <i type="int" name="NKREDY">     1</i>
   <i type="int" name="NKREDZ">     1</i>
   <i type="logical" name="SHIFTRED"> F  </i>
   <i type="logical" name="ODDONLY"> F  </i>
   <i type="logical" name="EVENONLY"> F  </i>
   <i type="int" name="LMAXFOCK">     0</i>
   <i type="int" name="NMAXFOCKAE">     0</i>
   <i type="logical" name="LFOCKAEDFT"> F  </i>
   <i name="HFSCREEN">      0.00000000</i>
   <i name="HFSCREENC">      0.00000000</i>
   <i type="int" name="NBANDSGWLOW">     0</i>
  </separator>
  <separator name="vdW DFT" >
   <i type="logical" name="LUSE_VDW"> F  </i>
   <i name="Zab_VDW">     -0.84910000</i>
   <i name="PARAM1">      0.12340000</i>
   <i name="PARAM2">      1.00000000</i>
   <i name="PARAM3">      0.00000000</i>
  </separator>
  <separator name="model GW" >
   <i type="int" name="MODEL_GW">     0</i>
   <i name="MODEL_EPS0">    600.00000000</i>
   <i name="MODEL_ALPHA">      1.00000000</i>
  </separator>
  <separator name="linear response parameters" >
   <i type="logical" name="LEPSILON"> F  </i>
   <i type="logical" name="LRPA"> F  </i>
   <i type="logical" name="LNABLA"> F  </i>
   <i type="logical" name="LVEL"> F  </i>
   <i type="int" name="KINTER">     0</i>
   <i name="CSHIFT">      0.10000000</i>
   <i name="OMEGAMAX">     -1.00000000</i>
   <i name="DEG_THRESHOLD">      0.00200000</i>
   <i name="RTIME">     -0.10000000</i>
   <i name="WPLASMAI">      0.00000000</i>
   <v name="DFIELD">      0.00000000      0.00000000      0.00000000</v>
   <v name="WPLASMA">      0.00000000      0.00000000      0.00000000      0.00000000      0.00000000      0.00000000      0.00000000      0.00000000      0.00000000</v>
  </separator>
  <separator name="orbital magnetization" >
   <i type="logical" name="NUCIND"> F  </i>
   <v name="MAGPOS">      0.00000000      0.00000000      0.00000000</v>
   <i type="logical" name="LNICSALL"> T  </i>
   <i type="logical" name="ORBITALMAG"> F  </i>
   <i type="logical" name="LMAGBLOCH"> F  </i>
   <i type="logical" name="LCHIMAG"> F  </i>
   <i type="logical" name="LGAUGE"> T  </i>
   <i type="int" name="MAGATOM">     0</i>
   <v name="MAGDIPOL">      0.00000000      0.00000000      0.00000000</v>
   <v name="AVECCONST">      0.00000000      0.00000000      0.00000000</v>
  </separator>
  <separator name="response functions" >
   <i type="logical" name="LADDER"> F  </i>
   <i type="logical" name="LRPAFORCE"> F  </i>
   <i type="logical" name="LFXC"> F  </i>
   <i type="logical" name="LHARTREE"> T  </i>
   <i type="int" name="IBSE">     0</i>
   <v type="int" name="KPOINT">    -1     0     0     0</v>
   <i type="logical" name="LTCTE"> F  </i>
   <i type="logical" name="LTETE"> F  </i>
   <i type="logical" name="LTRIPLET"> F  </i>
   <i type="logical" name="LFXCEPS"> F  </i>
   <i type="logical" name="LFXHEG"> F  </i>
   <i type="int" name="NATURALO">     2</i>
   <i type="logical" name="L2ORDER"> F  </i>
   <i type="logical" name="LMP2LT"> F  </i>
   <i type="logical" name="LUSEW"> F  </i>
   <i name="ENCUTGW">     -2.00000000</i>
   <i name="ENCUTGWSOFT">     -2.00000000</i>
   <i name="ENCUTLF">     -1.00000000</i>
   <i type="int" name="LMAXMP2">    -1</i>
   <i name="SCISSOR">      0.00000000</i>
   <i type="int" name="NOMEGA">     0</i>
   <i type="int" name="NOMEGAR">     0</i>
   <i type="int" name="NBANDSGW">    -1</i>
   <i type="int" name="NBANDSO">    -1</i>
   <i type="int" name="NBANDSV">    -1</i>
   <i type="int" name="NELM">   300</i>
   <i type="int" name="NELMHF">     1</i>
   <i type="int" name="DIM">     3</i>
   <i type="int" name="ANTIRES">     0</i>
   <i name="OMEGAMAX">    -30.00000000</i>
   <i name="OMEGAMIN">    -30.00000000</i>
   <i name="OMEGATL">   -200.00000000</i>
   <i type="int" name="OMEGAGRID">   140</i>
   <i name="CSHIFT">     -0.10000000</i>
   <i type="logical" name="SELFENERGY"> F  </i>
   <i type="logical" name="LSPECTRAL"> F  </i>
   <i type="logical" name="LSPECTRALGW"> F  </i>
   <i type="logical" name="LSINGLES"> F  </i>
   <i type="logical" name="LFERMIGW"> F  </i>
   <i type="logical" name="ODDONLYGW"> F  </i>
   <i type="logical" name="EVENONLYGW"> F  </i>
   <i type="int" name="NKREDLFX">     1</i>
   <i type="int" name="NKREDLFY">     1</i>
   <i type="int" name="NKREDLFZ">     1</i>
   <i type="int" name="MAXMEM">  2800</i>
   <i type="int" name="TELESCOPE">     0</i>
   <i type="int" name="TAUPAR">     1</i>
   <i type="int" name="OMEGAPAR">    -1</i>
   <i name="LAMBDA">      1.00000000</i>
  </separator>
  <separator name="External order field" >
   <i name="OFIELD_KAPPA">      0.00000000</i>
   <v name="OFIELD_K">      0.00000000      0.00000000      0.00000000</v>
   <i name="OFIELD_Q6_NEAR">      0.00000000</i>
   <i name="OFIELD_Q6_FAR">      0.00000000</i>
   <i name="OFIELD_A">      0.00000000</i>
  </separator>
 </parameters>
 <atominfo>
  <atoms>       1 </atoms>
  <types>       1 </types>
  <array name="atoms" >
   <dimension dim="1">ion</dimension>
   <field type="string">element</field>
   <field type="int">atomtype</field>
   <set>
    <rc><c>Mn</c><c>   1</c></rc>
   </set>
  </array>
  <array name="atomtypes" >
   <dimension dim="1">type</dimension>
   <field type="int">atomspertype</field>
   <field type="string">element</field>
   <field>mass</field>
   <field>valence</field>
   <field type="string">pseudopotential</field>
   <set>
    <rc><c>   1</c><c>Mn</c><c>     54.93800000</c><c>     13.00000000</c><c>  PAW_PBE Mn_pv 02Aug2007               </c></rc>
   </set>
  </array>
 </atominfo>
 <structure name="initialpos" >
  <crystal>
   <varray name="basis" >
    <v>      10.00000000       0.00000000       0.00000000 </v>
    <v>       0.00000000      10.00000000       0.00000000 </v>
    <v>       0.00000000       0.00000000      10.00000000 </v>
   </varray>
   <i name="volume">   1000.00000000 </i>
   <varray name="rec_basis" >
    <v>       0.10000000       0.00000000       0.00000000 </v>
    <v>       0.00000000       0.10000000       0.00000000 </v>
    <v>       0.00000000       0.00000000       0.10000000 </v>
   </varray>
  </crystal>
  <varray name="positions" >
   <v>       0.50000000       0.50000000       0.50000000 </v>
  </varray>
 </structure>
 <calculation>
  <scstep>
   <time name="total">    0.91    0.92</time>
   <energy>
    <i name="alphaZ">      1.20587074 </i>
    <i name="ewald">   -345.23725609 </i>
    <i name="hartreedc">  -1372.10613938 </i>
    <i name="XCdc">     66.11201058 </i>
    <i name="pawpsdc">   1646.26969328 </i>
    <i name="pawaedc">  -1697.01615460 </i>
    <i name="eentropy">     -0.02257723 </i>
    <i name="bandstr">   -210.56883764 </i>
    <i name="atom">   2025.26062208 </i>
    <i name="e_fr_energy">    113.89723173 </i>
    <i name="e_wo_entrp">    113.91980897 </i>
    <i name="e_0_energy">    113.90852035 </i>
   </energy>
  </scstep>
  <scstep>
   <time name="total">    0.26    0.26</time>
   <energy>
    <i name="e_fr_energy">     15.35308934 </i>
    <i name="e_wo_entrp">     15.36884934 </i>
    <i name="e_0_energy">     15.36096934 </i>
   </energy>
  </scstep>
  <scstep>
   <time name="total">    0.33    0.33</time>
   <energy>
    <i name="e_fr_energy">      0.02597022 </i>
    <i name="e_wo_entrp">      0.02597037 </i>
    <i name="e_0_energy">      0.02597029 </i>
   </energy>
  </scstep>
  <scstep>
   <time name="total">    0.34    0.34</time>
   <energy>
    <i name="e_fr_energy">     -1.47983380 </i>
    <i name="e_wo_entrp">     -1.47983380 </i>
    <i name="e_0_energy">     -1.47983380 </i>
   </energy>
  </scstep>
  <scstep>
   <time name="total">    0.57    0.57</time>
   <energy>
    <i name="e_fr_energy">     -1.75474530 </i>
    <i name="e_wo_entrp">     -1.75474530 </i>
    <i name="e_0_energy">     -1.75474530 </i>
   </energy>
  </scstep>
  <scstep>
   <time name="total">    0.93    0.93</time>
   <energy>
    <i name="e_fr_energy">     -2.89417198 </i>
    <i name="e_wo_entrp">     -2.88884105 </i>
    <i name="e_0_energy">     -2.89150651 </i>
   </energy>
  </scstep>
  <scstep>
   <time name="total">    0.91    0.91</time>
   <energy>
    <i name="e_fr_energy">     -3.08331060 </i>
    <i name="e_wo_entrp">     -3.08330820 </i>
    <i name="e_0_energy">     -3.08330940 </i>
   </energy>
  </scstep>
  <scstep>
   <time name="total">    0.89    0.89</time>
   <energy>
    <i name="e_fr_energy">     -1.96297284 </i>
    <i name="e_wo_entrp">     -1.96256230 </i>
    <i name="e_0_energy">     -1.96276757 </i>
   </energy>
  </scstep>
  <scstep>
   <time name="total">    0.89    0.89</time>
   <energy>
    <i name="e_fr_energy">      2.11285768 </i>
    <i name="e_wo_entrp">      2.11288294 </i>
    <i name="e_0_energy">      2.11287031 </i>
   </energy>
  </scstep>
  <scstep>
   <time name="total">    0.90    0.90</time>
   <energy>
    <i name="e_fr_energy">      5.57359867 </i>
    <i name="e_wo_entrp">      5.62364373 </i>
    <i name="e_0_energy">      5.59862120 </i>
   </energy>
  </scstep>
  <scstep>
   <time name="total">    0.89    0.89</time>
   <energy>
    <i name="e_fr_energy">      9.37737123 </i>
    <i name="e_wo_entrp">      9.37737123 </i>
    <i name="e_0_energy">      9.37737123 </i>
   </energy>
  </scstep>
  <scstep>
   <time name="total">    0.90    0.91</time>
   <energy>
    <i name="e_fr_energy">     -2.76528663 </i>
    <i name="e_wo_entrp">     -2.76500644 </i>
    <i name="e_0_energy">     -2.76514653 </i>
   </energy>
  </scstep>
  <scstep>
   <time name="total">    0.90    0.90</time>
   <energy>
    <i name="e_fr_energy">     -4.59852378 </i>
    <i name="e_wo_entrp">     -4.55238759 </i>
    <i name="e_0_energy">     -4.57545568 </i>
   </energy>
  </scstep>
  <scstep>
   <time name="total">    0.89    0.89</time>
   <energy>
    <i name="e_fr_energy">      0.16018709 </i>
    <i name="e_wo_entrp">      0.16018709 </i>
    <i name="e_0_energy">      0.16018709 </i>
   </energy>
  </scstep>
  <scstep>
   <time name="total">    0.88    0.88</time>
   <energy>
    <i name="e_fr_energy">     -2.49697236 </i>
    <i name="e_wo_entrp">     -2.48135430 </i>
    <i name="e_0_energy">     -2.48916333 </i>
   </energy>
  </scstep>
  <scstep>
   <time name="total">    0.90    0.91</time>
   <energy>
    <i name="e_fr_energy">     -4.83906403 </i>
    <i name="e_wo_entrp">     -4.80835265 </i>
    <i name="e_0_energy">     -4.82370834 </i>
   </energy>
  </scstep>
  <scstep>
   <time name="total">    0.89    0.89</time>
   <energy>
    <i name="e_fr_energy">     -0.67467527 </i>
    <i name="e_wo_entrp">     -0.67467527 </i>
    <i name="e_0_energy">     -0.67467527 </i>
   </energy>
  </scstep>
  <scstep>
   <time name="total">    0.89    0.89</time>
   <energy>
    <i name="e_fr_energy">     -2.88459480 </i>
    <i name="e_wo_entrp">     -2.84699842 </i>
    <i name="e_0_energy">     -2.86579661 </i>
   </energy>
  </scstep>
  <scstep>
   <time name="total">    0.89    0.89</time>
   <energy>
    <i name="e_fr_energy">     -4.11803484 </i>
    <i name="e_wo_entrp">     -4.11700793 </i>
    <i name="e_0_energy">     -4.11752139 </i>
   </energy>
  </scstep>
  <scstep>
   <time name="total">    0.89    0.89</time>
   <energy>
    <i name="e_fr_energy">     -4.72942264 </i>
    <i name="e_wo_entrp">     -4.69264264 </i>
    <i name="e_0_energy">     -4.71103264 </i>
   </energy>
  </scstep>
  <scstep>
   <time name="total">    0.90    0.90</time>
   <energy>
    <i name="e_fr_energy">     -4.18018259 </i>
    <i name="e_wo_entrp">     -4.18018259 </i>
    <i name="e_0_energy">     -4.18018259 </i>
   </energy>
  </scstep>
  <scstep>
   <time name="total">    0.89    0.89</time>
   <energy>
    <i name="e_fr_energy">     -4.74016453 </i>
    <i name="e_wo_entrp">     -4.74016452 </i>
    <i name="e_0_energy">     -4.74016452 </i>
   </energy>
  </scstep>
  <scstep>
   <time name="total">    0.89    0.90</time>
   <energy>
    <i name="e_fr_energy">     -5.09608047 </i>
    <i name="e_wo_entrp">     -5.09606553 </i>
    <i name="e_0_energy">     -5.09607300 </i>
   </energy>
  </scstep>
  <scstep>
   <time name="total">    0.90    0.90</time>
   <energy>
    <i name="e_fr_energy">     -5.11643292 </i>
    <i name="e_wo_entrp">     -5.11643261 </i>
    <i name="e_0_energy">     -5.11643276 </i>
   </energy>
  </scstep>
  <scstep>
   <time name="total">    0.89    0.89</time>
   <energy>
    <i name="e_fr_energy">     -5.13381843 </i>
    <i name="e_wo_entrp">     -5.13381843 </i>
    <i name="e_0_energy">     -5.13381843 </i>
   </energy>
  </scstep>
  <scstep>
   <time name="total">    0.89    0.89</time>
   <energy>
    <i name="e_fr_energy">     -5.15104282 </i>
    <i name="e_wo_entrp">     -5.15104282 </i>
    <i name="e_0_energy">     -5.15104282 </i>
   </energy>
  </scstep>
  <scstep>
   <time name="total">    0.88    0.88</time>
   <energy>
    <i name="e_fr_energy">     -5.15184098 </i>
    <i name="e_wo_entrp">     -5.15184098 </i>
    <i name="e_0_energy">     -5.15184098 </i>
   </energy>
  </scstep>
  <scstep>
   <time name="total">    0.88    0.89</time>
   <energy>
    <i name="e_fr_energy">     -5.15390201 </i>
    <i name="e_wo_entrp">     -5.15390201 </i>
    <i name="e_0_energy">     -5.15390201 </i>
   </energy>
  </scstep>
  <scstep>
   <time name="total">    0.89    0.90</time>
   <energy>
    <i name="e_fr_energy">     -5.15450868 </i>
    <i name="e_wo_entrp">     -5.15450868 </i>
    <i name="e_0_energy">     -5.15450868 </i>
   </energy>
  </scstep>
  <scstep>
   <time name="total">    0.89    0.89</time>
   <energy>
    <i name="e_fr_energy">     -5.15460351 </i>
    <i name="e_wo_entrp">     -5.15460351 </i>
    <i name="e_0_energy">     -5.15460351 </i>
   </energy>
  </scstep>
  <scstep>
   <time name="total">    0.88    0.89</time>
   <energy>
    <i name="e_fr_energy">     -5.15470368 </i>
    <i name="e_wo_entrp">     -5.15470368 </i>
    <i name="e_0_energy">     -5.15470368 </i>
   </energy>
  </scstep>
  <scstep>
   <time name="total">    0.93    0.93</time>
   <energy>
    <i name="alphaZ">      1.20587074 </i>
    <i name="ewald">   -345.23725609 </i>
    <i name="hartreedc">  -1324.65571940 </i>
    <i name="XCdc">     67.02458253 </i>
    <i name="pawpsdc">   1704.18547171 </i>
    <i name="pawaedc">  -1762.68785059 </i>
    <i name="eentropy">     -0.00000000 </i>
    <i name="bandstr">   -370.25045150 </i>
    <i name="atom">   2025.26062208 </i>
    <i name="e_fr_energy">     -5.15473052 </i>
    <i name="e_wo_entrp">     -5.15473052 </i>
    <i name="e_0_energy">     -5.15473052 </i>
   </energy>
  </scstep>
  <structure>
   <crystal>
    <varray name="basis" >
     <v>      10.00000000       0.00000000       0.00000000 </v>
     <v>       0.00000000      10.00000000       0.00000000 </v>
     <v>       0.00000000       0.00000000      10.00000000 </v>
    </varray>
    <i name="volume">   1000.00000000 </i>
    <varray name="rec_basis" >
     <v>       0.10000000       0.00000000       0.00000000 </v>
     <v>       0.00000000       0.10000000       0.00000000 </v>
     <v>       0.00000000       0.00000000       0.10000000 </v>
    </varray>
   </crystal>
   <varray name="positions" >
    <v>       0.50000000       0.50000000       0.50000000 </v>
   </varray>
  </structure>
  <varray name="forces" >
   <v>       0.00000000       0.00000000       0.00000000 </v>
  </varray>
  <varray name="stress" >
   <v>      -0.09849366      -0.00000000      -0.00000000 </v>
   <v>       0.00000000      -0.09849366      -0.00000000 </v>
   <v>       0.00000000      -0.00000000      -0.09849366 </v>
  </varray>
  <energy>
   <i name="e_fr_energy">     -5.15473052 </i>
   <i name="e_wo_entrp">     -5.15473052 </i>
   <i name="e_0_energy">     -0.00000000 </i>
  </energy>
  <time name="totalsc">   38.29   38.44</time>
  <eigenvalues>
   <array>
    <dimension dim="1">band</dimension>
    <dimension dim="2">kpoint</dimension>
    <dimension dim="3">spin</dimension>
    <field>eigene</field>
    <field>occ</field>
    <set>
     <set comment="spin 1">
      <set comment="kpoint 1">
       <r>  -55.9632    1.0000 </r>
       <r>  -55.9632    1.0000 </r>
       <r>  -55.9632    1.0000 </r>
       <r>   -8.0100    1.0000 </r>
       <r>   -8.0100    1.0000 </r>
       <r>   -8.0100    1.0000 </r>
       <r>   -8.0098    1.0000 </r>
       <r>   -8.0098    1.0000 </r>
       <r>   -5.2862    1.0000 </r>
       <r>   -1.2844    0.0000 </r>
       <r>   -1.2844    0.0000 </r>
       <r>   -1.2843    0.0000 </r>
       <r>   -0.1820    0.0000 </r>
       <r>    0.9057    0.0000 </r>
       <r>    0.9057    0.0000 </r>
       <r>    1.5883    0.0000 </r>
       <r>    1.5883    0.0000 </r>
       <r>    1.5886    0.0000 </r>
       <r>    1.7381    0.0000 </r>
       <r>    1.9521    0.0000 </r>
       <r>    1.9521    0.0000 </r>
       <r>    1.9521    0.0000 </r>
       <r>    2.5471    0.0000 </r>
       <r>    2.5471    0.0000 </r>
       <r>    2.5472    0.0000 </r>
       <r>    2.5531    0.0000 </r>
       <r>    2.5537    0.0000 </r>
       <r>    3.4696    0.0000 </r>
       <r>    3.4700    0.0000 </r>
       <r>    3.4770    0.0000 </r>
       <r>    3.7528    0.0000 </r>
       <r>    3.7656    0.0000 </r>
       <r>    3.8024    0.0000 </r>
       <r>    3.8158    0.0000 </r>
       <r>    3.8178    0.0000 </r>
       <r>    4.5929    0.0000 </r>
      </set>
     </set>
     <set comment="spin 2">
      <set comment="kpoint 1">
       <r>  -50.9276    1.0000 </r>
       <r>  -50.9276    1.0000 </r>
       <r>  -50.9276    1.0000 </r>
       <r>   -4.2423    1.0000 </r>
       <r>   -3.6284    0.0000 </r>
       <r>   -3.6284    0.0000 </r>
       <r>   -3.6275    0.0000 </r>
       <r>   -3.6275    0.0000 </r>
       <r>   -3.6275    0.0000 </r>
       <r>   -0.8813    0.0000 </r>
       <r>   -0.8812    0.0000 </r>
       <r>   -0.8812    0.0000 </r>
       <r>   -0.2386    0.0000 </r>
       <r>    0.8008    0.0000 </r>
       <r>    0.8008    0.0000 </r>
       <r>    1.5432    0.0000 </r>
       <r>    1.5432    0.0000 </r>
       <r>    1.5434    0.0000 </r>
       <r>    1.7260    0.0000 </r>
       <r>    1.9389    0.0000 </r>
       <r>    1.9389    0.0000 </r>
       <r>    1.9390    0.0000 </r>
       <r>    2.3862    0.0000 </r>
       <r>    2.3871    0.0000 </r>
       <r>    2.3876    0.0000 </r>
       <r>    2.4447    0.0000 </r>
       <r>    2.4450    0.0000 </r>
       <r>    3.4837    0.0000 </r>
       <r>    3.4860    0.0000 </r>
       <r>    3.5745    0.0000 </r>
       <r>    3.6602    0.0000 </r>
       <r>    3.7274    0.0000 </r>
       <r>    3.7308    0.0000 </r>
       <r>    3.7384    0.0000 </r>
       <r>    3.8728    0.0000 </r>
       <r>    4.6357    0.0000 </r>
      </set>
     </set>
    </set>
   </array>
  </eigenvalues>
  <separator name="orbital magnetization" >
   <v name="MAGDIPOLOUT">      0.00000000      0.00000000      0.00000000</v>
  </separator>
  <dos>
   <i name="efermi">     -3.95799087 </i>
   <total>
    <array>
     <dimension dim="1">gridpoints</dimension>
     <dimension dim="2">spin</dimension>
     <field>energy</field>
     <field>total</field>
     <field>integrated</field>
     <set>
      <set comment="spin 1">
       <r>   -58.9931     0.0000     0.0000 </r>
       <r>   -58.7709     0.0000     0.0000 </r>
       <r>   -58.5487     0.0000     0.0000 </r>
       <r>   -58.3266     0.0000     0.0000 </r>
       <r>   -58.1044     0.0000     0.0000 </r>
       <r>   -57.8822     0.0000     0.0000 </r>
       <r>   -57.6600     0.0000     0.0000 </r>
       <r>   -57.4378     0.0000     0.0000 </r>
       <r>   -57.2156     0.0000     0.0000 </r>
       <r>   -56.9934     0.0000     0.0000 </r>
       <r>   -56.7712     0.0000     0.0000 </r>
       <r>   -56.5490     0.0000     0.0000 </r>
       <r>   -56.3268     0.0000     0.0000 </r>
       <r>   -56.1046     0.0004     0.0001 </r>
       <r>   -55.8824    13.3507     2.9666 </r>
       <r>   -55.6602     0.1505     3.0000 </r>
       <r>   -55.4380     0.0000     3.0000 </r>
       <r>   -55.2158     0.0000     3.0000 </r>
       <r>   -54.9936     0.0000     3.0000 </r>
       <r>   -54.7714     0.0000     3.0000 </r>
       <r>   -54.5492     0.0000     3.0000 </r>
       <r>   -54.3270     0.0000     3.0000 </r>
       <r>   -54.1048     0.0000     3.0000 </r>
       <r>   -53.8826     0.0000     3.0000 </r>
       <r>   -53.6604     0.0000     3.0000 </r>
       <r>   -53.4382     0.0000     3.0000 </r>
       <r>   -53.2160     0.0000     3.0000 </r>
       <r>   -52.9938     0.0000     3.0000 </r>
       <r>   -52.7717     0.0000     3.0000 </r>
       <r>   -52.5495     0.0000     3.0000 </r>
       <r>   -52.3273     0.0000     3.0000 </r>
       <r>   -52.1051     0.0000     3.0000 </r>
       <r>   -51.8829     0.0000     3.0000 </r>
       <r>   -51.6607     0.0000     3.0000 </r>
       <r>   -51.4385     0.0000     3.0000 </r>
       <r>   -51.2163     0.0000     3.0000 </r>
       <r>   -50.9941     0.0000     3.0000 </r>
       <r>   -50.7719     0.0000     3.0000 </r>
       <r>   -50.5497     0.0000     3.0000 </r>
       <r>   -50.3275     0.0000     3.0000 </r>
       <r>   -50.1053     0.0000     3.0000 </r>
       <r>   -49.8831     0.0000     3.0000 </r>
       <r>   -49.6609     0.0000     3.0000 </r>
       <r>   -49.4387     0.0000     3.0000 </r>
       <r>   -49.2165     0.0000     3.0000 </r>
       <r>   -48.9943     0.0000     3.0000 </r>
       <r>   -48.7721     0.0000     3.0000 </r>
       <r>   -48.5499     0.0000     3.0000 </r>
       <r>   -48.3277     0.0000     3.0000 </r>
       <r>   -48.1055     0.0000     3.0000 </r>
       <r>   -47.8833     0.0000     3.0000 </r>
       <r>   -47.6611     0.0000     3.0000 </r>
       <r>   -47.4390     0.0000     3.0000 </r>
       <r>   -47.2168     0.0000     3.0000 </r>
       <r>   -46.9946     0.0000     3.0000 </r>
       <r>   -46.7724     0.0000     3.0000 </r>
       <r>   -46.5502     0.0000     3.0000 </r>
       <r>   -46.3280     0.0000     3.0000 </r>
       <r>   -46.1058     0.0000     3.0000 </r>
       <r>   -45.8836     0.0000     3.0000 </r>
       <r>   -45.6614     0.0000     3.0000 </r>
       <r>   -45.4392     0.0000     3.0000 </r>
       <r>   -45.2170     0.0000     3.0000 </r>
       <r>   -44.9948     0.0000     3.0000 </r>
       <r>   -44.7726     0.0000     3.0000 </r>
       <r>   -44.5504     0.0000     3.0000 </r>
       <r>   -44.3282     0.0000     3.0000 </r>
       <r>   -44.1060     0.0000     3.0000 </r>
       <r>   -43.8838     0.0000     3.0000 </r>
       <r>   -43.6616     0.0000     3.0000 </r>
       <r>   -43.4394     0.0000     3.0000 </r>
       <r>   -43.2172     0.0000     3.0000 </r>
       <r>   -42.9950     0.0000     3.0000 </r>
       <r>   -42.7728     0.0000     3.0000 </r>
       <r>   -42.5506     0.0000     3.0000 </r>
       <r>   -42.3284     0.0000     3.0000 </r>
       <r>   -42.1063     0.0000     3.0000 </r>
       <r>   -41.8841     0.0000     3.0000 </r>
       <r>   -41.6619     0.0000     3.0000 </r>
       <r>   -41.4397     0.0000     3.0000 </r>
       <r>   -41.2175     0.0000     3.0000 </r>
       <r>   -40.9953     0.0000     3.0000 </r>
       <r>   -40.7731     0.0000     3.0000 </r>
       <r>   -40.5509     0.0000     3.0000 </r>
       <r>   -40.3287     0.0000     3.0000 </r>
       <r>   -40.1065     0.0000     3.0000 </r>
       <r>   -39.8843     0.0000     3.0000 </r>
       <r>   -39.6621     0.0000     3.0000 </r>
       <r>   -39.4399     0.0000     3.0000 </r>
       <r>   -39.2177     0.0000     3.0000 </r>
       <r>   -38.9955     0.0000     3.0000 </r>
       <r>   -38.7733     0.0000     3.0000 </r>
       <r>   -38.5511     0.0000     3.0000 </r>
       <r>   -38.3289     0.0000     3.0000 </r>
       <r>   -38.1067     0.0000     3.0000 </r>
       <r>   -37.8845     0.0000     3.0000 </r>
       <r>   -37.6623     0.0000     3.0000 </r>
       <r>   -37.4401     0.0000     3.0000 </r>
       <r>   -37.2179     0.0000     3.0000 </r>
       <r>   -36.9957     0.0000     3.0000 </r>
       <r>   -36.7735     0.0000     3.0000 </r>
       <r>   -36.5514     0.0000     3.0000 </r>
       <r>   -36.3292     0.0000     3.0000 </r>
       <r>   -36.1070     0.0000     3.0000 </r>
       <r>   -35.8848     0.0000     3.0000 </r>
       <r>   -35.6626     0.0000     3.0000 </r>
       <r>   -35.4404     0.0000     3.0000 </r>
       <r>   -35.2182     0.0000     3.0000 </r>
       <r>   -34.9960     0.0000     3.0000 </r>
       <r>   -34.7738     0.0000     3.0000 </r>
       <r>   -34.5516     0.0000     3.0000 </r>
       <r>   -34.3294     0.0000     3.0000 </r>
       <r>   -34.1072     0.0000     3.0000 </r>
       <r>   -33.8850     0.0000     3.0000 </r>
       <r>   -33.6628     0.0000     3.0000 </r>
       <r>   -33.4406     0.0000     3.0000 </r>
       <r>   -33.2184     0.0000     3.0000 </r>
       <r>   -32.9962     0.0000     3.0000 </r>
       <r>   -32.7740     0.0000     3.0000 </r>
       <r>   -32.5518     0.0000     3.0000 </r>
       <r>   -32.3296     0.0000     3.0000 </r>
       <r>   -32.1074     0.0000     3.0000 </r>
       <r>   -31.8852     0.0000     3.0000 </r>
       <r>   -31.6630     0.0000     3.0000 </r>
       <r>   -31.4408     0.0000     3.0000 </r>
       <r>   -31.2187     0.0000     3.0000 </r>
       <r>   -30.9965     0.0000     3.0000 </r>
       <r>   -30.7743     0.0000     3.0000 </r>
       <r>   -30.5521     0.0000     3.0000 </r>
       <r>   -30.3299     0.0000     3.0000 </r>
       <r>   -30.1077     0.0000     3.0000 </r>
       <r>   -29.8855     0.0000     3.0000 </r>
       <r>   -29.6633     0.0000     3.0000 </r>
       <r>   -29.4411     0.0000     3.0000 </r>
       <r>   -29.2189     0.0000     3.0000 </r>
       <r>   -28.9967     0.0000     3.0000 </r>
       <r>   -28.7745     0.0000     3.0000 </r>
       <r>   -28.5523     0.0000     3.0000 </r>
       <r>   -28.3301     0.0000     3.0000 </r>
       <r>   -28.1079     0.0000     3.0000 </r>
       <r>   -27.8857     0.0000     3.0000 </r>
       <r>   -27.6635     0.0000     3.0000 </r>
       <r>   -27.4413     0.0000     3.0000 </r>
       <r>   -27.2191     0.0000     3.0000 </r>
       <r>   -26.9969     0.0000     3.0000 </r>
       <r>   -26.7747     0.0000     3.0000 </r>
       <r>   -26.5525     0.0000     3.0000 </r>
       <r>   -26.3303     0.0000     3.0000 </r>
       <r>   -26.1081     0.0000     3.0000 </r>
       <r>   -25.8859     0.0000     3.0000 </r>
       <r>   -25.6638     0.0000     3.0000 </r>
       <r>   -25.4416     0.0000     3.0000 </r>
       <r>   -25.2194     0.0000     3.0000 </r>
       <r>   -24.9972     0.0000     3.0000 </r>
       <r>   -24.7750     0.0000     3.0000 </r>
       <r>   -24.5528     0.0000     3.0000 </r>
       <r>   -24.3306     0.0000     3.0000 </r>
       <r>   -24.1084     0.0000     3.0000 </r>
       <r>   -23.8862     0.0000     3.0000 </r>
       <r>   -23.6640     0.0000     3.0000 </r>
       <r>   -23.4418     0.0000     3.0000 </r>
       <r>   -23.2196     0.0000     3.0000 </r>
       <r>   -22.9974     0.0000     3.0000 </r>
       <r>   -22.7752     0.0000     3.0000 </r>
       <r>   -22.5530     0.0000     3.0000 </r>
       <r>   -22.3308     0.0000     3.0000 </r>
       <r>   -22.1086     0.0000     3.0000 </r>
       <r>   -21.8864     0.0000     3.0000 </r>
       <r>   -21.6642     0.0000     3.0000 </r>
       <r>   -21.4420     0.0000     3.0000 </r>
       <r>   -21.2198     0.0000     3.0000 </r>
       <r>   -20.9976     0.0000     3.0000 </r>
       <r>   -20.7754     0.0000     3.0000 </r>
       <r>   -20.5532     0.0000     3.0000 </r>
       <r>   -20.3311     0.0000     3.0000 </r>
       <r>   -20.1089     0.0000     3.0000 </r>
       <r>   -19.8867     0.0000     3.0000 </r>
       <r>   -19.6645     0.0000     3.0000 </r>
       <r>   -19.4423     0.0000     3.0000 </r>
       <r>   -19.2201     0.0000     3.0000 </r>
       <r>   -18.9979     0.0000     3.0000 </r>
       <r>   -18.7757     0.0000     3.0000 </r>
       <r>   -18.5535     0.0000     3.0000 </r>
       <r>   -18.3313     0.0000     3.0000 </r>
       <r>   -18.1091     0.0000     3.0000 </r>
       <r>   -17.8869     0.0000     3.0000 </r>
       <r>   -17.6647     0.0000     3.0000 </r>
       <r>   -17.4425     0.0000     3.0000 </r>
       <r>   -17.2203     0.0000     3.0000 </r>
       <r>   -16.9981     0.0000     3.0000 </r>
       <r>   -16.7759     0.0000     3.0000 </r>
       <r>   -16.5537     0.0000     3.0000 </r>
       <r>   -16.3315     0.0000     3.0000 </r>
       <r>   -16.1093     0.0000     3.0000 </r>
       <r>   -15.8871     0.0000     3.0000 </r>
       <r>   -15.6649     0.0000     3.0000 </r>
       <r>   -15.4427     0.0000     3.0000 </r>
       <r>   -15.2205     0.0000     3.0000 </r>
       <r>   -14.9983     0.0000     3.0000 </r>
       <r>   -14.7762     0.0000     3.0000 </r>
       <r>   -14.5540     0.0000     3.0000 </r>
       <r>   -14.3318     0.0000     3.0000 </r>
       <r>   -14.1096     0.0000     3.0000 </r>
       <r>   -13.8874     0.0000     3.0000 </r>
       <r>   -13.6652     0.0000     3.0000 </r>
       <r>   -13.4430     0.0000     3.0000 </r>
       <r>   -13.2208     0.0000     3.0000 </r>
       <r>   -12.9986     0.0000     3.0000 </r>
       <r>   -12.7764     0.0000     3.0000 </r>
       <r>   -12.5542     0.0000     3.0000 </r>
       <r>   -12.3320     0.0000     3.0000 </r>
       <r>   -12.1098     0.0000     3.0000 </r>
       <r>   -11.8876     0.0000     3.0000 </r>
       <r>   -11.6654     0.0000     3.0000 </r>
       <r>   -11.4432     0.0000     3.0000 </r>
       <r>   -11.2210     0.0000     3.0000 </r>
       <r>   -10.9988     0.0000     3.0000 </r>
       <r>   -10.7766     0.0000     3.0000 </r>
       <r>   -10.5544     0.0000     3.0000 </r>
       <r>   -10.3322     0.0000     3.0000 </r>
       <r>   -10.1100     0.0000     3.0000 </r>
       <r>    -9.8878     0.0000     3.0000 </r>
       <r>    -9.6656     0.0000     3.0000 </r>
       <r>    -9.4435     0.0000     3.0000 </r>
       <r>    -9.2213     0.0000     3.0000 </r>
       <r>    -8.9991     0.0000     3.0000 </r>
       <r>    -8.7769     0.0000     3.0000 </r>
       <r>    -8.5547     0.0000     3.0000 </r>
       <r>    -8.3325     0.0000     3.0000 </r>
       <r>    -8.1103     0.0509     3.0113 </r>
       <r>    -7.8881    22.4453     7.9986 </r>
       <r>    -7.6659     0.0064     8.0000 </r>
       <r>    -7.4437     0.0000     8.0000 </r>
       <r>    -7.2215     0.0000     8.0000 </r>
       <r>    -6.9993     0.0000     8.0000 </r>
       <r>    -6.7771     0.0000     8.0000 </r>
       <r>    -6.5549     0.0000     8.0000 </r>
       <r>    -6.3327     0.0000     8.0000 </r>
       <r>    -6.1105     0.0000     8.0000 </r>
       <r>    -5.8883     0.0000     8.0000 </r>
       <r>    -5.6661     0.0000     8.0000 </r>
       <r>    -5.4439     0.0000     8.0000 </r>
       <r>    -5.2217     4.3470     8.9659 </r>
       <r>    -4.9995     0.1535     9.0000 </r>
       <r>    -4.7773     0.0000     9.0000 </r>
       <r>    -4.5551     0.0000     9.0000 </r>
       <r>    -4.3329     0.0000     9.0000 </r>
       <r>    -4.1108     0.0000     9.0000 </r>
       <r>    -3.8886     0.0000     9.0000 </r>
       <r>    -3.6664     0.0000     9.0000 </r>
       <r>    -3.4442     0.0000     9.0000 </r>
       <r>    -3.2220     0.0000     9.0000 </r>
       <r>    -2.9998     0.0000     9.0000 </r>
       <r>    -2.7776     0.0000     9.0000 </r>
       <r>    -2.5554     0.0000     9.0000 </r>
       <r>    -2.3332     0.0000     9.0000 </r>
       <r>    -2.1110     0.0000     9.0000 </r>
       <r>    -1.8888     0.0000     9.0000 </r>
       <r>    -1.6666     0.0000     9.0000 </r>
       <r>    -1.4444     0.0000     9.0000 </r>
       <r>    -1.2222    12.9700    11.8819 </r>
       <r>    -1.0000     0.5315    12.0000 </r>
       <r>    -0.7778     0.0000    12.0000 </r>
       <r>    -0.5556     0.0000    12.0000 </r>
       <r>    -0.3334     0.0000    12.0000 </r>
       <r>    -0.1112     4.3983    12.9773 </r>
       <r>     0.1110     0.1022    13.0000 </r>
       <r>     0.3332     0.0000    13.0000 </r>
       <r>     0.5554     0.0000    13.0000 </r>
       <r>     0.7776     0.0013    13.0003 </r>
       <r>     0.9998     8.9647    14.9922 </r>
       <r>     1.2220     0.0350    15.0000 </r>
       <r>     1.4441     0.0003    15.0001 </r>
       <r>     1.6663    13.4111    17.9800 </r>
       <r>     1.8885     5.0775    19.1082 </r>
       <r>     2.1107    13.0147    22.0000 </r>
       <r>     2.3329     0.0000    22.0000 </r>
       <r>     2.5551    12.6377    24.8080 </r>
       <r>     2.7773     9.8650    27.0000 </r>
       <r>     2.9995     0.0000    27.0000 </r>
       <r>     3.2217     0.0000    27.0000 </r>
       <r>     3.4439     2.8753    27.6389 </r>
       <r>     3.6661    10.6696    30.0096 </r>
       <r>     3.8883    22.2290    34.9488 </r>
       <r>     4.1105     0.2303    35.0000 </r>
       <r>     4.3327     0.0000    35.0000 </r>
       <r>     4.5549     0.6341    35.1409 </r>
       <r>     4.7771     3.8664    36.0000 </r>
       <r>     4.9993     0.0000    36.0000 </r>
       <r>     5.2215     0.0000    36.0000 </r>
       <r>     5.4437     0.0000    36.0000 </r>
       <r>     5.6659     0.0000    36.0000 </r>
       <r>     5.8881     0.0000    36.0000 </r>
       <r>     6.1103     0.0000    36.0000 </r>
       <r>     6.3325     0.0000    36.0000 </r>
       <r>     6.5547     0.0000    36.0000 </r>
       <r>     6.7768     0.0000    36.0000 </r>
       <r>     6.9990     0.0000    36.0000 </r>
       <r>     7.2212     0.0000    36.0000 </r>
       <r>     7.4434     0.0000    36.0000 </r>
       <r>     7.6656     0.0000    36.0000 </r>
      </set>
      <set comment="spin 2">
       <r>   -58.9931     0.0000     0.0000 </r>
       <r>   -58.7709     0.0000     0.0000 </r>
       <r>   -58.5487     0.0000     0.0000 </r>
       <r>   -58.3266     0.0000     0.0000 </r>
       <r>   -58.1044     0.0000     0.0000 </r>
       <r>   -57.8822     0.0000     0.0000 </r>
       <r>   -57.6600     0.0000     0.0000 </r>
       <r>   -57.4378     0.0000     0.0000 </r>
       <r>   -57.2156     0.0000     0.0000 </r>
       <r>   -56.9934     0.0000     0.0000 </r>
       <r>   -56.7712     0.0000     0.0000 </r>
       <r>   -56.5490     0.0000     0.0000 </r>
       <r>   -56.3268     0.0000     0.0000 </r>
       <r>   -56.1046     0.0000     0.0000 </r>
       <r>   -55.8824     0.0000     0.0000 </r>
       <r>   -55.6602     0.0000     0.0000 </r>
       <r>   -55.4380     0.0000     0.0000 </r>
       <r>   -55.2158     0.0000     0.0000 </r>
       <r>   -54.9936     0.0000     0.0000 </r>
       <r>   -54.7714     0.0000     0.0000 </r>
       <r>   -54.5492     0.0000     0.0000 </r>
       <r>   -54.3270     0.0000     0.0000 </r>
       <r>   -54.1048     0.0000     0.0000 </r>
       <r>   -53.8826     0.0000     0.0000 </r>
       <r>   -53.6604     0.0000     0.0000 </r>
       <r>   -53.4382     0.0000     0.0000 </r>
       <r>   -53.2160     0.0000     0.0000 </r>
       <r>   -52.9938     0.0000     0.0000 </r>
       <r>   -52.7717     0.0000     0.0000 </r>
       <r>   -52.5495     0.0000     0.0000 </r>
       <r>   -52.3273     0.0000     0.0000 </r>
       <r>   -52.1051     0.0000     0.0000 </r>
       <r>   -51.8829     0.0000     0.0000 </r>
       <r>   -51.6607     0.0000     0.0000 </r>
       <r>   -51.4385     0.0000     0.0000 </r>
       <r>   -51.2163     0.0000     0.0000 </r>
       <r>   -50.9941     0.4054     0.0901 </r>
       <r>   -50.7719    13.0961     3.0000 </r>
       <r>   -50.5497     0.0001     3.0000 </r>
       <r>   -50.3275     0.0000     3.0000 </r>
       <r>   -50.1053     0.0000     3.0000 </r>
       <r>   -49.8831     0.0000     3.0000 </r>
       <r>   -49.6609     0.0000     3.0000 </r>
       <r>   -49.4387     0.0000     3.0000 </r>
       <r>   -49.2165     0.0000     3.0000 </r>
       <r>   -48.9943     0.0000     3.0000 </r>
       <r>   -48.7721     0.0000     3.0000 </r>
       <r>   -48.5499     0.0000     3.0000 </r>
       <r>   -48.3277     0.0000     3.0000 </r>
       <r>   -48.1055     0.0000     3.0000 </r>
       <r>   -47.8833     0.0000     3.0000 </r>
       <r>   -47.6611     0.0000     3.0000 </r>
       <r>   -47.4390     0.0000     3.0000 </r>
       <r>   -47.2168     0.0000     3.0000 </r>
       <r>   -46.9946     0.0000     3.0000 </r>
       <r>   -46.7724     0.0000     3.0000 </r>
       <r>   -46.5502     0.0000     3.0000 </r>
       <r>   -46.3280     0.0000     3.0000 </r>
       <r>   -46.1058     0.0000     3.0000 </r>
       <r>   -45.8836     0.0000     3.0000 </r>
       <r>   -45.6614     0.0000     3.0000 </r>
       <r>   -45.4392     0.0000     3.0000 </r>
       <r>   -45.2170     0.0000     3.0000 </r>
       <r>   -44.9948     0.0000     3.0000 </r>
       <r>   -44.7726     0.0000     3.0000 </r>
       <r>   -44.5504     0.0000     3.0000 </r>
       <r>   -44.3282     0.0000     3.0000 </r>
       <r>   -44.1060     0.0000     3.0000 </r>
       <r>   -43.8838     0.0000     3.0000 </r>
       <r>   -43.6616     0.0000     3.0000 </r>
       <r>   -43.4394     0.0000     3.0000 </r>
       <r>   -43.2172     0.0000     3.0000 </r>
       <r>   -42.9950     0.0000     3.0000 </r>
       <r>   -42.7728     0.0000     3.0000 </r>
       <r>   -42.5506     0.0000     3.0000 </r>
       <r>   -42.3284     0.0000     3.0000 </r>
       <r>   -42.1063     0.0000     3.0000 </r>
       <r>   -41.8841     0.0000     3.0000 </r>
       <r>   -41.6619     0.0000     3.0000 </r>
       <r>   -41.4397     0.0000     3.0000 </r>
       <r>   -41.2175     0.0000     3.0000 </r>
       <r>   -40.9953     0.0000     3.0000 </r>
       <r>   -40.7731     0.0000     3.0000 </r>
       <r>   -40.5509     0.0000     3.0000 </r>
       <r>   -40.3287     0.0000     3.0000 </r>
       <r>   -40.1065     0.0000     3.0000 </r>
       <r>   -39.8843     0.0000     3.0000 </r>
       <r>   -39.6621     0.0000     3.0000 </r>
       <r>   -39.4399     0.0000     3.0000 </r>
       <r>   -39.2177     0.0000     3.0000 </r>
       <r>   -38.9955     0.0000     3.0000 </r>
       <r>   -38.7733     0.0000     3.0000 </r>
       <r>   -38.5511     0.0000     3.0000 </r>
       <r>   -38.3289     0.0000     3.0000 </r>
       <r>   -38.1067     0.0000     3.0000 </r>
       <r>   -37.8845     0.0000     3.0000 </r>
       <r>   -37.6623     0.0000     3.0000 </r>
       <r>   -37.4401     0.0000     3.0000 </r>
       <r>   -37.2179     0.0000     3.0000 </r>
       <r>   -36.9957     0.0000     3.0000 </r>
       <r>   -36.7735     0.0000     3.0000 </r>
       <r>   -36.5514     0.0000     3.0000 </r>
       <r>   -36.3292     0.0000     3.0000 </r>
       <r>   -36.1070     0.0000     3.0000 </r>
       <r>   -35.8848     0.0000     3.0000 </r>
       <r>   -35.6626     0.0000     3.0000 </r>
       <r>   -35.4404     0.0000     3.0000 </r>
       <r>   -35.2182     0.0000     3.0000 </r>
       <r>   -34.9960     0.0000     3.0000 </r>
       <r>   -34.7738     0.0000     3.0000 </r>
       <r>   -34.5516     0.0000     3.0000 </r>
       <r>   -34.3294     0.0000     3.0000 </r>
       <r>   -34.1072     0.0000     3.0000 </r>
       <r>   -33.8850     0.0000     3.0000 </r>
       <r>   -33.6628     0.0000     3.0000 </r>
       <r>   -33.4406     0.0000     3.0000 </r>
       <r>   -33.2184     0.0000     3.0000 </r>
       <r>   -32.9962     0.0000     3.0000 </r>
       <r>   -32.7740     0.0000     3.0000 </r>
       <r>   -32.5518     0.0000     3.0000 </r>
       <r>   -32.3296     0.0000     3.0000 </r>
       <r>   -32.1074     0.0000     3.0000 </r>
       <r>   -31.8852     0.0000     3.0000 </r>
       <r>   -31.6630     0.0000     3.0000 </r>
       <r>   -31.4408     0.0000     3.0000 </r>
       <r>   -31.2187     0.0000     3.0000 </r>
       <r>   -30.9965     0.0000     3.0000 </r>
       <r>   -30.7743     0.0000     3.0000 </r>
       <r>   -30.5521     0.0000     3.0000 </r>
       <r>   -30.3299     0.0000     3.0000 </r>
       <r>   -30.1077     0.0000     3.0000 </r>
       <r>   -29.8855     0.0000     3.0000 </r>
       <r>   -29.6633     0.0000     3.0000 </r>
       <r>   -29.4411     0.0000     3.0000 </r>
       <r>   -29.2189     0.0000     3.0000 </r>
       <r>   -28.9967     0.0000     3.0000 </r>
       <r>   -28.7745     0.0000     3.0000 </r>
       <r>   -28.5523     0.0000     3.0000 </r>
       <r>   -28.3301     0.0000     3.0000 </r>
       <r>   -28.1079     0.0000     3.0000 </r>
       <r>   -27.8857     0.0000     3.0000 </r>
       <r>   -27.6635     0.0000     3.0000 </r>
       <r>   -27.4413     0.0000     3.0000 </r>
       <r>   -27.2191     0.0000     3.0000 </r>
       <r>   -26.9969     0.0000     3.0000 </r>
       <r>   -26.7747     0.0000     3.0000 </r>
       <r>   -26.5525     0.0000     3.0000 </r>
       <r>   -26.3303     0.0000     3.0000 </r>
       <r>   -26.1081     0.0000     3.0000 </r>
       <r>   -25.8859     0.0000     3.0000 </r>
       <r>   -25.6638     0.0000     3.0000 </r>
       <r>   -25.4416     0.0000     3.0000 </r>
       <r>   -25.2194     0.0000     3.0000 </r>
       <r>   -24.9972     0.0000     3.0000 </r>
       <r>   -24.7750     0.0000     3.0000 </r>
       <r>   -24.5528     0.0000     3.0000 </r>
       <r>   -24.3306     0.0000     3.0000 </r>
       <r>   -24.1084     0.0000     3.0000 </r>
       <r>   -23.8862     0.0000     3.0000 </r>
       <r>   -23.6640     0.0000     3.0000 </r>
       <r>   -23.4418     0.0000     3.0000 </r>
       <r>   -23.2196     0.0000     3.0000 </r>
       <r>   -22.9974     0.0000     3.0000 </r>
       <r>   -22.7752     0.0000     3.0000 </r>
       <r>   -22.5530     0.0000     3.0000 </r>
       <r>   -22.3308     0.0000     3.0000 </r>
       <r>   -22.1086     0.0000     3.0000 </r>
       <r>   -21.8864     0.0000     3.0000 </r>
       <r>   -21.6642     0.0000     3.0000 </r>
       <r>   -21.4420     0.0000     3.0000 </r>
       <r>   -21.2198     0.0000     3.0000 </r>
       <r>   -20.9976     0.0000     3.0000 </r>
       <r>   -20.7754     0.0000     3.0000 </r>
       <r>   -20.5532     0.0000     3.0000 </r>
       <r>   -20.3311     0.0000     3.0000 </r>
       <r>   -20.1089     0.0000     3.0000 </r>
       <r>   -19.8867     0.0000     3.0000 </r>
       <r>   -19.6645     0.0000     3.0000 </r>
       <r>   -19.4423     0.0000     3.0000 </r>
       <r>   -19.2201     0.0000     3.0000 </r>
       <r>   -18.9979     0.0000     3.0000 </r>
       <r>   -18.7757     0.0000     3.0000 </r>
       <r>   -18.5535     0.0000     3.0000 </r>
       <r>   -18.3313     0.0000     3.0000 </r>
       <r>   -18.1091     0.0000     3.0000 </r>
       <r>   -17.8869     0.0000     3.0000 </r>
       <r>   -17.6647     0.0000     3.0000 </r>
       <r>   -17.4425     0.0000     3.0000 </r>
       <r>   -17.2203     0.0000     3.0000 </r>
       <r>   -16.9981     0.0000     3.0000 </r>
       <r>   -16.7759     0.0000     3.0000 </r>
       <r>   -16.5537     0.0000     3.0000 </r>
       <r>   -16.3315     0.0000     3.0000 </r>
       <r>   -16.1093     0.0000     3.0000 </r>
       <r>   -15.8871     0.0000     3.0000 </r>
       <r>   -15.6649     0.0000     3.0000 </r>
       <r>   -15.4427     0.0000     3.0000 </r>
       <r>   -15.2205     0.0000     3.0000 </r>
       <r>   -14.9983     0.0000     3.0000 </r>
       <r>   -14.7762     0.0000     3.0000 </r>
       <r>   -14.5540     0.0000     3.0000 </r>
       <r>   -14.3318     0.0000     3.0000 </r>
       <r>   -14.1096     0.0000     3.0000 </r>
       <r>   -13.8874     0.0000     3.0000 </r>
       <r>   -13.6652     0.0000     3.0000 </r>
       <r>   -13.4430     0.0000     3.0000 </r>
       <r>   -13.2208     0.0000     3.0000 </r>
       <r>   -12.9986     0.0000     3.0000 </r>
       <r>   -12.7764     0.0000     3.0000 </r>
       <r>   -12.5542     0.0000     3.0000 </r>
       <r>   -12.3320     0.0000     3.0000 </r>
       <r>   -12.1098     0.0000     3.0000 </r>
       <r>   -11.8876     0.0000     3.0000 </r>
       <r>   -11.6654     0.0000     3.0000 </r>
       <r>   -11.4432     0.0000     3.0000 </r>
       <r>   -11.2210     0.0000     3.0000 </r>
       <r>   -10.9988     0.0000     3.0000 </r>
       <r>   -10.7766     0.0000     3.0000 </r>
       <r>   -10.5544     0.0000     3.0000 </r>
       <r>   -10.3322     0.0000     3.0000 </r>
       <r>   -10.1100     0.0000     3.0000 </r>
       <r>    -9.8878     0.0000     3.0000 </r>
       <r>    -9.6656     0.0000     3.0000 </r>
       <r>    -9.4435     0.0000     3.0000 </r>
       <r>    -9.2213     0.0000     3.0000 </r>
       <r>    -8.9991     0.0000     3.0000 </r>
       <r>    -8.7769     0.0000     3.0000 </r>
       <r>    -8.5547     0.0000     3.0000 </r>
       <r>    -8.3325     0.0000     3.0000 </r>
       <r>    -8.1103     0.0000     3.0000 </r>
       <r>    -7.8881     0.0000     3.0000 </r>
       <r>    -7.6659     0.0000     3.0000 </r>
       <r>    -7.4437     0.0000     3.0000 </r>
       <r>    -7.2215     0.0000     3.0000 </r>
       <r>    -6.9993     0.0000     3.0000 </r>
       <r>    -6.7771     0.0000     3.0000 </r>
       <r>    -6.5549     0.0000     3.0000 </r>
       <r>    -6.3327     0.0000     3.0000 </r>
       <r>    -6.1105     0.0000     3.0000 </r>
       <r>    -5.8883     0.0000     3.0000 </r>
       <r>    -5.6661     0.0000     3.0000 </r>
       <r>    -5.4439     0.0000     3.0000 </r>
       <r>    -5.2217     0.0000     3.0000 </r>
       <r>    -4.9995     0.0000     3.0000 </r>
       <r>    -4.7773     0.0000     3.0000 </r>
       <r>    -4.5551     0.0000     3.0000 </r>
       <r>    -4.3329     0.0234     3.0052 </r>
       <r>    -4.1108     4.4767     3.9999 </r>
       <r>    -3.8886     0.0004     4.0000 </r>
       <r>    -3.6664     3.1026     4.6894 </r>
       <r>    -3.4442    19.4000     9.0000 </r>
       <r>    -3.2220     0.0000     9.0000 </r>
       <r>    -2.9998     0.0000     9.0000 </r>
       <r>    -2.7776     0.0000     9.0000 </r>
       <r>    -2.5554     0.0000     9.0000 </r>
       <r>    -2.3332     0.0000     9.0000 </r>
       <r>    -2.1110     0.0000     9.0000 </r>
       <r>    -1.8888     0.0000     9.0000 </r>
       <r>    -1.6666     0.0000     9.0000 </r>
       <r>    -1.4444     0.0000     9.0000 </r>
       <r>    -1.2222     0.0000     9.0000 </r>
       <r>    -1.0000     0.0053     9.0012 </r>
       <r>    -0.7778    13.4731    11.9948 </r>
       <r>    -0.5556     0.0232    12.0000 </r>
       <r>    -0.3334     0.0164    12.0036 </r>
       <r>    -0.1112     4.4834    12.9998 </r>
       <r>     0.1110     0.0007    13.0000 </r>
       <r>     0.3332     0.0000    13.0000 </r>
       <r>     0.5554     0.0000    13.0000 </r>
       <r>     0.7776     2.3006    13.5112 </r>
       <r>     0.9998     6.7004    15.0000 </r>
       <r>     1.2220     0.0000    15.0000 </r>
       <r>     1.4441     0.0341    15.0076 </r>
       <r>     1.6663    13.6701    18.0450 </r>
       <r>     1.8885     5.3386    19.2312 </r>
       <r>     2.1107    12.4610    22.0000 </r>
       <r>     2.3329     0.8614    22.1914 </r>
       <r>     2.5551    21.6331    26.9982 </r>
       <r>     2.7773     0.0082    27.0000 </r>
       <r>     2.9995     0.0000    27.0000 </r>
       <r>     3.2217     0.0000    27.0000 </r>
       <r>     3.4439     1.1129    27.2473 </r>
       <r>     3.6661    15.3465    30.6572 </r>
       <r>     3.8883    18.0592    34.6699 </r>
       <r>     4.1105     1.4856    35.0000 </r>
       <r>     4.3327     0.0000    35.0000 </r>
       <r>     4.5549     0.0502    35.0111 </r>
       <r>     4.7771     4.4502    36.0000 </r>
       <r>     4.9993     0.0001    36.0000 </r>
       <r>     5.2215     0.0000    36.0000 </r>
       <r>     5.4437     0.0000    36.0000 </r>
       <r>     5.6659     0.0000    36.0000 </r>
       <r>     5.8881     0.0000    36.0000 </r>
       <r>     6.1103     0.0000    36.0000 </r>
       <r>     6.3325     0.0000    36.0000 </r>
       <r>     6.5547     0.0000    36.0000 </r>
       <r>     6.7768     0.0000    36.0000 </r>
       <r>     6.9990     0.0000    36.0000 </r>
       <r>     7.2212     0.0000    36.0000 </r>
       <r>     7.4434     0.0000    36.0000 </r>
       <r>     7.6656     0.0000    36.0000 </r>
      </set>
     </set>
    </array>
   </total>
   <partial>
    <array>
     <dimension dim="1">gridpoints</dimension>
     <dimension dim="2">spin</dimension>
     <dimension dim="3">ion</dimension>
     <field>energy</field>
     <field>    s</field>
     <field>   py</field>
     <field>   pz</field>
     <field>   px</field>
     <field>  dxy</field>
     <field>  dyz</field>
     <field>  dz2</field>
     <field>  dxz</field>
     <field>x2-y2</field>
     <set>
      <set comment="ion 1">
       <set comment="spin 1">
        <r>   -58.9931     0.0000     0.0000     0.0000     0.0000     0.0000     0.0000     0.0000     0.0000     0.0000 </r>
        <r>   -58.7709     0.0000     0.0000     0.0000     0.0000     0.0000     0.0000     0.0000     0.0000     0.0000 </r>
        <r>   -58.5487     0.0000     0.0000     0.0000     0.0000     0.0000     0.0000     0.0000     0.0000     0.0000 </r>
        <r>   -58.3266     0.0000     0.0000     0.0000     0.0000     0.0000     0.0000     0.0000     0.0000     0.0000 </r>
        <r>   -58.1044     0.0000     0.0000     0.0000     0.0000     0.0000     0.0000     0.0000     0.0000     0.0000 </r>
        <r>   -57.8822     0.0000     0.0000     0.0000     0.0000     0.0000     0.0000     0.0000     0.0000     0.0000 </r>
        <r>   -57.6600     0.0000     0.0000     0.0000     0.0000     0.0000     0.0000     0.0000     0.0000     0.0000 </r>
        <r>   -57.4378     0.0000     0.0000     0.0000     0.0000     0.0000     0.0000     0.0000     0.0000     0.0000 </r>
        <r>   -57.2156     0.0000     0.0000     0.0000     0.0000     0.0000     0.0000     0.0000     0.0000     0.0000 </r>
        <r>   -56.9934     0.0000     0.0000     0.0000     0.0000     0.0000     0.0000     0.0000     0.0000     0.0000 </r>
        <r>   -56.7712     0.0000     0.0000     0.0000     0.0000     0.0000     0.0000     0.0000     0.0000     0.0000 </r>
        <r>   -56.5490     0.0000     0.0000     0.0000     0.0000     0.0000     0.0000     0.0000     0.0000     0.0000 </r>
        <r>   -56.3268     0.0000     0.0000     0.0000     0.0000     0.0000     0.0000     0.0000     0.0000     0.0000 </r>
        <r>   -56.1046     0.0000     0.0001     0.0001     0.0001     0.0000     0.0000     0.0000     0.0000     0.0000 </r>
        <r>   -55.8824     0.0000     4.4275     4.4275     4.4275     0.0000     0.0000     0.0000     0.0000     0.0000 </r>
        <r>   -55.6602     0.0000     0.0499     0.0499     0.0499     0.0000     0.0000     0.0000     0.0000     0.0000 </r>
        <r>   -55.4380     0.0000     0.0000     0.0000     0.0000     0.0000     0.0000     0.0000     0.0000     0.0000 </r>
        <r>   -55.2158     0.0000     0.0000     0.0000     0.0000     0.0000     0.0000     0.0000     0.0000     0.0000 </r>
        <r>   -54.9936     0.0000     0.0000     0.0000     0.0000     0.0000     0.0000     0.0000     0.0000     0.0000 </r>
        <r>   -54.7714     0.0000     0.0000     0.0000     0.0000     0.0000     0.0000     0.0000     0.0000     0.0000 </r>
        <r>   -54.5492     0.0000     0.0000     0.0000     0.0000     0.0000     0.0000     0.0000     0.0000     0.0000 </r>
        <r>   -54.3270     0.0000     0.0000     0.0000     0.0000     0.0000     0.0000     0.0000     0.0000     0.0000 </r>
        <r>   -54.1048     0.0000     0.0000     0.0000     0.0000     0.0000     0.0000     0.0000     0.0000     0.0000 </r>
        <r>   -53.8826     0.0000     0.0000     0.0000     0.0000     0.0000     0.0000     0.0000     0.0000     0.0000 </r>
        <r>   -53.6604     0.0000     0.0000     0.0000     0.0000     0.0000     0.0000     0.0000     0.0000     0.0000 </r>
        <r>   -53.4382     0.0000     0.0000     0.0000     0.0000     0.0000     0.0000     0.0000     0.0000     0.0000 </r>
        <r>   -53.2160     0.0000     0.0000     0.0000     0.0000     0.0000     0.0000     0.0000     0.0000     0.0000 </r>
        <r>   -52.9938     0.0000     0.0000     0.0000     0.0000     0.0000     0.0000     0.0000     0.0000     0.0000 </r>
        <r>   -52.7717     0.0000     0.0000     0.0000     0.0000     0.0000     0.0000     0.0000     0.0000     0.0000 </r>
        <r>   -52.5495     0.0000     0.0000     0.0000     0.0000     0.0000     0.0000     0.0000     0.0000     0.0000 </r>
        <r>   -52.3273     0.0000     0.0000     0.0000     0.0000     0.0000     0.0000     0.0000     0.0000     0.0000 </r>
        <r>   -52.1051     0.0000     0.0000     0.0000     0.0000     0.0000     0.0000     0.0000     0.0000     0.0000 </r>
        <r>   -51.8829     0.0000     0.0000     0.0000     0.0000     0.0000     0.0000     0.0000     0.0000     0.0000 </r>
        <r>   -51.6607     0.0000     0.0000     0.0000     0.0000     0.0000     0.0000     0.0000     0.0000     0.0000 </r>
        <r>   -51.4385     0.0000     0.0000     0.0000     0.0000     0.0000     0.0000     0.0000     0.0000     0.0000 </r>
        <r>   -51.2163     0.0000     0.0000     0.0000     0.0000     0.0000     0.0000     0.0000     0.0000     0.0000 </r>
        <r>   -50.9941     0.0000     0.0000     0.0000     0.0000     0.0000     0.0000     0.0000     0.0000     0.0000 </r>
        <r>   -50.7719     0.0000     0.0000     0.0000     0.0000     0.0000     0.0000     0.0000     0.0000     0.0000 </r>
        <r>   -50.5497     0.0000     0.0000     0.0000     0.0000     0.0000     0.0000     0.0000     0.0000     0.0000 </r>
        <r>   -50.3275     0.0000     0.0000     0.0000     0.0000     0.0000     0.0000     0.0000     0.0000     0.0000 </r>
        <r>   -50.1053     0.0000     0.0000     0.0000     0.0000     0.0000     0.0000     0.0000     0.0000     0.0000 </r>
        <r>   -49.8831     0.0000     0.0000     0.0000     0.0000     0.0000     0.0000     0.0000     0.0000     0.0000 </r>
        <r>   -49.6609     0.0000     0.0000     0.0000     0.0000     0.0000     0.0000     0.0000     0.0000     0.0000 </r>
        <r>   -49.4387     0.0000     0.0000     0.0000     0.0000     0.0000     0.0000     0.0000     0.0000     0.0000 </r>
        <r>   -49.2165     0.0000     0.0000     0.0000     0.0000     0.0000     0.0000     0.0000     0.0000     0.0000 </r>
        <r>   -48.9943     0.0000     0.0000     0.0000     0.0000     0.0000     0.0000     0.0000     0.0000     0.0000 </r>
        <r>   -48.7721     0.0000     0.0000     0.0000     0.0000     0.0000     0.0000     0.0000     0.0000     0.0000 </r>
        <r>   -48.5499     0.0000     0.0000     0.0000     0.0000     0.0000     0.0000     0.0000     0.0000     0.0000 </r>
        <r>   -48.3277     0.0000     0.0000     0.0000     0.0000     0.0000     0.0000     0.0000     0.0000     0.0000 </r>
        <r>   -48.1055     0.0000     0.0000     0.0000     0.0000     0.0000     0.0000     0.0000     0.0000     0.0000 </r>
        <r>   -47.8833     0.0000     0.0000     0.0000     0.0000     0.0000     0.0000     0.0000     0.0000     0.0000 </r>
        <r>   -47.6611     0.0000     0.0000     0.0000     0.0000     0.0000     0.0000     0.0000     0.0000     0.0000 </r>
        <r>   -47.4390     0.0000     0.0000     0.0000     0.0000     0.0000     0.0000     0.0000     0.0000     0.0000 </r>
        <r>   -47.2168     0.0000     0.0000     0.0000     0.0000     0.0000     0.0000     0.0000     0.0000     0.0000 </r>
        <r>   -46.9946     0.0000     0.0000     0.0000     0.0000     0.0000     0.0000     0.0000     0.0000     0.0000 </r>
        <r>   -46.7724     0.0000     0.0000     0.0000     0.0000     0.0000     0.0000     0.0000     0.0000     0.0000 </r>
        <r>   -46.5502     0.0000     0.0000     0.0000     0.0000     0.0000     0.0000     0.0000     0.0000     0.0000 </r>
        <r>   -46.3280     0.0000     0.0000     0.0000     0.0000     0.0000     0.0000     0.0000     0.0000     0.0000 </r>
        <r>   -46.1058     0.0000     0.0000     0.0000     0.0000     0.0000     0.0000     0.0000     0.0000     0.0000 </r>
        <r>   -45.8836     0.0000     0.0000     0.0000     0.0000     0.0000     0.0000     0.0000     0.0000     0.0000 </r>
        <r>   -45.6614     0.0000     0.0000     0.0000     0.0000     0.0000     0.0000     0.0000     0.0000     0.0000 </r>
        <r>   -45.4392     0.0000     0.0000     0.0000     0.0000     0.0000     0.0000     0.0000     0.0000     0.0000 </r>
        <r>   -45.2170     0.0000     0.0000     0.0000     0.0000     0.0000     0.0000     0.0000     0.0000     0.0000 </r>
        <r>   -44.9948     0.0000     0.0000     0.0000     0.0000     0.0000     0.0000     0.0000     0.0000     0.0000 </r>
        <r>   -44.7726     0.0000     0.0000     0.0000     0.0000     0.0000     0.0000     0.0000     0.0000     0.0000 </r>
        <r>   -44.5504     0.0000     0.0000     0.0000     0.0000     0.0000     0.0000     0.0000     0.0000     0.0000 </r>
        <r>   -44.3282     0.0000     0.0000     0.0000     0.0000     0.0000     0.0000     0.0000     0.0000     0.0000 </r>
        <r>   -44.1060     0.0000     0.0000     0.0000     0.0000     0.0000     0.0000     0.0000     0.0000     0.0000 </r>
        <r>   -43.8838     0.0000     0.0000     0.0000     0.0000     0.0000     0.0000     0.0000     0.0000     0.0000 </r>
        <r>   -43.6616     0.0000     0.0000     0.0000     0.0000     0.0000     0.0000     0.0000     0.0000     0.0000 </r>
        <r>   -43.4394     0.0000     0.0000     0.0000     0.0000     0.0000     0.0000     0.0000     0.0000     0.0000 </r>
        <r>   -43.2172     0.0000     0.0000     0.0000     0.0000     0.0000     0.0000     0.0000     0.0000     0.0000 </r>
        <r>   -42.9950     0.0000     0.0000     0.0000     0.0000     0.0000     0.0000     0.0000     0.0000     0.0000 </r>
        <r>   -42.7728     0.0000     0.0000     0.0000     0.0000     0.0000     0.0000     0.0000     0.0000     0.0000 </r>
        <r>   -42.5506     0.0000     0.0000     0.0000     0.0000     0.0000     0.0000     0.0000     0.0000     0.0000 </r>
        <r>   -42.3284     0.0000     0.0000     0.0000     0.0000     0.0000     0.0000     0.0000     0.0000     0.0000 </r>
        <r>   -42.1063     0.0000     0.0000     0.0000     0.0000     0.0000     0.0000     0.0000     0.0000     0.0000 </r>
        <r>   -41.8841     0.0000     0.0000     0.0000     0.0000     0.0000     0.0000     0.0000     0.0000     0.0000 </r>
        <r>   -41.6619     0.0000     0.0000     0.0000     0.0000     0.0000     0.0000     0.0000     0.0000     0.0000 </r>
        <r>   -41.4397     0.0000     0.0000     0.0000     0.0000     0.0000     0.0000     0.0000     0.0000     0.0000 </r>
        <r>   -41.2175     0.0000     0.0000     0.0000     0.0000     0.0000     0.0000     0.0000     0.0000     0.0000 </r>
        <r>   -40.9953     0.0000     0.0000     0.0000     0.0000     0.0000     0.0000     0.0000     0.0000     0.0000 </r>
        <r>   -40.7731     0.0000     0.0000     0.0000     0.0000     0.0000     0.0000     0.0000     0.0000     0.0000 </r>
        <r>   -40.5509     0.0000     0.0000     0.0000     0.0000     0.0000     0.0000     0.0000     0.0000     0.0000 </r>
        <r>   -40.3287     0.0000     0.0000     0.0000     0.0000     0.0000     0.0000     0.0000     0.0000     0.0000 </r>
        <r>   -40.1065     0.0000     0.0000     0.0000     0.0000     0.0000     0.0000     0.0000     0.0000     0.0000 </r>
        <r>   -39.8843     0.0000     0.0000     0.0000     0.0000     0.0000     0.0000     0.0000     0.0000     0.0000 </r>
        <r>   -39.6621     0.0000     0.0000     0.0000     0.0000     0.0000     0.0000     0.0000     0.0000     0.0000 </r>
        <r>   -39.4399     0.0000     0.0000     0.0000     0.0000     0.0000     0.0000     0.0000     0.0000     0.0000 </r>
        <r>   -39.2177     0.0000     0.0000     0.0000     0.0000     0.0000     0.0000     0.0000     0.0000     0.0000 </r>
        <r>   -38.9955     0.0000     0.0000     0.0000     0.0000     0.0000     0.0000     0.0000     0.0000     0.0000 </r>
        <r>   -38.7733     0.0000     0.0000     0.0000     0.0000     0.0000     0.0000     0.0000     0.0000     0.0000 </r>
        <r>   -38.5511     0.0000     0.0000     0.0000     0.0000     0.0000     0.0000     0.0000     0.0000     0.0000 </r>
        <r>   -38.3289     0.0000     0.0000     0.0000     0.0000     0.0000     0.0000     0.0000     0.0000     0.0000 </r>
        <r>   -38.1067     0.0000     0.0000     0.0000     0.0000     0.0000     0.0000     0.0000     0.0000     0.0000 </r>
        <r>   -37.8845     0.0000     0.0000     0.0000     0.0000     0.0000     0.0000     0.0000     0.0000     0.0000 </r>
        <r>   -37.6623     0.0000     0.0000     0.0000     0.0000     0.0000     0.0000     0.0000     0.0000     0.0000 </r>
        <r>   -37.4401     0.0000     0.0000     0.0000     0.0000     0.0000     0.0000     0.0000     0.0000     0.0000 </r>
        <r>   -37.2179     0.0000     0.0000     0.0000     0.0000     0.0000     0.0000     0.0000     0.0000     0.0000 </r>
        <r>   -36.9957     0.0000     0.0000     0.0000     0.0000     0.0000     0.0000     0.0000     0.0000     0.0000 </r>
        <r>   -36.7735     0.0000     0.0000     0.0000     0.0000     0.0000     0.0000     0.0000     0.0000     0.0000 </r>
        <r>   -36.5514     0.0000     0.0000     0.0000     0.0000     0.0000     0.0000     0.0000     0.0000     0.0000 </r>
        <r>   -36.3292     0.0000     0.0000     0.0000     0.0000     0.0000     0.0000     0.0000     0.0000     0.0000 </r>
        <r>   -36.1070     0.0000     0.0000     0.0000     0.0000     0.0000     0.0000     0.0000     0.0000     0.0000 </r>
        <r>   -35.8848     0.0000     0.0000     0.0000     0.0000     0.0000     0.0000     0.0000     0.0000     0.0000 </r>
        <r>   -35.6626     0.0000     0.0000     0.0000     0.0000     0.0000     0.0000     0.0000     0.0000     0.0000 </r>
        <r>   -35.4404     0.0000     0.0000     0.0000     0.0000     0.0000     0.0000     0.0000     0.0000     0.0000 </r>
        <r>   -35.2182     0.0000     0.0000     0.0000     0.0000     0.0000     0.0000     0.0000     0.0000     0.0000 </r>
        <r>   -34.9960     0.0000     0.0000     0.0000     0.0000     0.0000     0.0000     0.0000     0.0000     0.0000 </r>
        <r>   -34.7738     0.0000     0.0000     0.0000     0.0000     0.0000     0.0000     0.0000     0.0000     0.0000 </r>
        <r>   -34.5516     0.0000     0.0000     0.0000     0.0000     0.0000     0.0000     0.0000     0.0000     0.0000 </r>
        <r>   -34.3294     0.0000     0.0000     0.0000     0.0000     0.0000     0.0000     0.0000     0.0000     0.0000 </r>
        <r>   -34.1072     0.0000     0.0000     0.0000     0.0000     0.0000     0.0000     0.0000     0.0000     0.0000 </r>
        <r>   -33.8850     0.0000     0.0000     0.0000     0.0000     0.0000     0.0000     0.0000     0.0000     0.0000 </r>
        <r>   -33.6628     0.0000     0.0000     0.0000     0.0000     0.0000     0.0000     0.0000     0.0000     0.0000 </r>
        <r>   -33.4406     0.0000     0.0000     0.0000     0.0000     0.0000     0.0000     0.0000     0.0000     0.0000 </r>
        <r>   -33.2184     0.0000     0.0000     0.0000     0.0000     0.0000     0.0000     0.0000     0.0000     0.0000 </r>
        <r>   -32.9962     0.0000     0.0000     0.0000     0.0000     0.0000     0.0000     0.0000     0.0000     0.0000 </r>
        <r>   -32.7740     0.0000     0.0000     0.0000     0.0000     0.0000     0.0000     0.0000     0.0000     0.0000 </r>
        <r>   -32.5518     0.0000     0.0000     0.0000     0.0000     0.0000     0.0000     0.0000     0.0000     0.0000 </r>
        <r>   -32.3296     0.0000     0.0000     0.0000     0.0000     0.0000     0.0000     0.0000     0.0000     0.0000 </r>
        <r>   -32.1074     0.0000     0.0000     0.0000     0.0000     0.0000     0.0000     0.0000     0.0000     0.0000 </r>
        <r>   -31.8852     0.0000     0.0000     0.0000     0.0000     0.0000     0.0000     0.0000     0.0000     0.0000 </r>
        <r>   -31.6630     0.0000     0.0000     0.0000     0.0000     0.0000     0.0000     0.0000     0.0000     0.0000 </r>
        <r>   -31.4408     0.0000     0.0000     0.0000     0.0000     0.0000     0.0000     0.0000     0.0000     0.0000 </r>
        <r>   -31.2187     0.0000     0.0000     0.0000     0.0000     0.0000     0.0000     0.0000     0.0000     0.0000 </r>
        <r>   -30.9965     0.0000     0.0000     0.0000     0.0000     0.0000     0.0000     0.0000     0.0000     0.0000 </r>
        <r>   -30.7743     0.0000     0.0000     0.0000     0.0000     0.0000     0.0000     0.0000     0.0000     0.0000 </r>
        <r>   -30.5521     0.0000     0.0000     0.0000     0.0000     0.0000     0.0000     0.0000     0.0000     0.0000 </r>
        <r>   -30.3299     0.0000     0.0000     0.0000     0.0000     0.0000     0.0000     0.0000     0.0000     0.0000 </r>
        <r>   -30.1077     0.0000     0.0000     0.0000     0.0000     0.0000     0.0000     0.0000     0.0000     0.0000 </r>
        <r>   -29.8855     0.0000     0.0000     0.0000     0.0000     0.0000     0.0000     0.0000     0.0000     0.0000 </r>
        <r>   -29.6633     0.0000     0.0000     0.0000     0.0000     0.0000     0.0000     0.0000     0.0000     0.0000 </r>
        <r>   -29.4411     0.0000     0.0000     0.0000     0.0000     0.0000     0.0000     0.0000     0.0000     0.0000 </r>
        <r>   -29.2189     0.0000     0.0000     0.0000     0.0000     0.0000     0.0000     0.0000     0.0000     0.0000 </r>
        <r>   -28.9967     0.0000     0.0000     0.0000     0.0000     0.0000     0.0000     0.0000     0.0000     0.0000 </r>
        <r>   -28.7745     0.0000     0.0000     0.0000     0.0000     0.0000     0.0000     0.0000     0.0000     0.0000 </r>
        <r>   -28.5523     0.0000     0.0000     0.0000     0.0000     0.0000     0.0000     0.0000     0.0000     0.0000 </r>
        <r>   -28.3301     0.0000     0.0000     0.0000     0.0000     0.0000     0.0000     0.0000     0.0000     0.0000 </r>
        <r>   -28.1079     0.0000     0.0000     0.0000     0.0000     0.0000     0.0000     0.0000     0.0000     0.0000 </r>
        <r>   -27.8857     0.0000     0.0000     0.0000     0.0000     0.0000     0.0000     0.0000     0.0000     0.0000 </r>
        <r>   -27.6635     0.0000     0.0000     0.0000     0.0000     0.0000     0.0000     0.0000     0.0000     0.0000 </r>
        <r>   -27.4413     0.0000     0.0000     0.0000     0.0000     0.0000     0.0000     0.0000     0.0000     0.0000 </r>
        <r>   -27.2191     0.0000     0.0000     0.0000     0.0000     0.0000     0.0000     0.0000     0.0000     0.0000 </r>
        <r>   -26.9969     0.0000     0.0000     0.0000     0.0000     0.0000     0.0000     0.0000     0.0000     0.0000 </r>
        <r>   -26.7747     0.0000     0.0000     0.0000     0.0000     0.0000     0.0000     0.0000     0.0000     0.0000 </r>
        <r>   -26.5525     0.0000     0.0000     0.0000     0.0000     0.0000     0.0000     0.0000     0.0000     0.0000 </r>
        <r>   -26.3303     0.0000     0.0000     0.0000     0.0000     0.0000     0.0000     0.0000     0.0000     0.0000 </r>
        <r>   -26.1081     0.0000     0.0000     0.0000     0.0000     0.0000     0.0000     0.0000     0.0000     0.0000 </r>
        <r>   -25.8859     0.0000     0.0000     0.0000     0.0000     0.0000     0.0000     0.0000     0.0000     0.0000 </r>
        <r>   -25.6638     0.0000     0.0000     0.0000     0.0000     0.0000     0.0000     0.0000     0.0000     0.0000 </r>
        <r>   -25.4416     0.0000     0.0000     0.0000     0.0000     0.0000     0.0000     0.0000     0.0000     0.0000 </r>
        <r>   -25.2194     0.0000     0.0000     0.0000     0.0000     0.0000     0.0000     0.0000     0.0000     0.0000 </r>
        <r>   -24.9972     0.0000     0.0000     0.0000     0.0000     0.0000     0.0000     0.0000     0.0000     0.0000 </r>
        <r>   -24.7750     0.0000     0.0000     0.0000     0.0000     0.0000     0.0000     0.0000     0.0000     0.0000 </r>
        <r>   -24.5528     0.0000     0.0000     0.0000     0.0000     0.0000     0.0000     0.0000     0.0000     0.0000 </r>
        <r>   -24.3306     0.0000     0.0000     0.0000     0.0000     0.0000     0.0000     0.0000     0.0000     0.0000 </r>
        <r>   -24.1084     0.0000     0.0000     0.0000     0.0000     0.0000     0.0000     0.0000     0.0000     0.0000 </r>
        <r>   -23.8862     0.0000     0.0000     0.0000     0.0000     0.0000     0.0000     0.0000     0.0000     0.0000 </r>
        <r>   -23.6640     0.0000     0.0000     0.0000     0.0000     0.0000     0.0000     0.0000     0.0000     0.0000 </r>
[...]
        <r>    -2.3332     0.0000     0.0000     0.0000     0.0000     0.0000     0.0000     0.0000     0.0000     0.0000 </r>
        <r>    -2.1110     0.0000     0.0000     0.0000     0.0000     0.0000     0.0000     0.0000     0.0000     0.0000 </r>
        <r>    -1.8888     0.0000     0.0000     0.0000     0.0000     0.0000     0.0000     0.0000     0.0000     0.0000 </r>
        <r>    -1.6666     0.0000     0.0000     0.0000     0.0000     0.0000     0.0000     0.0000     0.0000     0.0000 </r>
        <r>    -1.4444     0.0000     0.0000     0.0000     0.0000     0.0000     0.0000     0.0000     0.0000     0.0000 </r>
        <r>    -1.2222     0.0000     0.0000     0.0000     0.0000     0.0000     0.0000     0.0000     0.0000     0.0000 </r>
        <r>    -1.0000     0.0000     0.0001     0.0001     0.0001     0.0000     0.0000     0.0000     0.0000     0.0000 </r>
        <r>    -0.7778     0.0000     0.3461     0.3459     0.3456     0.0000     0.0000     0.0000     0.0000     0.0000 </r>
        <r>    -0.5556     0.0000     0.0006     0.0006     0.0006     0.0000     0.0000     0.0000     0.0000     0.0000 </r>
        <r>    -0.3334     0.0004     0.0000     0.0000     0.0000     0.0000     0.0000     0.0000     0.0000     0.0000 </r>
        <r>    -0.1112     0.1166     0.0000     0.0000     0.0000     0.0000     0.0000     0.0000     0.0000     0.0000 </r>
        <r>     0.1110     0.0000     0.0000     0.0000     0.0000     0.0000     0.0000     0.0000     0.0000     0.0000 </r>
        <r>     0.3332     0.0000     0.0000     0.0000     0.0000     0.0000     0.0000     0.0000     0.0000     0.0000 </r>
        <r>     0.5554     0.0000     0.0000     0.0000     0.0000     0.0000     0.0000     0.0000     0.0000     0.0000 </r>
        <r>     0.7776     0.0000     0.0000     0.0000     0.0000     0.0000     0.0000     0.0120     0.0000     0.0119 </r>
        <r>     0.9998     0.0000     0.0000     0.0000     0.0000     0.0000     0.0000     0.0351     0.0000     0.0347 </r>
        <r>     1.2220     0.0000     0.0000     0.0000     0.0000     0.0000     0.0000     0.0000     0.0000     0.0000 </r>
        <r>     1.4441     0.0000     0.0003     0.0003     0.0003     0.0000     0.0000     0.0000     0.0000     0.0000 </r>
        <r>     1.6663     0.0056     0.1130     0.1105     0.1111     0.0000     0.0000     0.0000     0.0000     0.0000 </r>
        <r>     1.8885     0.1156     0.0000     0.0000     0.0001     0.0080     0.0080     0.0000     0.0080     0.0000 </r>
        <r>     2.1107     0.0000     0.0000     0.0000     0.0000     0.0954     0.0954     0.0000     0.0954     0.0000 </r>
        <r>     2.3329     0.0000     0.0000     0.0000     0.0000     0.0000     0.0000     0.0001     0.0000     0.0000 </r>
        <r>     2.5551     0.0000     0.0000     0.0000     0.0000     0.0000     0.0000     0.0272     0.0000     0.0269 </r>
        <r>     2.7773     0.0000     0.0000     0.0000     0.0000     0.0000     0.0000     0.0000     0.0000     0.0000 </r>
        <r>     2.9995     0.0000     0.0000     0.0000     0.0000     0.0000     0.0000     0.0000     0.0000     0.0000 </r>
        <r>     3.2217     0.0000     0.0000     0.0000     0.0000     0.0000     0.0000     0.0000     0.0000     0.0000 </r>
        <r>     3.4439     0.0000     0.0023     0.0178     0.0174     0.0000     0.0000     0.0000     0.0000     0.0000 </r>
        <r>     3.6661     0.0127     0.0620     0.1346     0.1310     0.0020     0.0117     0.0000     0.0046     0.0000 </r>
        <r>     3.8883     0.1030     0.0253     0.0128     0.0016     0.0421     0.0279     0.0088     0.0362     0.0000 </r>
        <r>     4.1105     0.0017     0.0056     0.0057     0.0006     0.0001     0.0017     0.0043     0.0013     0.0000 </r>
        <r>     4.3327     0.0000     0.0000     0.0000     0.0000     0.0000     0.0000     0.0000     0.0000     0.0000 </r>
        <r>     4.5549     0.0000     0.0001     0.0000     0.0001     0.0000     0.0000     0.0002     0.0000     0.0014 </r>
        <r>     4.7771     0.0034     0.0087     0.0023     0.0098     0.0000     0.0000     0.0143     0.0000     0.1230 </r>
        <r>     4.9993     0.0000     0.0000     0.0000     0.0000     0.0000     0.0000     0.0000     0.0000     0.0000 </r>
        <r>     5.2215     0.0000     0.0000     0.0000     0.0000     0.0000     0.0000     0.0000     0.0000     0.0000 </r>
        <r>     5.4437     0.0000     0.0000     0.0000     0.0000     0.0000     0.0000     0.0000     0.0000     0.0000 </r>
        <r>     5.6659     0.0000     0.0000     0.0000     0.0000     0.0000     0.0000     0.0000     0.0000     0.0000 </r>
        <r>     5.8881     0.0000     0.0000     0.0000     0.0000     0.0000     0.0000     0.0000     0.0000     0.0000 </r>
        <r>     6.1103     0.0000     0.0000     0.0000     0.0000     0.0000     0.0000     0.0000     0.0000     0.0000 </r>
        <r>     6.3325     0.0000     0.0000     0.0000     0.0000     0.0000     0.0000     0.0000     0.0000     0.0000 </r>
        <r>     6.5547     0.0000     0.0000     0.0000     0.0000     0.0000     0.0000     0.0000     0.0000     0.0000 </r>
        <r>     6.7768     0.0000     0.0000     0.0000     0.0000     0.0000     0.0000     0.0000     0.0000     0.0000 </r>
        <r>     6.9990     0.0000     0.0000     0.0000     0.0000     0.0000     0.0000     0.0000     0.0000     0.0000 </r>
        <r>     7.2212     0.0000     0.0000     0.0000     0.0000     0.0000     0.0000     0.0000     0.0000     0.0000 </r>
        <r>     7.4434     0.0000     0.0000     0.0000     0.0000     0.0000     0.0000     0.0000     0.0000     0.0000 </r>
        <r>     7.6656     0.0000     0.0000     0.0000     0.0000     0.0000     0.0000     0.0000     0.0000     0.0000 </r>
       </set>
      </set>
     </set>
    </array>
   </partial>
  </dos>
  <projected>
   <eigenvalues>
    <array>
     <dimension dim="1">band</dimension>
     <dimension dim="2">kpoint</dimension>
     <dimension dim="3">spin</dimension>
     <field>eigene</field>
     <field>occ</field>
     <set>
      <set comment="spin 1">
       <set comment="kpoint 1">
        <r>  -55.9632    1.0000 </r>
        <r>  -55.9632    1.0000 </r>
        <r>  -55.9632    1.0000 </r>
        <r>   -8.0100    1.0000 </r>
        <r>   -8.0100    1.0000 </r>
        <r>   -8.0100    1.0000 </r>
        <r>   -8.0098    1.0000 </r>
        <r>   -8.0098    1.0000 </r>
        <r>   -5.2862    1.0000 </r>
        <r>   -1.2844    0.0000 </r>
        <r>   -1.2844    0.0000 </r>
        <r>   -1.2843    0.0000 </r>
        <r>   -0.1820    0.0000 </r>
        <r>    0.9057    0.0000 </r>
        <r>    0.9057    0.0000 </r>
        <r>    1.5883    0.0000 </r>
        <r>    1.5883    0.0000 </r>
        <r>    1.5886    0.0000 </r>
        <r>    1.7381    0.0000 </r>
        <r>    1.9521    0.0000 </r>
        <r>    1.9521    0.0000 </r>
        <r>    1.9521    0.0000 </r>
        <r>    2.5471    0.0000 </r>
        <r>    2.5471    0.0000 </r>
        <r>    2.5472    0.0000 </r>
        <r>    2.5531    0.0000 </r>
        <r>    2.5537    0.0000 </r>
        <r>    3.4696    0.0000 </r>
        <r>    3.4700    0.0000 </r>
        <r>    3.4770    0.0000 </r>
        <r>    3.7528    0.0000 </r>
        <r>    3.7656    0.0000 </r>
        <r>    3.8024    0.0000 </r>
        <r>    3.8158    0.0000 </r>
        <r>    3.8178    0.0000 </r>
        <r>    4.5929    0.0000 </r>
       </set>
      </set>
      <set comment="spin 2">
       <set comment="kpoint 1">
        <r>  -50.9276    1.0000 </r>
        <r>  -50.9276    1.0000 </r>
        <r>  -50.9276    1.0000 </r>
        <r>   -4.2423    1.0000 </r>
        <r>   -3.6284    0.0000 </r>
        <r>   -3.6284    0.0000 </r>
        <r>   -3.6275    0.0000 </r>
        <r>   -3.6275    0.0000 </r>
        <r>   -3.6275    0.0000 </r>
        <r>   -0.8813    0.0000 </r>
        <r>   -0.8812    0.0000 </r>
        <r>   -0.8812    0.0000 </r>
        <r>   -0.2386    0.0000 </r>
        <r>    0.8008    0.0000 </r>
        <r>    0.8008    0.0000 </r>
        <r>    1.5432    0.0000 </r>
        <r>    1.5432    0.0000 </r>
        <r>    1.5434    0.0000 </r>
        <r>    1.7260    0.0000 </r>
        <r>    1.9389    0.0000 </r>
        <r>    1.9389    0.0000 </r>
        <r>    1.9390    0.0000 </r>
        <r>    2.3862    0.0000 </r>
        <r>    2.3871    0.0000 </r>
        <r>    2.3876    0.0000 </r>
        <r>    2.4447    0.0000 </r>
        <r>    2.4450    0.0000 </r>
        <r>    3.4837    0.0000 </r>
        <r>    3.4860    0.0000 </r>
        <r>    3.5745    0.0000 </r>
        <r>    3.6602    0.0000 </r>
        <r>    3.7274    0.0000 </r>
        <r>    3.7308    0.0000 </r>
        <r>    3.7384    0.0000 </r>
        <r>    3.8728    0.0000 </r>
        <r>    4.6357    0.0000 </r>
       </set>
      </set>
     </set>
    </array>
   </eigenvalues>
   <array>
    <dimension dim="1">ion</dimension>
    <dimension dim="2">band</dimension>
    <dimension dim="3">kpoint</dimension>
    <dimension dim="4">spin</dimension>
    <field>    s</field>
    <field>   py</field>
    <field>   pz</field>
    <field>   px</field>
    <field>  dxy</field>
    <field>  dyz</field>
    <field>  dz2</field>
    <field>  dxz</field>
    <field>x2-y2</field>
    <set>
     <set comment="spin1">
      <set comment="kpoint 1">
       <set comment="band 1">
        <r>  0.0000  0.0024  0.6412  0.3513  0.0000  0.0000  0.0000  0.0000  0.0000 </r>
       </set>
       <set comment="band 2">
        <r>  0.0000  0.0082  0.3450  0.6417  0.0000  0.0000  0.0000  0.0000  0.0000 </r>
       </set>
       <set comment="band 3">
        <r>  0.0000  0.9843  0.0087  0.0019  0.0000  0.0000  0.0000  0.0000  0.0000 </r>
       </set>
       <set comment="band 4">
        <r>  0.0000  0.0000  0.0000  0.0000  0.2888  0.0777  0.0000  0.5626  0.0000 </r>
       </set>
       <set comment="band 5">
        <r>  0.0000  0.0000  0.0000  0.0000  0.0031  0.8360  0.0000  0.0900  0.0000 </r>
       </set>
       <set comment="band 6">
        <r>  0.0000  0.0000  0.0000  0.0000  0.6372  0.0154  0.0000  0.2765  0.0000 </r>
       </set>
       <set comment="band 7">
        <r>  0.0000  0.0000  0.0000  0.0000  0.0000  0.0000  0.0197  0.0000  0.9094 </r>
       </set>
       <set comment="band 8">
        <r>  0.0000  0.0000  0.0000  0.0000  0.0000  0.0000  0.9093  0.0000  0.0197 </r>
       </set>
       <set comment="band 9">
        <r>  0.2996  0.0000  0.0000  0.0000  0.0000  0.0000  0.0000  0.0000  0.0000 </r>
       </set>
       <set comment="band 10">
        <r>  0.0000  0.0819  0.0331  0.0088  0.0000  0.0000  0.0000  0.0000  0.0000 </r>
       </set>
       <set comment="band 11">
        <r>  0.0000  0.0070  0.0629  0.0538  0.0000  0.0000  0.0000  0.0000  0.0000 </r>
       </set>
       <set comment="band 12">
        <r>  0.0000  0.0348  0.0276  0.0609  0.0000  0.0000  0.0000  0.0000  0.0000 </r>
       </set>
       <set comment="band 13">
        <r>  0.0238  0.0000  0.0000  0.0000  0.0000  0.0000  0.0000  0.0000  0.0000 </r>
       </set>
       <set comment="band 14">
        <r>  0.0000  0.0000  0.0000  0.0000  0.0000  0.0000  0.0039  0.0000  0.0007 </r>
       </set>
       <set comment="band 15">
        <r>  0.0000  0.0000  0.0000  0.0000  0.0000  0.0000  0.0007  0.0000  0.0039 </r>
       </set>
       <set comment="band 16">
        <r>  0.0000  0.0232  0.0066  0.0004  0.0000  0.0000  0.0000  0.0000  0.0000 </r>
       </set>
       <set comment="band 17">
        <r>  0.0000  0.0028  0.0162  0.0111  0.0000  0.0000  0.0000  0.0000  0.0000 </r>
       </set>
       <set comment="band 18">
        <r>  0.0000  0.0042  0.0076  0.0188  0.0000  0.0000  0.0000  0.0000  0.0000 </r>
       </set>
       <set comment="band 19">
        <r>  0.0262  0.0000  0.0000  0.0000  0.0000  0.0000  0.0000  0.0000  0.0000 </r>
       </set>
       <set comment="band 20">
        <r>  0.0000  0.0000  0.0000  0.0000  0.0091  0.0024  0.0000  0.0011  0.0000 </r>
       </set>
       <set comment="band 21">
        <r>  0.0000  0.0000  0.0000  0.0000  0.0029  0.0097  0.0000  0.0001  0.0000 </r>
       </set>
       <set comment="band 22">
        <r>  0.0000  0.0000  0.0000  0.0000  0.0006  0.0005  0.0000  0.0115  0.0000 </r>
       </set>
       <set comment="band 23">
        <r>  0.0000  0.0000  0.0000  0.0000  0.0000  0.0000  0.0000  0.0000  0.0000 </r>
       </set>
       <set comment="band 24">
        <r>  0.0000  0.0000  0.0000  0.0000  0.0000  0.0000  0.0003  0.0000  0.0000 </r>
       </set>
       <set comment="band 25">
        <r>  0.0000  0.0000  0.0000  0.0000  0.0000  0.0000  0.0001  0.0000  0.0000 </r>
       </set>
       <set comment="band 26">
        <r>  0.0000  0.0000  0.0000  0.0000  0.0000  0.0000  0.0035  0.0000  0.0001 </r>
       </set>
       <set comment="band 27">
        <r>  0.0000  0.0000  0.0000  0.0000  0.0000  0.0000  0.0001  0.0000  0.0038 </r>
       </set>
       <set comment="band 28">
        <r>  0.0000  0.0002  0.0136  0.0345  0.0000  0.0000  0.0000  0.0000  0.0000 </r>
       </set>
       <set comment="band 29">
        <r>  0.0001  0.0006  0.0340  0.0140  0.0000  0.0000  0.0000  0.0000  0.0000 </r>
       </set>
       <set comment="band 30">
        <r>  0.0003  0.0467  0.0007  0.0000  0.0000  0.0001  0.0000  0.0000  0.0000 </r>
       </set>
       <set comment="band 31">
        <r>  0.0293  0.0004  0.0001  0.0001  0.0000  0.0000  0.0000  0.0000  0.0000 </r>
       </set>
       <set comment="band 32">
        <r>  0.0000  0.0000  0.0001  0.0000  0.0004  0.0005  0.0000  0.0011  0.0000 </r>
       </set>
       <set comment="band 33">
        <r>  0.0001  0.0007  0.0000  0.0000  0.0002  0.0036  0.0000  0.0015  0.0000 </r>
       </set>
       <set comment="band 34">
        <r>  0.0000  0.0001  0.0000  0.0000  0.0006  0.0020  0.0000  0.0036  0.0000 </r>
       </set>
       <set comment="band 35">
        <r>  0.0000  0.0000  0.0000  0.0000  0.0055  0.0005  0.0000  0.0004  0.0000 </r>
       </set>
       <set comment="band 36">
        <r>  0.0052  0.0009  0.0008  0.0001  0.0000  0.0000  0.0004  0.0000  0.0208 </r>
       </set>
      </set>
     </set>
     <set comment="spin2">
      <set comment="kpoint 1">
       <set comment="band 1">
        <r>  0.0000  0.0054  0.6573  0.3325  0.0000  0.0000  0.0000  0.0000  0.0000 </r>
       </set>
       <set comment="band 2">
        <r>  0.0000  0.0482  0.3331  0.6139  0.0000  0.0000  0.0000  0.0000  0.0000 </r>
       </set>
       <set comment="band 3">
        <r>  0.0000  0.9416  0.0048  0.0487  0.0000  0.0000  0.0000  0.0000  0.0000 </r>
       </set>
       <set comment="band 4">
        <r>  0.2413  0.0000  0.0000  0.0000  0.0000  0.0000  0.0000  0.0000  0.0000 </r>
       </set>
       <set comment="band 5">
        <r>  0.0000  0.0000  0.0000  0.0000  0.0000  0.0016  0.4143  0.0001  0.4623 </r>
       </set>
       <set comment="band 6">
        <r>  0.0000  0.0000  0.0000  0.0000  0.0009  0.0027  0.4589  0.0001  0.4156 </r>
       </set>
       <set comment="band 7">
        <r>  0.0000  0.0000  0.0000  0.0000  0.2122  0.2454  0.0030  0.4170  0.0002 </r>
       </set>
       <set comment="band 8">
        <r>  0.0000  0.0000  0.0000  0.0000  0.0127  0.5969  0.0018  0.2664  0.0000 </r>
       </set>
       <set comment="band 9">
        <r>  0.0000  0.0000  0.0000  0.0000  0.6521  0.0312  0.0000  0.1942  0.0003 </r>
       </set>
       <set comment="band 10">
        <r>  0.0000  0.0014  0.0633  0.0123  0.0000  0.0000  0.0000  0.0000  0.0000 </r>
       </set>
       <set comment="band 11">
        <r>  0.0000  0.0665  0.0000  0.0104  0.0000  0.0000  0.0000  0.0000  0.0000 </r>
       </set>
       <set comment="band 12">
        <r>  0.0000  0.0091  0.0137  0.0542  0.0000  0.0000  0.0000  0.0000  0.0000 </r>
       </set>
       <set comment="band 13">
        <r>  0.0260  0.0000  0.0000  0.0000  0.0000  0.0000  0.0000  0.0000  0.0000 </r>
       </set>
       <set comment="band 14">
        <r>  0.0000  0.0000  0.0000  0.0000  0.0000  0.0000  0.0056  0.0000  0.0049 </r>
       </set>
       <set comment="band 15">
        <r>  0.0000  0.0000  0.0000  0.0000  0.0000  0.0000  0.0049  0.0000  0.0055 </r>
       </set>
       <set comment="band 16">
        <r>  0.0000  0.0011  0.0219  0.0017  0.0000  0.0000  0.0000  0.0000  0.0000 </r>
       </set>
       <set comment="band 17">
        <r>  0.0000  0.0121  0.0027  0.0099  0.0000  0.0000  0.0000  0.0000  0.0000 </r>
       </set>
       <set comment="band 18">
        <r>  0.0000  0.0120  0.0000  0.0132  0.0000  0.0000  0.0000  0.0000  0.0000 </r>
       </set>
       <set comment="band 19">
        <r>  0.0269  0.0000  0.0000  0.0000  0.0000  0.0000  0.0000  0.0000  0.0000 </r>
       </set>
       <set comment="band 20">
        <r>  0.0000  0.0000  0.0000  0.0000  0.0014  0.0145  0.0000  0.0071  0.0000 </r>
       </set>
       <set comment="band 21">
        <r>  0.0000  0.0000  0.0000  0.0000  0.0035  0.0084  0.0000  0.0111  0.0000 </r>
       </set>
       <set comment="band 22">
        <r>  0.0000  0.0000  0.0000  0.0000  0.0182  0.0001  0.0000  0.0048  0.0000 </r>
       </set>
       <set comment="band 23">
        <r>  0.0000  0.0000  0.0000  0.0000  0.0000  0.0000  0.0000  0.0000  0.0000 </r>
       </set>
       <set comment="band 24">
        <r>  0.0000  0.0000  0.0000  0.0000  0.0000  0.0000  0.0000  0.0000  0.0001 </r>
       </set>
       <set comment="band 25">
        <r>  0.0000  0.0000  0.0000  0.0000  0.0000  0.0000  0.0001  0.0000  0.0000 </r>
       </set>
       <set comment="band 26">
        <r>  0.0000  0.0000  0.0000  0.0000  0.0000  0.0000  0.0002  0.0000  0.0057 </r>
       </set>
       <set comment="band 27">
        <r>  0.0000  0.0000  0.0000  0.0000  0.0000  0.0000  0.0057  0.0000  0.0002 </r>
       </set>
       <set comment="band 28">
        <r>  0.0000  0.0004  0.0144  0.0192  0.0000  0.0000  0.0000  0.0001  0.0000 </r>
       </set>
       <set comment="band 29">
        <r>  0.0000  0.0039  0.0177  0.0116  0.0000  0.0000  0.0000  0.0000  0.0000 </r>
       </set>
       <set comment="band 30">
        <r>  0.0004  0.0077  0.0017  0.0021  0.0001  0.0006  0.0000  0.0001  0.0000 </r>
       </set>
       <set comment="band 31">
        <r>  0.0030  0.0040  0.0001  0.0001  0.0001  0.0033  0.0000  0.0010  0.0000 </r>
       </set>
       <set comment="band 32">
        <r>  0.0093  0.0012  0.0002  0.0000  0.0038  0.0000  0.0000  0.0020  0.0000 </r>
       </set>
       <set comment="band 33">
        <r>  0.0003  0.0000  0.0000  0.0000  0.0034  0.0017  0.0000  0.0047  0.0000 </r>
       </set>
       <set comment="band 34">
        <r>  0.0118  0.0002  0.0001  0.0000  0.0023  0.0025  0.0000  0.0005  0.0000 </r>
       </set>
       <set comment="band 35">
        <r>  0.0012  0.0038  0.0038  0.0004  0.0001  0.0012  0.0029  0.0009  0.0000 </r>
       </set>
       <set comment="band 36">
        <r>  0.0008  0.0020  0.0005  0.0022  0.0000  0.0000  0.0032  0.0000  0.0276 </r>
       </set>
      </set>
     </set>
    </set>
   </array>
  </projected>
 </calculation>
 <structure name="finalpos" >
  <crystal>
   <varray name="basis" >
    <v>      10.00000000       0.00000000       0.00000000 </v>
    <v>       0.00000000      10.00000000       0.00000000 </v>
    <v>       0.00000000       0.00000000      10.00000000 </v>
   </varray>
   <i name="volume">   1000.00000000 </i>
   <varray name="rec_basis" >
    <v>       0.10000000       0.00000000       0.00000000 </v>
    <v>       0.00000000       0.10000000       0.00000000 </v>
    <v>       0.00000000       0.00000000       0.10000000 </v>
   </varray>
  </crystal>
  <varray name="positions" >
   <v>       0.50000000       0.50000000       0.50000000 </v>
  </varray>
 </structure>
</modeling>
