       N       E                     dE             d eps       ncg     rms          rms(c)
DAV:   1     0.162487070062E+02    0.16249E+02   -0.65993E+03   216   0.224E+02
DAV:   2    -0.127138581622E+01   -0.17520E+02   -0.17006E+02   252   0.391E+01
DAV:   3    -0.139013180796E+01   -0.11875E+00   -0.11846E+00   144   0.416E+00
DAV:   4    -0.139199956136E+01   -0.18678E-02   -0.18678E-02   252   0.465E-01
DAV:   5    -0.139200195248E+01   -0.23911E-05   -0.23909E-05   144   0.160E-02    0.234E+01
DAV:   6     0.695507764140E+01    0.83471E+01   -0.93299E+01   144   0.191E+01    0.196E+01
DAV:   7     0.928383496191E+00   -0.60267E+01   -0.87450E+00   144   0.910E+00    0.801E+00
DAV:   8    -0.173132292421E+01   -0.26597E+01   -0.89578E-01   144   0.244E+00    0.687E+00
DAV:   9    -0.324200865226E+00    0.14071E+01   -0.10829E+00   144   0.249E+00    0.488E+00
DAV:  10    -0.166973603055E+01   -0.13455E+01   -0.17802E+00   180   0.359E+00    0.856E+00
DAV:  11    -0.211852272453E+01   -0.44879E+00   -0.18115E-01   144   0.111E+00    0.958E+00
DAV:  12    -0.253933234126E+01   -0.42081E+00   -0.17125E+00   216   0.297E+00    0.280E+00
DAV:  13    -0.308978647162E+01   -0.55045E+00   -0.22045E-01   144   0.813E-01    0.200E+00
DAV:  14    -0.349918933285E+01   -0.40940E+00   -0.11778E+00   144   0.138E+00    0.751E+00
DAV:  15    -0.324882376086E+01    0.25037E+00   -0.51705E-01   144   0.203E+00    0.186E+00
DAV:  16    -0.333988673038E+01   -0.91063E-01   -0.19814E-01   216   0.677E-01    0.477E+00
DAV:  17    -0.328191678662E+01    0.57970E-01   -0.23876E-02   180   0.510E-01    0.309E+00
DAV:  18    -0.330440998419E+01   -0.22493E-01   -0.11909E-02   144   0.316E-01    0.165E+00
DAV:  19    -0.331648852350E+01   -0.12079E-01   -0.18098E-02   144   0.257E-01    0.169E+00
DAV:  20    -0.332697590958E+01   -0.10487E-01   -0.86504E-03   144   0.318E-01    0.133E+00
DAV:  21    -0.332493637920E+01    0.20395E-02   -0.22493E-03   144   0.148E-01    0.123E-01
DAV:  22    -0.333090178602E+01   -0.59654E-02   -0.12203E-03   144   0.111E-01    0.815E-01
DAV:  23    -0.332915374002E+01    0.17480E-02   -0.14750E-03   144   0.124E-01    0.363E-01
DAV:  24    -0.333001123368E+01   -0.85749E-03   -0.30978E-04   144   0.534E-02    0.497E-02
DAV:  25    -0.333123049681E+01   -0.12193E-02   -0.22138E-04   144   0.452E-02    0.372E-01
DAV:  26    -0.333066341379E+01    0.56708E-03   -0.22845E-04   144   0.499E-02    0.318E-01
DAV:  27    -0.333063243945E+01    0.30974E-04   -0.13969E-04   144   0.357E-02
   1 F= -.33306324E+01 E0= -.33121646E+01  d E =-.333063E+01  mag=     3.9996
