<?xml version="1.0" encoding="ISO-8859-1"?>
<modeling>
 <generator>
  <i name="program" type="string">vasp </i>
  <i name="version" type="string">5.4.4.18Apr17-6-g9f103f2a35  </i>
  <i name="subversion" type="string">(build Nov 08 2019 15:19:53) gamma-only         parallel </i>
  <i name="platform" type="string">LinuxIFC </i>
  <i name="date" type="string">2020 11 30 </i>
  <i name="time" type="string">09:37:31 </i>
 </generator>
 <incar>
  <i type="string" name="PREC">accurate</i>
  <i type="string" name="ALGO"> N</i>
  <i type="int" name="ISPIN">     2</i>
  <i type="int" name="NELM">   300</i>
  <i type="int" name="IBRION">     2</i>
  <i name="EDIFF">      0.00005000</i>
  <i type="int" name="NSW">    99</i>
  <i type="int" name="ISIF">     2</i>
  <i name="ENCUT">    520.00000000</i>
  <v name="MAGMOM">      0.60000000</v>
  <i type="string" name="LREAL"> Auto</i>
  <i type="int" name="ISMEAR">     0</i>
  <i name="SIGMA">      0.05000000</i>
  <i type="logical" name="LWAVE"> F  </i>
  <i type="int" name="LORBIT">    11</i>
  <i type="logical" name="LASPH"> T  </i>
  <v type="int" name="KPOINT_BSE">    -1     0     0     0</v>
  <i type="int" name="NELM">   300</i>
  <i type="logical" name="LASPH"> T  </i>
 </incar>
 <structure name="primitive_cell" >
  <crystal>
   <varray name="basis" >
    <v>      10.00000000       0.00000000       0.00000000 </v>
    <v>       0.00000000      10.00000000       0.00000000 </v>
    <v>       0.00000000       0.00000000      10.00000000 </v>
   </varray>
   <i name="volume">   1000.00000000 </i>
   <varray name="rec_basis" >
    <v>       0.10000000       0.00000000       0.00000000 </v>
    <v>       0.00000000       0.10000000       0.00000000 </v>
    <v>       0.00000000       0.00000000       0.10000000 </v>
   </varray>
  </crystal>
  <varray name="positions" >
   <v>      -0.50000000      -0.50000000      -0.50000000 </v>
  </varray>
 </structure>
 <varray name="primitive_index" >
  <v type="int" >        1 </v>
 </varray>
 <kpoints>
  <generation param="Gamma">
   <v type="int" name="divisions">       1        1        1 </v>
   <v name="usershift">      0.00000000       0.00000000       0.00000000 </v>
   <v name="genvec1">      1.00000000       0.00000000       0.00000000 </v>
   <v name="genvec2">      0.00000000       1.00000000       0.00000000 </v>
   <v name="genvec3">      0.00000000       0.00000000       1.00000000 </v>
   <v name="shift">      0.00000000       0.00000000       0.00000000 </v>
  </generation>
  <varray name="kpointlist" >
   <v>       0.00000000       0.00000000       0.00000000 </v>
  </varray>
  <varray name="weights" >
   <v>       1.00000000 </v>
  </varray>
 </kpoints>
 <parameters>
  <separator name="general" >
   <i type="string" name="SYSTEM">unknown system</i>
   <i type="logical" name="LCOMPAT"> F  </i>
  </separator>
  <separator name="electronic" >
   <i type="string" name="PREC">accura</i>
   <i name="ENMAX">    520.00000000</i>
   <i name="ENAUG">    578.34200000</i>
   <i name="EDIFF">      0.00005000</i>
   <i type="int" name="IALGO">    38</i>
   <i type="int" name="IWAVPR">    11</i>
   <i type="int" name="NBANDS">    36</i>
   <i name="NELECT">     14.00000000</i>
   <i type="int" name="TURBO">     0</i>
   <i type="int" name="IRESTART">     0</i>
   <i type="int" name="NREBOOT">     0</i>
   <i type="int" name="NMIN">     0</i>
   <i name="EREF">      0.00000000</i>
   <separator name="electronic smearing" >
    <i type="int" name="ISMEAR">     0</i>
    <i name="SIGMA">      0.05000000</i>
    <i name="KSPACING">      0.50000000</i>
    <i type="logical" name="KGAMMA"> T  </i>
   </separator>
   <separator name="electronic projectors" >
    <i type="logical" name="LREAL"> T  </i>
    <v name="ROPT">     -0.00025000</v>
    <i type="int" name="LMAXPAW">  -100</i>
    <i type="int" name="LMAXMIX">     2</i>
    <i type="logical" name="NLSPLINE"> F  </i>
   </separator>
   <separator name="electronic startup" >
    <i type="int" name="ISTART">     0</i>
    <i type="int" name="ICHARG">     2</i>
    <i type="int" name="INIWAV">     1</i>
   </separator>
   <separator name="electronic spin" >
    <i type="int" name="ISPIN">     2</i>
    <i type="logical" name="LNONCOLLINEAR"> F  </i>
    <v name="MAGMOM">      0.60000000</v>
    <i name="NUPDOWN">     -1.00000000</i>
    <i type="logical" name="LSORBIT"> F  </i>
    <v name="SAXIS">      0.00000000      0.00000000      1.00000000</v>
    <i type="logical" name="LSPIRAL"> F  </i>
    <v name="QSPIRAL">      0.00000000      0.00000000      0.00000000</v>
    <i type="logical" name="LZEROZ"> F  </i>
   </separator>
   <separator name="electronic exchange-correlation" >
    <i type="logical" name="LASPH"> T  </i>
    <i type="logical" name="LMETAGGA"> F  </i>
   </separator>
   <separator name="electronic convergence" >
    <i type="int" name="NELM">   300</i>
    <i type="int" name="NELMDL">     0</i>
    <i type="int" name="NELMIN">     2</i>
    <i name="ENINI">    520.00000000</i>
    <separator name="electronic convergence detail" >
     <i type="logical" name="LDIAG"> T  </i>
     <i type="logical" name="LSUBROT"> F  </i>
     <i name="WEIMIN">      0.00100000</i>
     <i name="EBREAK">      0.00000035</i>
     <i name="DEPER">      0.30000000</i>
     <i type="int" name="NRMM">     4</i>
     <i name="TIME">      0.40000000</i>
    </separator>
   </separator>
   <separator name="electronic mixer" >
    <i name="AMIX">      0.40000000</i>
    <i name="BMIX">      1.00000000</i>
    <i name="AMIN">      0.10000000</i>
    <i name="AMIX_MAG">      1.60000000</i>
    <i name="BMIX_MAG">      1.00000000</i>
    <separator name="electronic mixer details" >
     <i type="int" name="IMIX">     4</i>
     <i type="logical" name="MIXFIRST"> F  </i>
     <i type="int" name="MAXMIX">   -45</i>
     <i name="WC">    100.00000000</i>
     <i type="int" name="INIMIX">     1</i>
     <i type="int" name="MIXPRE">     1</i>
     <i type="int" name="MREMOVE">     5</i>
    </separator>
   </separator>
   <separator name="electronic dipolcorrection" >
    <i type="logical" name="LDIPOL"> F  </i>
    <i type="logical" name="LMONO"> F  </i>
    <i type="int" name="IDIPOL">     0</i>
    <i name="EPSILON">      1.00000000</i>
    <v name="DIPOL">   -100.00000000   -100.00000000   -100.00000000</v>
    <i name="EFIELD">      0.00000000</i>
   </separator>
  </separator>
  <separator name="grids" >
   <i type="int" name="NGX">    80</i>
   <i type="int" name="NGY">    80</i>
   <i type="int" name="NGZ">    80</i>
   <i type="int" name="NGXF">   160</i>
   <i type="int" name="NGYF">   160</i>
   <i type="int" name="NGZF">   160</i>
   <i type="logical" name="ADDGRID"> F  </i>
  </separator>
  <separator name="ionic" >
   <i type="int" name="NSW">    99</i>
   <i type="int" name="IBRION">     2</i>
   <i type="int" name="MDALGO">     0</i>
   <i type="int" name="ISIF">     2</i>
   <i name="PSTRESS">      0.00000000</i>
   <i name="EDIFFG">      0.00050000</i>
   <i type="int" name="NFREE">     1</i>
   <i name="POTIM">      0.50000000</i>
   <i name="SMASS">     -3.00000000</i>
   <i name="SCALEE">      1.00000000</i>
  </separator>
  <separator name="ionic md" >
   <i name="TEBEG">      0.00010000</i>
   <i name="TEEND">      0.00010000</i>
   <i type="int" name="NBLOCK">     1</i>
   <i type="int" name="KBLOCK">    99</i>
   <i type="int" name="NPACO">   256</i>
   <i name="APACO">     16.00000000</i>
  </separator>
  <separator name="symmetry" >
   <i type="int" name="ISYM">     2</i>
   <i name="SYMPREC">      0.00001000</i>
  </separator>
  <separator name="dos" >
   <i type="int" name="LORBIT">    11</i>
   <v name="RWIGS">     -1.00000000</v>
   <i type="int" name="NEDOS">   301</i>
   <i name="EMIN">     10.00000000</i>
   <i name="EMAX">    -10.00000000</i>
   <i name="EFERMI">      0.00000000</i>
  </separator>
  <separator name="writing" >
   <i type="int" name="NWRITE">     2</i>
   <i type="logical" name="LWAVE"> F  </i>
   <i type="logical" name="LDOWNSAMPLE"> F  </i>
   <i type="logical" name="LCHARG"> T  </i>
   <i type="logical" name="LPARD"> F  </i>
   <i type="logical" name="LVTOT"> F  </i>
   <i type="logical" name="LVHAR"> F  </i>
   <i type="logical" name="LELF"> F  </i>
   <i type="logical" name="LOPTICS"> F  </i>
   <v name="STM">      0.00000000      0.00000000      0.00000000      0.00000000      0.00000000      0.00000000      0.00000000</v>
  </separator>
  <separator name="performance" >
   <i type="int" name="NPAR">    36</i>
   <i type="int" name="NSIM">     4</i>
   <i type="int" name="NBLK">    -1</i>
   <i type="logical" name="LPLANE"> T  </i>
   <i type="logical" name="LSCALAPACK"> T  </i>
   <i type="logical" name="LSCAAWARE"> F  </i>
   <i type="logical" name="LSCALU"> F  </i>
   <i type="logical" name="LASYNC"> F  </i>
   <i type="logical" name="LORBITALREAL"> F  </i>
  </separator>
  <separator name="miscellaneous" >
   <i type="int" name="IDIOT">     3</i>
   <i type="int" name="ISPECIAL">     0</i>
   <i type="logical" name="LMUSIC"> F  </i>
   <v name="POMASS">     55.84700000</v>
   <v name="DARWINR">      0.00000000</v>
   <v name="DARWINV">      1.00000000</v>
   <i type="logical" name="LCORR"> T  </i>
  </separator>
  <i type="logical" name="GGA_COMPAT"> T  </i>
  <i type="logical" name="LBERRY"> F  </i>
  <i type="int" name="ICORELEVEL">     0</i>
  <i type="logical" name="LDAU"> F  </i>
  <i type="int" name="I_CONSTRAINED_M">     0</i>
  <separator name="electronic exchange-correlation" >
   <i type="string" name="GGA">--</i>
   <i type="int" name="VOSKOWN">     0</i>
   <i type="logical" name="LHFCALC"> F  </i>
   <i type="string" name="PRECFOCK"></i>
   <i type="logical" name="LSYMGRAD"> F  </i>
   <i type="logical" name="LHFONE"> F  </i>
   <i type="logical" name="LRHFCALC"> F  </i>
   <i type="logical" name="LTHOMAS"> F  </i>
   <i type="logical" name="LMODELHF"> F  </i>
   <i name="ENCUT4O">     -1.00000000</i>
   <i type="int" name="EXXOEP">     0</i>
   <i type="int" name="FOURORBIT">     0</i>
   <i name="AEXX">      0.00000000</i>
   <i name="HFALPHA">      0.00000000</i>
   <i name="MCALPHA">      0.00000000</i>
   <i name="ALDAX">      1.00000000</i>
   <i name="AGGAX">      1.00000000</i>
   <i name="ALDAC">      1.00000000</i>
   <i name="AGGAC">      1.00000000</i>
   <i type="int" name="NKREDX">     1</i>
   <i type="int" name="NKREDY">     1</i>
   <i type="int" name="NKREDZ">     1</i>
   <i type="logical" name="SHIFTRED"> F  </i>
   <i type="logical" name="ODDONLY"> F  </i>
   <i type="logical" name="EVENONLY"> F  </i>
   <i type="int" name="LMAXFOCK">     0</i>
   <i type="int" name="NMAXFOCKAE">     0</i>
   <i type="logical" name="LFOCKAEDFT"> F  </i>
   <i name="HFSCREEN">      0.00000000</i>
   <i name="HFSCREENC">      0.00000000</i>
   <i type="int" name="NBANDSGWLOW">     0</i>
  </separator>
  <separator name="vdW DFT" >
   <i type="logical" name="LUSE_VDW"> F  </i>
   <i name="Zab_VDW">     -0.84910000</i>
   <i name="PARAM1">      0.12340000</i>
   <i name="PARAM2">      1.00000000</i>
   <i name="PARAM3">      0.00000000</i>
  </separator>
  <separator name="model GW" >
   <i type="int" name="MODEL_GW">     0</i>
   <i name="MODEL_EPS0">    600.00000000</i>
   <i name="MODEL_ALPHA">      1.00000000</i>
  </separator>
  <separator name="linear response parameters" >
   <i type="logical" name="LEPSILON"> F  </i>
   <i type="logical" name="LRPA"> F  </i>
   <i type="logical" name="LNABLA"> F  </i>
   <i type="logical" name="LVEL"> F  </i>
   <i type="int" name="KINTER">     0</i>
   <i name="CSHIFT">      0.10000000</i>
   <i name="OMEGAMAX">     -1.00000000</i>
   <i name="DEG_THRESHOLD">      0.00200000</i>
   <i name="RTIME">     -0.10000000</i>
   <i name="WPLASMAI">      0.00000000</i>
   <v name="DFIELD">      0.00000000      0.00000000      0.00000000</v>
   <v name="WPLASMA">      0.00000000      0.00000000      0.00000000      0.00000000      0.00000000      0.00000000      0.00000000      0.00000000      0.00000000</v>
  </separator>
  <separator name="orbital magnetization" >
   <i type="logical" name="NUCIND"> F  </i>
   <v name="MAGPOS">      0.00000000      0.00000000      0.00000000</v>
   <i type="logical" name="LNICSALL"> T  </i>
   <i type="logical" name="ORBITALMAG"> F  </i>
   <i type="logical" name="LMAGBLOCH"> F  </i>
   <i type="logical" name="LCHIMAG"> F  </i>
   <i type="logical" name="LGAUGE"> T  </i>
   <i type="int" name="MAGATOM">     0</i>
   <v name="MAGDIPOL">      0.00000000      0.00000000      0.00000000</v>
   <v name="AVECCONST">      0.00000000      0.00000000      0.00000000</v>
  </separator>
  <separator name="response functions" >
   <i type="logical" name="LADDER"> F  </i>
   <i type="logical" name="LRPAFORCE"> F  </i>
   <i type="logical" name="LFXC"> F  </i>
   <i type="logical" name="LHARTREE"> T  </i>
   <i type="int" name="IBSE">     0</i>
   <v type="int" name="KPOINT">    -1     0     0     0</v>
   <i type="logical" name="LTCTE"> F  </i>
   <i type="logical" name="LTETE"> F  </i>
   <i type="logical" name="LTRIPLET"> F  </i>
   <i type="logical" name="LFXCEPS"> F  </i>
   <i type="logical" name="LFXHEG"> F  </i>
   <i type="int" name="NATURALO">     2</i>
   <i type="logical" name="L2ORDER"> F  </i>
   <i type="logical" name="LMP2LT"> F  </i>
   <i type="logical" name="LUSEW"> F  </i>
   <i name="ENCUTGW">     -2.00000000</i>
   <i name="ENCUTGWSOFT">     -2.00000000</i>
   <i name="ENCUTLF">     -1.00000000</i>
   <i type="int" name="LMAXMP2">    -1</i>
   <i name="SCISSOR">      0.00000000</i>
   <i type="int" name="NOMEGA">     0</i>
   <i type="int" name="NOMEGAR">     0</i>
   <i type="int" name="NBANDSGW">    -1</i>
   <i type="int" name="NBANDSO">    -1</i>
   <i type="int" name="NBANDSV">    -1</i>
   <i type="int" name="NELM">   300</i>
   <i type="int" name="NELMHF">     1</i>
   <i type="int" name="DIM">     3</i>
   <i type="int" name="ANTIRES">     0</i>
   <i name="OMEGAMAX">    -30.00000000</i>
   <i name="OMEGAMIN">    -30.00000000</i>
   <i name="OMEGATL">   -200.00000000</i>
   <i type="int" name="OMEGAGRID">   140</i>
   <i name="CSHIFT">     -0.10000000</i>
   <i type="logical" name="SELFENERGY"> F  </i>
   <i type="logical" name="LSPECTRAL"> F  </i>
   <i type="logical" name="LSPECTRALGW"> F  </i>
   <i type="logical" name="LSINGLES"> F  </i>
   <i type="logical" name="LFERMIGW"> F  </i>
   <i type="logical" name="ODDONLYGW"> F  </i>
   <i type="logical" name="EVENONLYGW"> F  </i>
   <i type="int" name="NKREDLFX">     1</i>
   <i type="int" name="NKREDLFY">     1</i>
   <i type="int" name="NKREDLFZ">     1</i>
   <i type="int" name="MAXMEM">  2800</i>
   <i type="int" name="TELESCOPE">     0</i>
   <i type="int" name="TAUPAR">     1</i>
   <i type="int" name="OMEGAPAR">    -1</i>
   <i name="LAMBDA">      1.00000000</i>
  </separator>
  <separator name="External order field" >
   <i name="OFIELD_KAPPA">      0.00000000</i>
   <v name="OFIELD_K">      0.00000000      0.00000000      0.00000000</v>
   <i name="OFIELD_Q6_NEAR">      0.00000000</i>
   <i name="OFIELD_Q6_FAR">      0.00000000</i>
   <i name="OFIELD_A">      0.00000000</i>
  </separator>
 </parameters>
 <atominfo>
  <atoms>       1 </atoms>
  <types>       1 </types>
  <array name="atoms" >
   <dimension dim="1">ion</dimension>
   <field type="string">element</field>
   <field type="int">atomtype</field>
   <set>
    <rc><c>Fe</c><c>   1</c></rc>
   </set>
  </array>
  <array name="atomtypes" >
   <dimension dim="1">type</dimension>
   <field type="int">atomspertype</field>
   <field type="string">element</field>
   <field>mass</field>
   <field>valence</field>
   <field type="string">pseudopotential</field>
   <set>
    <rc><c>   1</c><c>Fe</c><c>     55.84700000</c><c>     14.00000000</c><c>  PAW_PBE Fe_pv 02Aug2007               </c></rc>
   </set>
  </array>
 </atominfo>
 <structure name="initialpos" >
  <crystal>
   <varray name="basis" >
    <v>      10.00000000       0.00000000       0.00000000 </v>
    <v>       0.00000000      10.00000000       0.00000000 </v>
    <v>       0.00000000       0.00000000      10.00000000 </v>
   </varray>
   <i name="volume">   1000.00000000 </i>
   <varray name="rec_basis" >
    <v>       0.10000000       0.00000000       0.00000000 </v>
    <v>       0.00000000       0.10000000       0.00000000 </v>
    <v>       0.00000000       0.00000000       0.10000000 </v>
   </varray>
  </crystal>
  <varray name="positions" >
   <v>       0.50000000       0.50000000       0.50000000 </v>
  </varray>
 </structure>
 <calculation>
  <scstep>
   <time name="dav">    0.28    0.28</time>
   <time name="total">    0.87    0.88</time>
   <energy>
    <i name="alphaZ">      1.25344733 </i>
    <i name="ewald">   -400.39350411 </i>
    <i name="hartreedc">  -1674.83710606 </i>
    <i name="XCdc">     68.46272848 </i>
    <i name="pawpsdc">   2001.25891430 </i>
    <i name="pawaedc">  -2091.18311427 </i>
    <i name="eentropy">     -0.00083021 </i>
    <i name="bandstr">   -345.72957184 </i>
    <i name="atom">   2457.41774339 </i>
    <i name="e_fr_energy">     16.24870701 </i>
    <i name="e_wo_entrp">     16.24953722 </i>
    <i name="e_0_energy">     16.24912211 </i>
   </energy>
  </scstep>
  <scstep>
   <time name="dav">    0.31    0.31</time>
   <time name="total">    0.31    0.31</time>
   <energy>
    <i name="e_fr_energy">     -1.27138582 </i>
    <i name="e_wo_entrp">     -1.22220404 </i>
    <i name="e_0_energy">     -1.24679493 </i>
   </energy>
  </scstep>
  <scstep>
   <time name="dav">    0.20    0.20</time>
   <time name="total">    0.20    0.20</time>
   <energy>
    <i name="e_fr_energy">     -1.39013181 </i>
    <i name="e_wo_entrp">     -1.34064204 </i>
    <i name="e_0_energy">     -1.36538692 </i>
   </energy>
  </scstep>
  <scstep>
   <time name="dav">    0.31    0.32</time>
   <time name="total">    0.32    0.32</time>
   <energy>
    <i name="e_fr_energy">     -1.39199956 </i>
    <i name="e_wo_entrp">     -1.34250978 </i>
    <i name="e_0_energy">     -1.36725467 </i>
   </energy>
  </scstep>
  <scstep>
   <time name="dav">    0.20    0.20</time>
   <time name="total">    0.44    0.44</time>
   <energy>
    <i name="e_fr_energy">     -1.39200195 </i>
    <i name="e_wo_entrp">     -1.34251217 </i>
    <i name="e_0_energy">     -1.36725706 </i>
   </energy>
  </scstep>
  <scstep>
   <time name="dav">    0.20    0.20</time>
   <time name="total">    1.01    1.01</time>
   <energy>
    <i name="e_fr_energy">      6.95507764 </i>
    <i name="e_wo_entrp">      7.02316979 </i>
    <i name="e_0_energy">      6.98912371 </i>
   </energy>
  </scstep>
  <scstep>
   <time name="dav">    0.20    0.20</time>
   <time name="total">    1.00    1.00</time>
   <energy>
    <i name="e_fr_energy">      0.92838350 </i>
    <i name="e_wo_entrp">      0.97184574 </i>
    <i name="e_0_energy">      0.95011462 </i>
   </energy>
  </scstep>
  <scstep>
   <time name="dav">    0.20    0.20</time>
   <time name="total">    0.99    0.99</time>
   <energy>
    <i name="e_fr_energy">     -1.73132292 </i>
    <i name="e_wo_entrp">     -1.70311608 </i>
    <i name="e_0_energy">     -1.71721950 </i>
   </energy>
  </scstep>
  <scstep>
   <time name="dav">    0.20    0.20</time>
   <time name="total">    1.00    1.00</time>
   <energy>
    <i name="e_fr_energy">     -0.32420087 </i>
    <i name="e_wo_entrp">     -0.29571313 </i>
    <i name="e_0_energy">     -0.30995700 </i>
   </energy>
  </scstep>
  <scstep>
   <time name="dav">    0.24    0.24</time>
   <time name="total">    1.03    1.03</time>
   <energy>
    <i name="e_fr_energy">     -1.66973603 </i>
    <i name="e_wo_entrp">     -1.65661023 </i>
    <i name="e_0_energy">     -1.66317313 </i>
   </energy>
  </scstep>
  <scstep>
   <time name="dav">    0.20    0.20</time>
   <time name="total">    1.00    1.00</time>
   <energy>
    <i name="e_fr_energy">     -2.11852272 </i>
    <i name="e_wo_entrp">     -2.11852272 </i>
    <i name="e_0_energy">     -2.11852272 </i>
   </energy>
  </scstep>
  <scstep>
   <time name="dav">    0.28    0.28</time>
   <time name="total">    1.06    1.07</time>
   <energy>
    <i name="e_fr_energy">     -2.53933234 </i>
    <i name="e_wo_entrp">     -2.50582040 </i>
    <i name="e_0_energy">     -2.52257637 </i>
   </energy>
  </scstep>
  <scstep>
   <time name="dav">    0.21    0.21</time>
   <time name="total">    0.99    0.99</time>
   <energy>
    <i name="e_fr_energy">     -3.08978647 </i>
    <i name="e_wo_entrp">     -3.05312917 </i>
    <i name="e_0_energy">     -3.07145782 </i>
   </energy>
  </scstep>
  <scstep>
   <time name="dav">    0.21    0.21</time>
   <time name="total">    1.00    1.00</time>
   <energy>
    <i name="e_fr_energy">     -3.49918933 </i>
    <i name="e_wo_entrp">     -3.49918932 </i>
    <i name="e_0_energy">     -3.49918933 </i>
   </energy>
  </scstep>
  <scstep>
   <time name="dav">    0.20    0.20</time>
   <time name="total">    1.01    1.01</time>
   <energy>
    <i name="e_fr_energy">     -3.24882376 </i>
    <i name="e_wo_entrp">     -3.21093286 </i>
    <i name="e_0_energy">     -3.22987831 </i>
   </energy>
  </scstep>
  <scstep>
   <time name="dav">    0.28    0.28</time>
   <time name="total">    1.07    1.07</time>
   <energy>
    <i name="e_fr_energy">     -3.33988673 </i>
    <i name="e_wo_entrp">     -3.32438411 </i>
    <i name="e_0_energy">     -3.33213542 </i>
   </energy>
  </scstep>
  <scstep>
   <time name="dav">    0.24    0.24</time>
   <time name="total">    1.03    1.03</time>
   <energy>
    <i name="e_fr_energy">     -3.28191679 </i>
    <i name="e_wo_entrp">     -3.25582237 </i>
    <i name="e_0_energy">     -3.26886958 </i>
   </energy>
  </scstep>
  <scstep>
   <time name="dav">    0.21    0.21</time>
   <time name="total">    1.00    1.00</time>
   <energy>
    <i name="e_fr_energy">     -3.30440998 </i>
    <i name="e_wo_entrp">     -3.27262711 </i>
    <i name="e_0_energy">     -3.28851855 </i>
   </energy>
  </scstep>
  <scstep>
   <time name="dav">    0.21    0.21</time>
   <time name="total">    1.00    1.00</time>
   <energy>
    <i name="e_fr_energy">     -3.31648852 </i>
    <i name="e_wo_entrp">     -3.27794080 </i>
    <i name="e_0_energy">     -3.29721466 </i>
   </energy>
  </scstep>
  <scstep>
   <time name="dav">    0.21    0.21</time>
   <time name="total">    1.00    1.00</time>
   <energy>
    <i name="e_fr_energy">     -3.32697591 </i>
    <i name="e_wo_entrp">     -3.28842282 </i>
    <i name="e_0_energy">     -3.30769936 </i>
   </energy>
  </scstep>
  <scstep>
   <time name="dav">    0.20    0.20</time>
   <time name="total">    0.98    0.99</time>
   <energy>
    <i name="e_fr_energy">     -3.32493638 </i>
    <i name="e_wo_entrp">     -3.28778899 </i>
    <i name="e_0_energy">     -3.30636269 </i>
   </energy>
  </scstep>
  <scstep>
   <time name="dav">    0.21    0.21</time>
   <time name="total">    0.99    1.00</time>
   <energy>
    <i name="e_fr_energy">     -3.33090179 </i>
    <i name="e_wo_entrp">     -3.29570058 </i>
    <i name="e_0_energy">     -3.31330118 </i>
   </energy>
  </scstep>
  <scstep>
   <time name="dav">    0.21    0.21</time>
   <time name="total">    1.01    1.01</time>
   <energy>
    <i name="e_fr_energy">     -3.32915374 </i>
    <i name="e_wo_entrp">     -3.29293563 </i>
    <i name="e_0_energy">     -3.31104469 </i>
   </energy>
  </scstep>
  <scstep>
   <time name="dav">    0.21    0.21</time>
   <time name="total">    1.00    1.00</time>
   <energy>
    <i name="e_fr_energy">     -3.33001123 </i>
    <i name="e_wo_entrp">     -3.29291937 </i>
    <i name="e_0_energy">     -3.31146530 </i>
   </energy>
  </scstep>
  <scstep>
   <time name="dav">    0.20    0.20</time>
   <time name="total">    0.99    0.99</time>
   <energy>
    <i name="e_fr_energy">     -3.33123050 </i>
    <i name="e_wo_entrp">     -3.29354114 </i>
    <i name="e_0_energy">     -3.31238582 </i>
   </energy>
  </scstep>
  <scstep>
   <time name="dav">    0.20    0.20</time>
   <time name="total">    0.98    0.98</time>
   <energy>
    <i name="e_fr_energy">     -3.33066341 </i>
    <i name="e_wo_entrp">     -3.29302996 </i>
    <i name="e_0_energy">     -3.31184669 </i>
   </energy>
  </scstep>
  <scstep>
   <time name="dav">    0.20    0.20</time>
   <time name="total">    0.76    0.76</time>
   <energy>
    <i name="alphaZ">      1.25344733 </i>
    <i name="ewald">   -400.39350411 </i>
    <i name="hartreedc">  -1649.02041811 </i>
    <i name="XCdc">     69.03583217 </i>
    <i name="pawpsdc">   2049.08120903 </i>
    <i name="pawaedc">  -2142.87000837 </i>
    <i name="eentropy">     -0.03693567 </i>
    <i name="bandstr">   -387.79799810 </i>
    <i name="atom">   2457.41774339 </i>
    <i name="e_fr_energy">     -3.33063244 </i>
    <i name="e_wo_entrp">     -3.29369677 </i>
    <i name="e_0_energy">     -3.31216461 </i>
   </energy>
  </scstep>
  <structure>
   <crystal>
    <varray name="basis" >
     <v>      10.00000000       0.00000000       0.00000000 </v>
     <v>       0.00000000      10.00000000       0.00000000 </v>
     <v>       0.00000000       0.00000000      10.00000000 </v>
    </varray>
    <i name="volume">   1000.00000000 </i>
    <varray name="rec_basis" >
     <v>       0.10000000       0.00000000       0.00000000 </v>
     <v>       0.00000000       0.10000000       0.00000000 </v>
     <v>       0.00000000       0.00000000       0.10000000 </v>
    </varray>
   </crystal>
   <varray name="positions" >
    <v>       0.50000000       0.50000000       0.50000000 </v>
   </varray>
  </structure>
  <varray name="forces" >
   <v>       0.00000000       0.00000000       0.00000000 </v>
  </varray>
  <varray name="stress" >
   <v>       0.72902216       0.00000000      -0.00000000 </v>
   <v>       0.00000000       0.72902216      -0.00000000 </v>
   <v>       0.00000000       0.00000000       0.72902216 </v>
  </varray>
  <energy>
   <i name="e_fr_energy">     -3.33063244 </i>
   <i name="e_wo_entrp">     -3.31216461 </i>
   <i name="e_0_energy">     -0.03693567 </i>
  </energy>
  <time name="totalsc">   31.09   31.25</time>
  <eigenvalues>
   <array>
    <dimension dim="1">band</dimension>
    <dimension dim="2">kpoint</dimension>
    <dimension dim="3">spin</dimension>
    <field>eigene</field>
    <field>occ</field>
    <set>
     <set comment="spin 1">
      <set comment="kpoint 1">
       <r>  -58.8690    1.0000 </r>
       <r>  -58.8690    1.0000 </r>
       <r>  -58.8690    1.0000 </r>
       <r>   -6.8613    1.0000 </r>
       <r>   -6.8613    1.0000 </r>
       <r>   -6.8612    1.0000 </r>
       <r>   -6.1340    1.0000 </r>
       <r>   -6.1339    1.0000 </r>
       <r>   -4.9894    1.0000 </r>
       <r>   -1.0511    0.0000 </r>
       <r>   -1.0511    0.0000 </r>
       <r>   -1.0511    0.0000 </r>
       <r>   -0.1786    0.0000 </r>
       <r>    0.9013    0.0000 </r>
       <r>    0.9013    0.0000 </r>
       <r>    1.6315    0.0000 </r>
       <r>    1.6315    0.0000 </r>
       <r>    1.6315    0.0000 </r>
       <r>    1.7972    0.0000 </r>
       <r>    1.9753    0.0000 </r>
       <r>    1.9753    0.0000 </r>
       <r>    1.9753    0.0000 </r>
       <r>    2.5206    0.0000 </r>
       <r>    2.5206    0.0000 </r>
       <r>    2.5206    0.0000 </r>
       <r>    2.6158    0.0000 </r>
       <r>    2.6158    0.0000 </r>
       <r>    3.5410    0.0000 </r>
       <r>    3.5410    0.0000 </r>
       <r>    3.5410    0.0000 </r>
       <r>    3.8129    0.0000 </r>
       <r>    3.8685    0.0000 </r>
       <r>    3.8685    0.0000 </r>
       <r>    3.8685    0.0000 </r>
       <r>    4.3926    0.0000 </r>
       <r>    4.3926    0.0000 </r>
      </set>
     </set>
     <set comment="spin 2">
      <set comment="kpoint 1">
       <r>  -55.2012    1.0000 </r>
       <r>  -55.2009    1.0000 </r>
       <r>  -55.2008    1.0000 </r>
       <r>   -3.8798    0.7488 </r>
       <r>   -3.8783    0.7350 </r>
       <r>   -3.8575    0.5161 </r>
       <r>   -2.9337    0.0000 </r>
       <r>   -2.9319    0.0000 </r>
       <r>   -2.9317    0.0000 </r>
       <r>   -0.4708    0.0000 </r>
       <r>   -0.4708    0.0000 </r>
       <r>   -0.4708    0.0000 </r>
       <r>   -0.1145    0.0000 </r>
       <r>    0.9170    0.0000 </r>
       <r>    0.9170    0.0000 </r>
       <r>    1.7168    0.0000 </r>
       <r>    1.7168    0.0000 </r>
       <r>    1.7168    0.0000 </r>
       <r>    1.8816    0.0000 </r>
       <r>    2.1431    0.0000 </r>
       <r>    2.1432    0.0000 </r>
       <r>    2.1432    0.0000 </r>
       <r>    2.4959    0.0000 </r>
       <r>    2.4959    0.0000 </r>
       <r>    2.4959    0.0000 </r>
       <r>    2.5947    0.0000 </r>
       <r>    2.5947    0.0000 </r>
       <r>    3.6740    0.0000 </r>
       <r>    3.6740    0.0000 </r>
       <r>    3.6740    0.0000 </r>
       <r>    3.7735    0.0000 </r>
       <r>    3.8890    0.0000 </r>
       <r>    3.9004    0.0000 </r>
       <r>    3.9004    0.0000 </r>
       <r>    3.9004    0.0000 </r>
       <r>    4.5211    0.0000 </r>
      </set>
     </set>
    </set>
   </array>
  </eigenvalues>
  <separator name="orbital magnetization" >
   <v name="MAGDIPOLOUT">      0.00000000      0.00000000      0.00000000</v>
  </separator>
  <dos>
   <i name="efermi">     -3.85609699 </i>
   <total>
    <array>
     <dimension dim="1">gridpoints</dimension>
     <dimension dim="2">spin</dimension>
     <field>energy</field>
     <field>total</field>
     <field>integrated</field>
     <set>
      <set comment="spin 1">
       <r>   -62.0385     0.0000     0.0000 </r>
       <r>   -61.8061     0.0000     0.0000 </r>
       <r>   -61.5737     0.0000     0.0000 </r>
       <r>   -61.3412     0.0000     0.0000 </r>
       <r>   -61.1088     0.0000     0.0000 </r>
       <r>   -60.8764     0.0000     0.0000 </r>
       <r>   -60.6439     0.0000     0.0000 </r>
       <r>   -60.4115     0.0000     0.0000 </r>
       <r>   -60.1791     0.0000     0.0000 </r>
       <r>   -59.9466     0.0000     0.0000 </r>
       <r>   -59.7142     0.0000     0.0000 </r>
       <r>   -59.4818     0.0000     0.0000 </r>
       <r>   -59.2493     0.0000     0.0000 </r>
       <r>   -59.0169     0.0002     0.0000 </r>
       <r>   -58.7845    12.7983     2.9748 </r>
       <r>   -58.5521     0.1086     3.0000 </r>
       <r>   -58.3196     0.0000     3.0000 </r>
       <r>   -58.0872     0.0000     3.0000 </r>
       <r>   -57.8548     0.0000     3.0000 </r>
       <r>   -57.6223     0.0000     3.0000 </r>
       <r>   -57.3899     0.0000     3.0000 </r>
       <r>   -57.1575     0.0000     3.0000 </r>
       <r>   -56.9250     0.0000     3.0000 </r>
       <r>   -56.6926     0.0000     3.0000 </r>
       <r>   -56.4602     0.0000     3.0000 </r>
       <r>   -56.2278     0.0000     3.0000 </r>
       <r>   -55.9953     0.0000     3.0000 </r>
       <r>   -55.7629     0.0000     3.0000 </r>
       <r>   -55.5305     0.0000     3.0000 </r>
       <r>   -55.2980     0.0000     3.0000 </r>
       <r>   -55.0656     0.0000     3.0000 </r>
       <r>   -54.8332     0.0000     3.0000 </r>
       <r>   -54.6007     0.0000     3.0000 </r>
       <r>   -54.3683     0.0000     3.0000 </r>
       <r>   -54.1359     0.0000     3.0000 </r>
       <r>   -53.9035     0.0000     3.0000 </r>
       <r>   -53.6710     0.0000     3.0000 </r>
       <r>   -53.4386     0.0000     3.0000 </r>
       <r>   -53.2062     0.0000     3.0000 </r>
       <r>   -52.9737     0.0000     3.0000 </r>
       <r>   -52.7413     0.0000     3.0000 </r>
       <r>   -52.5089     0.0000     3.0000 </r>
       <r>   -52.2764     0.0000     3.0000 </r>
       <r>   -52.0440     0.0000     3.0000 </r>
       <r>   -51.8116     0.0000     3.0000 </r>
       <r>   -51.5791     0.0000     3.0000 </r>
       <r>   -51.3467     0.0000     3.0000 </r>
       <r>   -51.1143     0.0000     3.0000 </r>
       <r>   -50.8819     0.0000     3.0000 </r>
       <r>   -50.6494     0.0000     3.0000 </r>
       <r>   -50.4170     0.0000     3.0000 </r>
       <r>   -50.1846     0.0000     3.0000 </r>
       <r>   -49.9521     0.0000     3.0000 </r>
       <r>   -49.7197     0.0000     3.0000 </r>
       <r>   -49.4873     0.0000     3.0000 </r>
       <r>   -49.2548     0.0000     3.0000 </r>
       <r>   -49.0224     0.0000     3.0000 </r>
       <r>   -48.7900     0.0000     3.0000 </r>
       <r>   -48.5576     0.0000     3.0000 </r>
       <r>   -48.3251     0.0000     3.0000 </r>
       <r>   -48.0927     0.0000     3.0000 </r>
       <r>   -47.8603     0.0000     3.0000 </r>
       <r>   -47.6278     0.0000     3.0000 </r>
       <r>   -47.3954     0.0000     3.0000 </r>
       <r>   -47.1630     0.0000     3.0000 </r>
       <r>   -46.9305     0.0000     3.0000 </r>
       <r>   -46.6981     0.0000     3.0000 </r>
       <r>   -46.4657     0.0000     3.0000 </r>
       <r>   -46.2333     0.0000     3.0000 </r>
       <r>   -46.0008     0.0000     3.0000 </r>
       <r>   -45.7684     0.0000     3.0000 </r>
       <r>   -45.5360     0.0000     3.0000 </r>
       <r>   -45.3035     0.0000     3.0000 </r>
       <r>   -45.0711     0.0000     3.0000 </r>
       <r>   -44.8387     0.0000     3.0000 </r>
       <r>   -44.6062     0.0000     3.0000 </r>
       <r>   -44.3738     0.0000     3.0000 </r>
       <r>   -44.1414     0.0000     3.0000 </r>
       <r>   -43.9089     0.0000     3.0000 </r>
       <r>   -43.6765     0.0000     3.0000 </r>
       <r>   -43.4441     0.0000     3.0000 </r>
       <r>   -43.2117     0.0000     3.0000 </r>
       <r>   -42.9792     0.0000     3.0000 </r>
       <r>   -42.7468     0.0000     3.0000 </r>
       <r>   -42.5144     0.0000     3.0000 </r>
       <r>   -42.2819     0.0000     3.0000 </r>
       <r>   -42.0495     0.0000     3.0000 </r>
       <r>   -41.8171     0.0000     3.0000 </r>
       <r>   -41.5846     0.0000     3.0000 </r>
       <r>   -41.3522     0.0000     3.0000 </r>
       <r>   -41.1198     0.0000     3.0000 </r>
       <r>   -40.8874     0.0000     3.0000 </r>
       <r>   -40.6549     0.0000     3.0000 </r>
       <r>   -40.4225     0.0000     3.0000 </r>
       <r>   -40.1901     0.0000     3.0000 </r>
       <r>   -39.9576     0.0000     3.0000 </r>
       <r>   -39.7252     0.0000     3.0000 </r>
       <r>   -39.4928     0.0000     3.0000 </r>
       <r>   -39.2603     0.0000     3.0000 </r>
       <r>   -39.0279     0.0000     3.0000 </r>
       <r>   -38.7955     0.0000     3.0000 </r>
       <r>   -38.5631     0.0000     3.0000 </r>
       <r>   -38.3306     0.0000     3.0000 </r>
       <r>   -38.0982     0.0000     3.0000 </r>
       <r>   -37.8658     0.0000     3.0000 </r>
       <r>   -37.6333     0.0000     3.0000 </r>
       <r>   -37.4009     0.0000     3.0000 </r>
       <r>   -37.1685     0.0000     3.0000 </r>
       <r>   -36.9360     0.0000     3.0000 </r>
       <r>   -36.7036     0.0000     3.0000 </r>
       <r>   -36.4712     0.0000     3.0000 </r>
       <r>   -36.2387     0.0000     3.0000 </r>
       <r>   -36.0063     0.0000     3.0000 </r>
       <r>   -35.7739     0.0000     3.0000 </r>
       <r>   -35.5415     0.0000     3.0000 </r>
       <r>   -35.3090     0.0000     3.0000 </r>
       <r>   -35.0766     0.0000     3.0000 </r>
       <r>   -34.8442     0.0000     3.0000 </r>
       <r>   -34.6117     0.0000     3.0000 </r>
       <r>   -34.3793     0.0000     3.0000 </r>
       <r>   -34.1469     0.0000     3.0000 </r>
       <r>   -33.9144     0.0000     3.0000 </r>
       <r>   -33.6820     0.0000     3.0000 </r>
       <r>   -33.4496     0.0000     3.0000 </r>
       <r>   -33.2172     0.0000     3.0000 </r>
       <r>   -32.9847     0.0000     3.0000 </r>
       <r>   -32.7523     0.0000     3.0000 </r>
       <r>   -32.5199     0.0000     3.0000 </r>
       <r>   -32.2874     0.0000     3.0000 </r>
       <r>   -32.0550     0.0000     3.0000 </r>
       <r>   -31.8226     0.0000     3.0000 </r>
       <r>   -31.5901     0.0000     3.0000 </r>
       <r>   -31.3577     0.0000     3.0000 </r>
       <r>   -31.1253     0.0000     3.0000 </r>
       <r>   -30.8929     0.0000     3.0000 </r>
       <r>   -30.6604     0.0000     3.0000 </r>
       <r>   -30.4280     0.0000     3.0000 </r>
       <r>   -30.1956     0.0000     3.0000 </r>
       <r>   -29.9631     0.0000     3.0000 </r>
       <r>   -29.7307     0.0000     3.0000 </r>
       <r>   -29.4983     0.0000     3.0000 </r>
       <r>   -29.2658     0.0000     3.0000 </r>
       <r>   -29.0334     0.0000     3.0000 </r>
       <r>   -28.8010     0.0000     3.0000 </r>
       <r>   -28.5685     0.0000     3.0000 </r>
       <r>   -28.3361     0.0000     3.0000 </r>
       <r>   -28.1037     0.0000     3.0000 </r>
       <r>   -27.8713     0.0000     3.0000 </r>
       <r>   -27.6388     0.0000     3.0000 </r>
       <r>   -27.4064     0.0000     3.0000 </r>
       <r>   -27.1740     0.0000     3.0000 </r>
       <r>   -26.9415     0.0000     3.0000 </r>
       <r>   -26.7091     0.0000     3.0000 </r>
       <r>   -26.4767     0.0000     3.0000 </r>
       <r>   -26.2442     0.0000     3.0000 </r>
       <r>   -26.0118     0.0000     3.0000 </r>
       <r>   -25.7794     0.0000     3.0000 </r>
       <r>   -25.5470     0.0000     3.0000 </r>
       <r>   -25.3145     0.0000     3.0000 </r>
       <r>   -25.0821     0.0000     3.0000 </r>
       <r>   -24.8497     0.0000     3.0000 </r>
       <r>   -24.6172     0.0000     3.0000 </r>
       <r>   -24.3848     0.0000     3.0000 </r>
       <r>   -24.1524     0.0000     3.0000 </r>
       <r>   -23.9199     0.0000     3.0000 </r>
       <r>   -23.6875     0.0000     3.0000 </r>
       <r>   -23.4551     0.0000     3.0000 </r>
       <r>   -23.2227     0.0000     3.0000 </r>
       <r>   -22.9902     0.0000     3.0000 </r>
       <r>   -22.7578     0.0000     3.0000 </r>
       <r>   -22.5254     0.0000     3.0000 </r>
       <r>   -22.2929     0.0000     3.0000 </r>
       <r>   -22.0605     0.0000     3.0000 </r>
       <r>   -21.8281     0.0000     3.0000 </r>
       <r>   -21.5956     0.0000     3.0000 </r>
       <r>   -21.3632     0.0000     3.0000 </r>
       <r>   -21.1308     0.0000     3.0000 </r>
       <r>   -20.8983     0.0000     3.0000 </r>
       <r>   -20.6659     0.0000     3.0000 </r>
       <r>   -20.4335     0.0000     3.0000 </r>
       <r>   -20.2011     0.0000     3.0000 </r>
       <r>   -19.9686     0.0000     3.0000 </r>
       <r>   -19.7362     0.0000     3.0000 </r>
       <r>   -19.5038     0.0000     3.0000 </r>
       <r>   -19.2713     0.0000     3.0000 </r>
       <r>   -19.0389     0.0000     3.0000 </r>
       <r>   -18.8065     0.0000     3.0000 </r>
       <r>   -18.5740     0.0000     3.0000 </r>
       <r>   -18.3416     0.0000     3.0000 </r>
       <r>   -18.1092     0.0000     3.0000 </r>
       <r>   -17.8768     0.0000     3.0000 </r>
       <r>   -17.6443     0.0000     3.0000 </r>
       <r>   -17.4119     0.0000     3.0000 </r>
       <r>   -17.1795     0.0000     3.0000 </r>
       <r>   -16.9470     0.0000     3.0000 </r>
       <r>   -16.7146     0.0000     3.0000 </r>
       <r>   -16.4822     0.0000     3.0000 </r>
       <r>   -16.2497     0.0000     3.0000 </r>
       <r>   -16.0173     0.0000     3.0000 </r>
       <r>   -15.7849     0.0000     3.0000 </r>
       <r>   -15.5525     0.0000     3.0000 </r>
       <r>   -15.3200     0.0000     3.0000 </r>
       <r>   -15.0876     0.0000     3.0000 </r>
       <r>   -14.8552     0.0000     3.0000 </r>
       <r>   -14.6227     0.0000     3.0000 </r>
       <r>   -14.3903     0.0000     3.0000 </r>
       <r>   -14.1579     0.0000     3.0000 </r>
       <r>   -13.9254     0.0000     3.0000 </r>
       <r>   -13.6930     0.0000     3.0000 </r>
       <r>   -13.4606     0.0000     3.0000 </r>
       <r>   -13.2281     0.0000     3.0000 </r>
       <r>   -12.9957     0.0000     3.0000 </r>
       <r>   -12.7633     0.0000     3.0000 </r>
       <r>   -12.5309     0.0000     3.0000 </r>
       <r>   -12.2984     0.0000     3.0000 </r>
       <r>   -12.0660     0.0000     3.0000 </r>
       <r>   -11.8336     0.0000     3.0000 </r>
       <r>   -11.6011     0.0000     3.0000 </r>
       <r>   -11.3687     0.0000     3.0000 </r>
       <r>   -11.1363     0.0000     3.0000 </r>
       <r>   -10.9038     0.0000     3.0000 </r>
       <r>   -10.6714     0.0000     3.0000 </r>
       <r>   -10.4390     0.0000     3.0000 </r>
       <r>   -10.2066     0.0000     3.0000 </r>
       <r>    -9.9741     0.0000     3.0000 </r>
       <r>    -9.7417     0.0000     3.0000 </r>
       <r>    -9.5093     0.0000     3.0000 </r>
       <r>    -9.2768     0.0000     3.0000 </r>
       <r>    -9.0444     0.0000     3.0000 </r>
       <r>    -8.8120     0.0000     3.0000 </r>
       <r>    -8.5795     0.0000     3.0000 </r>
       <r>    -8.3471     0.0000     3.0000 </r>
       <r>    -8.1147     0.0000     3.0000 </r>
       <r>    -7.8823     0.0000     3.0000 </r>
       <r>    -7.6498     0.0000     3.0000 </r>
       <r>    -7.4174     0.0000     3.0000 </r>
       <r>    -7.1850     0.0000     3.0000 </r>
       <r>    -6.9525     0.0635     3.0148 </r>
       <r>    -6.7201    12.8432     5.9999 </r>
       <r>    -6.4877     0.0004     6.0000 </r>
       <r>    -6.2552     0.0026     6.0006 </r>
       <r>    -6.0228     8.5949     7.9983 </r>
       <r>    -5.7904     0.0072     8.0000 </r>
       <r>    -5.5579     0.0000     8.0000 </r>
       <r>    -5.3255     0.0000     8.0000 </r>
       <r>    -5.0931     0.0072     8.0017 </r>
       <r>    -4.8607     4.2945     8.9999 </r>
       <r>    -4.6282     0.0006     9.0000 </r>
       <r>    -4.3958     0.0000     9.0000 </r>
       <r>    -4.1634     0.0000     9.0000 </r>
       <r>    -3.9309     0.0000     9.0000 </r>
       <r>    -3.6985     0.0000     9.0000 </r>
       <r>    -3.4661     0.0000     9.0000 </r>
       <r>    -3.2336     0.0000     9.0000 </r>
       <r>    -3.0012     0.0000     9.0000 </r>
       <r>    -2.7688     0.0000     9.0000 </r>
       <r>    -2.5364     0.0000     9.0000 </r>
       <r>    -2.3039     0.0000     9.0000 </r>
       <r>    -2.0715     0.0000     9.0000 </r>
       <r>    -1.8391     0.0000     9.0000 </r>
       <r>    -1.6066     0.0000     9.0000 </r>
       <r>    -1.3742     0.0000     9.0000 </r>
       <r>    -1.1418     0.0668     9.0155 </r>
       <r>    -0.9093    12.8399    11.9999 </r>
       <r>    -0.6769     0.0004    12.0000 </r>
       <r>    -0.4445     0.0000    12.0000 </r>
       <r>    -0.2121     0.7405    12.1721 </r>
       <r>     0.0204     3.5619    13.0000 </r>
       <r>     0.2528     0.0000    13.0000 </r>
       <r>     0.4852     0.0000    13.0000 </r>
       <r>     0.7177     0.0000    13.0000 </r>
       <r>     0.9501     7.8831    14.8323 </r>
       <r>     1.1825     0.7217    15.0000 </r>
       <r>     1.4150     0.0000    15.0000 </r>
       <r>     1.6474     8.6960    17.0212 </r>
       <r>     1.8798     8.5163    19.0007 </r>
       <r>     2.1123    12.9035    21.9998 </r>
       <r>     2.3447     0.0007    22.0000 </r>
       <r>     2.5771    13.3749    25.1087 </r>
       <r>     2.8095     8.1369    27.0000 </r>
       <r>     3.0420     0.0000    27.0000 </r>
       <r>     3.2744     0.0000    27.0000 </r>
       <r>     3.5068     2.1511    27.5000 </r>
       <r>     3.7393    10.8378    30.0190 </r>
       <r>     3.9717    17.1049    33.9947 </r>
       <r>     4.2041     0.0228    34.0000 </r>
       <r>     4.4366     7.6870    35.7867 </r>
       <r>     4.6690     0.9178    36.0000 </r>
       <r>     4.9014     0.0000    36.0000 </r>
       <r>     5.1338     0.0000    36.0000 </r>
       <r>     5.3663     0.0000    36.0000 </r>
       <r>     5.5987     0.0000    36.0000 </r>
       <r>     5.8311     0.0000    36.0000 </r>
       <r>     6.0636     0.0000    36.0000 </r>
       <r>     6.2960     0.0000    36.0000 </r>
       <r>     6.5284     0.0000    36.0000 </r>
       <r>     6.7609     0.0000    36.0000 </r>
       <r>     6.9933     0.0000    36.0000 </r>
       <r>     7.2257     0.0000    36.0000 </r>
       <r>     7.4581     0.0000    36.0000 </r>
       <r>     7.6906     0.0000    36.0000 </r>
      </set>
      <set comment="spin 2">
       <r>   -62.0385     0.0000     0.0000 </r>
       <r>   -61.8061     0.0000     0.0000 </r>
       <r>   -61.5737     0.0000     0.0000 </r>
       <r>   -61.3412     0.0000     0.0000 </r>
       <r>   -61.1088     0.0000     0.0000 </r>
       <r>   -60.8764     0.0000     0.0000 </r>
       <r>   -60.6439     0.0000     0.0000 </r>
       <r>   -60.4115     0.0000     0.0000 </r>
       <r>   -60.1791     0.0000     0.0000 </r>
       <r>   -59.9466     0.0000     0.0000 </r>
       <r>   -59.7142     0.0000     0.0000 </r>
       <r>   -59.4818     0.0000     0.0000 </r>
       <r>   -59.2493     0.0000     0.0000 </r>
       <r>   -59.0169     0.0000     0.0000 </r>
       <r>   -58.7845     0.0000     0.0000 </r>
       <r>   -58.5521     0.0000     0.0000 </r>
       <r>   -58.3196     0.0000     0.0000 </r>
       <r>   -58.0872     0.0000     0.0000 </r>
       <r>   -57.8548     0.0000     0.0000 </r>
       <r>   -57.6223     0.0000     0.0000 </r>
       <r>   -57.3899     0.0000     0.0000 </r>
       <r>   -57.1575     0.0000     0.0000 </r>
       <r>   -56.9250     0.0000     0.0000 </r>
       <r>   -56.6926     0.0000     0.0000 </r>
       <r>   -56.4602     0.0000     0.0000 </r>
       <r>   -56.2278     0.0000     0.0000 </r>
       <r>   -55.9953     0.0000     0.0000 </r>
       <r>   -55.7629     0.0000     0.0000 </r>
       <r>   -55.5305     0.0000     0.0000 </r>
       <r>   -55.2980     0.0390     0.0091 </r>
       <r>   -55.0656    12.8672     2.9998 </r>
       <r>   -54.8332     0.0008     3.0000 </r>
       <r>   -54.6007     0.0000     3.0000 </r>
       <r>   -54.3683     0.0000     3.0000 </r>
       <r>   -54.1359     0.0000     3.0000 </r>
       <r>   -53.9035     0.0000     3.0000 </r>
       <r>   -53.6710     0.0000     3.0000 </r>
       <r>   -53.4386     0.0000     3.0000 </r>
       <r>   -53.2062     0.0000     3.0000 </r>
       <r>   -52.9737     0.0000     3.0000 </r>
       <r>   -52.7413     0.0000     3.0000 </r>
       <r>   -52.5089     0.0000     3.0000 </r>
       <r>   -52.2764     0.0000     3.0000 </r>
       <r>   -52.0440     0.0000     3.0000 </r>
       <r>   -51.8116     0.0000     3.0000 </r>
       <r>   -51.5791     0.0000     3.0000 </r>
       <r>   -51.3467     0.0000     3.0000 </r>
       <r>   -51.1143     0.0000     3.0000 </r>
       <r>   -50.8819     0.0000     3.0000 </r>
       <r>   -50.6494     0.0000     3.0000 </r>
       <r>   -50.4170     0.0000     3.0000 </r>
       <r>   -50.1846     0.0000     3.0000 </r>
       <r>   -49.9521     0.0000     3.0000 </r>
       <r>   -49.7197     0.0000     3.0000 </r>
       <r>   -49.4873     0.0000     3.0000 </r>
       <r>   -49.2548     0.0000     3.0000 </r>
       <r>   -49.0224     0.0000     3.0000 </r>
       <r>   -48.7900     0.0000     3.0000 </r>
       <r>   -48.5576     0.0000     3.0000 </r>
       <r>   -48.3251     0.0000     3.0000 </r>
       <r>   -48.0927     0.0000     3.0000 </r>
       <r>   -47.8603     0.0000     3.0000 </r>
       <r>   -47.6278     0.0000     3.0000 </r>
       <r>   -47.3954     0.0000     3.0000 </r>
       <r>   -47.1630     0.0000     3.0000 </r>
       <r>   -46.9305     0.0000     3.0000 </r>
       <r>   -46.6981     0.0000     3.0000 </r>
       <r>   -46.4657     0.0000     3.0000 </r>
       <r>   -46.2333     0.0000     3.0000 </r>
       <r>   -46.0008     0.0000     3.0000 </r>
       <r>   -45.7684     0.0000     3.0000 </r>
       <r>   -45.5360     0.0000     3.0000 </r>
       <r>   -45.3035     0.0000     3.0000 </r>
       <r>   -45.0711     0.0000     3.0000 </r>
       <r>   -44.8387     0.0000     3.0000 </r>
       <r>   -44.6062     0.0000     3.0000 </r>
       <r>   -44.3738     0.0000     3.0000 </r>
       <r>   -44.1414     0.0000     3.0000 </r>
       <r>   -43.9089     0.0000     3.0000 </r>
       <r>   -43.6765     0.0000     3.0000 </r>
       <r>   -43.4441     0.0000     3.0000 </r>
       <r>   -43.2117     0.0000     3.0000 </r>
       <r>   -42.9792     0.0000     3.0000 </r>
       <r>   -42.7468     0.0000     3.0000 </r>
       <r>   -42.5144     0.0000     3.0000 </r>
       <r>   -42.2819     0.0000     3.0000 </r>
       <r>   -42.0495     0.0000     3.0000 </r>
       <r>   -41.8171     0.0000     3.0000 </r>
       <r>   -41.5846     0.0000     3.0000 </r>
       <r>   -41.3522     0.0000     3.0000 </r>
       <r>   -41.1198     0.0000     3.0000 </r>
       <r>   -40.8874     0.0000     3.0000 </r>
       <r>   -40.6549     0.0000     3.0000 </r>
       <r>   -40.4225     0.0000     3.0000 </r>
       <r>   -40.1901     0.0000     3.0000 </r>
       <r>   -39.9576     0.0000     3.0000 </r>
       <r>   -39.7252     0.0000     3.0000 </r>
       <r>   -39.4928     0.0000     3.0000 </r>
       <r>   -39.2603     0.0000     3.0000 </r>
       <r>   -39.0279     0.0000     3.0000 </r>
       <r>   -38.7955     0.0000     3.0000 </r>
       <r>   -38.5631     0.0000     3.0000 </r>
       <r>   -38.3306     0.0000     3.0000 </r>
       <r>   -38.0982     0.0000     3.0000 </r>
       <r>   -37.8658     0.0000     3.0000 </r>
       <r>   -37.6333     0.0000     3.0000 </r>
       <r>   -37.4009     0.0000     3.0000 </r>
       <r>   -37.1685     0.0000     3.0000 </r>
       <r>   -36.9360     0.0000     3.0000 </r>
       <r>   -36.7036     0.0000     3.0000 </r>
       <r>   -36.4712     0.0000     3.0000 </r>
       <r>   -36.2387     0.0000     3.0000 </r>
       <r>   -36.0063     0.0000     3.0000 </r>
       <r>   -35.7739     0.0000     3.0000 </r>
       <r>   -35.5415     0.0000     3.0000 </r>
       <r>   -35.3090     0.0000     3.0000 </r>
       <r>   -35.0766     0.0000     3.0000 </r>
       <r>   -34.8442     0.0000     3.0000 </r>
       <r>   -34.6117     0.0000     3.0000 </r>
       <r>   -34.3793     0.0000     3.0000 </r>
       <r>   -34.1469     0.0000     3.0000 </r>
       <r>   -33.9144     0.0000     3.0000 </r>
       <r>   -33.6820     0.0000     3.0000 </r>
       <r>   -33.4496     0.0000     3.0000 </r>
       <r>   -33.2172     0.0000     3.0000 </r>
       <r>   -32.9847     0.0000     3.0000 </r>
       <r>   -32.7523     0.0000     3.0000 </r>
       <r>   -32.5199     0.0000     3.0000 </r>
       <r>   -32.2874     0.0000     3.0000 </r>
       <r>   -32.0550     0.0000     3.0000 </r>
       <r>   -31.8226     0.0000     3.0000 </r>
       <r>   -31.5901     0.0000     3.0000 </r>
       <r>   -31.3577     0.0000     3.0000 </r>
       <r>   -31.1253     0.0000     3.0000 </r>
       <r>   -30.8929     0.0000     3.0000 </r>
       <r>   -30.6604     0.0000     3.0000 </r>
       <r>   -30.4280     0.0000     3.0000 </r>
       <r>   -30.1956     0.0000     3.0000 </r>
       <r>   -29.9631     0.0000     3.0000 </r>
       <r>   -29.7307     0.0000     3.0000 </r>
       <r>   -29.4983     0.0000     3.0000 </r>
       <r>   -29.2658     0.0000     3.0000 </r>
       <r>   -29.0334     0.0000     3.0000 </r>
       <r>   -28.8010     0.0000     3.0000 </r>
       <r>   -28.5685     0.0000     3.0000 </r>
       <r>   -28.3361     0.0000     3.0000 </r>
       <r>   -28.1037     0.0000     3.0000 </r>
       <r>   -27.8713     0.0000     3.0000 </r>
       <r>   -27.6388     0.0000     3.0000 </r>
       <r>   -27.4064     0.0000     3.0000 </r>
       <r>   -27.1740     0.0000     3.0000 </r>
       <r>   -26.9415     0.0000     3.0000 </r>
       <r>   -26.7091     0.0000     3.0000 </r>
       <r>   -26.4767     0.0000     3.0000 </r>
       <r>   -26.2442     0.0000     3.0000 </r>
       <r>   -26.0118     0.0000     3.0000 </r>
       <r>   -25.7794     0.0000     3.0000 </r>
       <r>   -25.5470     0.0000     3.0000 </r>
       <r>   -25.3145     0.0000     3.0000 </r>
       <r>   -25.0821     0.0000     3.0000 </r>
       <r>   -24.8497     0.0000     3.0000 </r>
       <r>   -24.6172     0.0000     3.0000 </r>
       <r>   -24.3848     0.0000     3.0000 </r>
       <r>   -24.1524     0.0000     3.0000 </r>
       <r>   -23.9199     0.0000     3.0000 </r>
       <r>   -23.6875     0.0000     3.0000 </r>
       <r>   -23.4551     0.0000     3.0000 </r>
       <r>   -23.2227     0.0000     3.0000 </r>
       <r>   -22.9902     0.0000     3.0000 </r>
       <r>   -22.7578     0.0000     3.0000 </r>
       <r>   -22.5254     0.0000     3.0000 </r>
       <r>   -22.2929     0.0000     3.0000 </r>
       <r>   -22.0605     0.0000     3.0000 </r>
       <r>   -21.8281     0.0000     3.0000 </r>
       <r>   -21.5956     0.0000     3.0000 </r>
       <r>   -21.3632     0.0000     3.0000 </r>
       <r>   -21.1308     0.0000     3.0000 </r>
       <r>   -20.8983     0.0000     3.0000 </r>
       <r>   -20.6659     0.0000     3.0000 </r>
       <r>   -20.4335     0.0000     3.0000 </r>
       <r>   -20.2011     0.0000     3.0000 </r>
       <r>   -19.9686     0.0000     3.0000 </r>
       <r>   -19.7362     0.0000     3.0000 </r>
       <r>   -19.5038     0.0000     3.0000 </r>
       <r>   -19.2713     0.0000     3.0000 </r>
       <r>   -19.0389     0.0000     3.0000 </r>
       <r>   -18.8065     0.0000     3.0000 </r>
       <r>   -18.5740     0.0000     3.0000 </r>
       <r>   -18.3416     0.0000     3.0000 </r>
       <r>   -18.1092     0.0000     3.0000 </r>
       <r>   -17.8768     0.0000     3.0000 </r>
       <r>   -17.6443     0.0000     3.0000 </r>
       <r>   -17.4119     0.0000     3.0000 </r>
       <r>   -17.1795     0.0000     3.0000 </r>
       <r>   -16.9470     0.0000     3.0000 </r>
       <r>   -16.7146     0.0000     3.0000 </r>
       <r>   -16.4822     0.0000     3.0000 </r>
       <r>   -16.2497     0.0000     3.0000 </r>
       <r>   -16.0173     0.0000     3.0000 </r>
       <r>   -15.7849     0.0000     3.0000 </r>
       <r>   -15.5525     0.0000     3.0000 </r>
       <r>   -15.3200     0.0000     3.0000 </r>
       <r>   -15.0876     0.0000     3.0000 </r>
       <r>   -14.8552     0.0000     3.0000 </r>
       <r>   -14.6227     0.0000     3.0000 </r>
       <r>   -14.3903     0.0000     3.0000 </r>
       <r>   -14.1579     0.0000     3.0000 </r>
       <r>   -13.9254     0.0000     3.0000 </r>
       <r>   -13.6930     0.0000     3.0000 </r>
       <r>   -13.4606     0.0000     3.0000 </r>
       <r>   -13.2281     0.0000     3.0000 </r>
       <r>   -12.9957     0.0000     3.0000 </r>
       <r>   -12.7633     0.0000     3.0000 </r>
       <r>   -12.5309     0.0000     3.0000 </r>
       <r>   -12.2984     0.0000     3.0000 </r>
       <r>   -12.0660     0.0000     3.0000 </r>
       <r>   -11.8336     0.0000     3.0000 </r>
       <r>   -11.6011     0.0000     3.0000 </r>
       <r>   -11.3687     0.0000     3.0000 </r>
       <r>   -11.1363     0.0000     3.0000 </r>
       <r>   -10.9038     0.0000     3.0000 </r>
       <r>   -10.6714     0.0000     3.0000 </r>
       <r>   -10.4390     0.0000     3.0000 </r>
       <r>   -10.2066     0.0000     3.0000 </r>
       <r>    -9.9741     0.0000     3.0000 </r>
       <r>    -9.7417     0.0000     3.0000 </r>
       <r>    -9.5093     0.0000     3.0000 </r>
       <r>    -9.2768     0.0000     3.0000 </r>
       <r>    -9.0444     0.0000     3.0000 </r>
       <r>    -8.8120     0.0000     3.0000 </r>
       <r>    -8.5795     0.0000     3.0000 </r>
       <r>    -8.3471     0.0000     3.0000 </r>
       <r>    -8.1147     0.0000     3.0000 </r>
       <r>    -7.8823     0.0000     3.0000 </r>
       <r>    -7.6498     0.0000     3.0000 </r>
       <r>    -7.4174     0.0000     3.0000 </r>
       <r>    -7.1850     0.0000     3.0000 </r>
       <r>    -6.9525     0.0000     3.0000 </r>
       <r>    -6.7201     0.0000     3.0000 </r>
       <r>    -6.4877     0.0000     3.0000 </r>
       <r>    -6.2552     0.0000     3.0000 </r>
       <r>    -6.0228     0.0000     3.0000 </r>
       <r>    -5.7904     0.0000     3.0000 </r>
       <r>    -5.5579     0.0000     3.0000 </r>
       <r>    -5.3255     0.0000     3.0000 </r>
       <r>    -5.0931     0.0000     3.0000 </r>
       <r>    -4.8607     0.0000     3.0000 </r>
       <r>    -4.6282     0.0000     3.0000 </r>
       <r>    -4.3958     0.0000     3.0000 </r>
       <r>    -4.1634     0.0000     3.0000 </r>
       <r>    -3.9309     0.6941     3.1613 </r>
       <r>    -3.6985    12.2130     6.0000 </r>
       <r>    -3.4661     0.0000     6.0000 </r>
       <r>    -3.2336     0.0000     6.0000 </r>
       <r>    -3.0012     0.3340     6.0776 </r>
       <r>    -2.7688    12.5731     9.0000 </r>
       <r>    -2.5364     0.0000     9.0000 </r>
       <r>    -2.3039     0.0000     9.0000 </r>
       <r>    -2.0715     0.0000     9.0000 </r>
       <r>    -1.8391     0.0000     9.0000 </r>
       <r>    -1.6066     0.0000     9.0000 </r>
       <r>    -1.3742     0.0000     9.0000 </r>
       <r>    -1.1418     0.0000     9.0000 </r>
       <r>    -0.9093     0.0000     9.0000 </r>
       <r>    -0.6769     0.0000     9.0000 </r>
       <r>    -0.4445     9.9584    11.3146 </r>
       <r>    -0.2121     2.9612    12.0029 </r>
       <r>     0.0204     4.2896    12.9999 </r>
       <r>     0.2528     0.0003    13.0000 </r>
       <r>     0.4852     0.0000    13.0000 </r>
       <r>     0.7177     0.0000    13.0000 </r>
       <r>     0.9501     7.1050    14.6514 </r>
       <r>     1.1825     1.4997    15.0000 </r>
       <r>     1.4150     0.0000    15.0000 </r>
       <r>     1.6474     0.3212    15.0746 </r>
       <r>     1.8798    14.6505    18.4799 </r>
       <r>     2.1123     4.7031    19.5730 </r>
       <r>     2.3447    10.4419    22.0000 </r>
       <r>     2.5771    15.4335    25.5872 </r>
       <r>     2.8095     6.0782    27.0000 </r>
       <r>     3.0420     0.0000    27.0000 </r>
       <r>     3.2744     0.0000    27.0000 </r>
       <r>     3.5068     0.0000    27.0000 </r>
       <r>     3.7393    13.2045    30.0691 </r>
       <r>     3.9717    20.8910    34.9248 </r>
       <r>     4.2041     0.3234    35.0000 </r>
       <r>     4.4366     0.0362    35.0084 </r>
       <r>     4.6690     4.2661    36.0000 </r>
       <r>     4.9014     0.0001    36.0000 </r>
       <r>     5.1338     0.0000    36.0000 </r>
       <r>     5.3663     0.0000    36.0000 </r>
       <r>     5.5987     0.0000    36.0000 </r>
       <r>     5.8311     0.0000    36.0000 </r>
       <r>     6.0636     0.0000    36.0000 </r>
       <r>     6.2960     0.0000    36.0000 </r>
       <r>     6.5284     0.0000    36.0000 </r>
       <r>     6.7609     0.0000    36.0000 </r>
       <r>     6.9933     0.0000    36.0000 </r>
       <r>     7.2257     0.0000    36.0000 </r>
       <r>     7.4581     0.0000    36.0000 </r>
       <r>     7.6906     0.0000    36.0000 </r>
      </set>
     </set>
    </array>
   </total>
   <partial>
    <array>
     <dimension dim="1">gridpoints</dimension>
     <dimension dim="2">spin</dimension>
     <dimension dim="3">ion</dimension>
     <field>energy</field>
     <field>    s</field>
     <field>   py</field>
     <field>   pz</field>
     <field>   px</field>
     <field>  dxy</field>
     <field>  dyz</field>
     <field>  dz2</field>
     <field>  dxz</field>
     <field>x2-y2</field>
     <set>
      <set comment="ion 1">
       <set comment="spin 1">
        <r>   -62.0385     0.0000     0.0000     0.0000     0.0000     0.0000     0.0000     0.0000     0.0000     0.0000 </r>
        <r>   -61.8061     0.0000     0.0000     0.0000     0.0000     0.0000     0.0000     0.0000     0.0000     0.0000 </r>
        <r>   -61.5737     0.0000     0.0000     0.0000     0.0000     0.0000     0.0000     0.0000     0.0000     0.0000 </r>
        <r>   -61.3412     0.0000     0.0000     0.0000     0.0000     0.0000     0.0000     0.0000     0.0000     0.0000 </r>
        <r>   -61.1088     0.0000     0.0000     0.0000     0.0000     0.0000     0.0000     0.0000     0.0000     0.0000 </r>
        <r>   -60.8764     0.0000     0.0000     0.0000     0.0000     0.0000     0.0000     0.0000     0.0000     0.0000 </r>
        <r>   -60.6439     0.0000     0.0000     0.0000     0.0000     0.0000     0.0000     0.0000     0.0000     0.0000 </r>
        <r>   -60.4115     0.0000     0.0000     0.0000     0.0000     0.0000     0.0000     0.0000     0.0000     0.0000 </r>
        <r>   -60.1791     0.0000     0.0000     0.0000     0.0000     0.0000     0.0000     0.0000     0.0000     0.0000 </r>
        <r>   -59.9466     0.0000     0.0000     0.0000     0.0000     0.0000     0.0000     0.0000     0.0000     0.0000 </r>
        <r>   -59.7142     0.0000     0.0000     0.0000     0.0000     0.0000     0.0000     0.0000     0.0000     0.0000 </r>
        <r>   -59.4818     0.0000     0.0000     0.0000     0.0000     0.0000     0.0000     0.0000     0.0000     0.0000 </r>
        <r>   -59.2493     0.0000     0.0000     0.0000     0.0000     0.0000     0.0000     0.0000     0.0000     0.0000 </r>
        <r>   -59.0169     0.0000     0.0001     0.0001     0.0001     0.0000     0.0000     0.0000     0.0000     0.0000 </r>
        <r>   -58.7845     0.0000     4.2507     4.2507     4.2507     0.0000     0.0000     0.0000     0.0000     0.0000 </r>
        <r>   -58.5521     0.0000     0.0361     0.0361     0.0361     0.0000     0.0000     0.0000     0.0000     0.0000 </r>
        <r>   -58.3196     0.0000     0.0000     0.0000     0.0000     0.0000     0.0000     0.0000     0.0000     0.0000 </r>
        <r>   -58.0872     0.0000     0.0000     0.0000     0.0000     0.0000     0.0000     0.0000     0.0000     0.0000 </r>
        <r>   -57.8548     0.0000     0.0000     0.0000     0.0000     0.0000     0.0000     0.0000     0.0000     0.0000 </r>
        <r>   -57.6223     0.0000     0.0000     0.0000     0.0000     0.0000     0.0000     0.0000     0.0000     0.0000 </r>
        <r>   -57.3899     0.0000     0.0000     0.0000     0.0000     0.0000     0.0000     0.0000     0.0000     0.0000 </r>
        <r>   -57.1575     0.0000     0.0000     0.0000     0.0000     0.0000     0.0000     0.0000     0.0000     0.0000 </r>
        <r>   -56.9250     0.0000     0.0000     0.0000     0.0000     0.0000     0.0000     0.0000     0.0000     0.0000 </r>
        <r>   -56.6926     0.0000     0.0000     0.0000     0.0000     0.0000     0.0000     0.0000     0.0000     0.0000 </r>
        <r>   -56.4602     0.0000     0.0000     0.0000     0.0000     0.0000     0.0000     0.0000     0.0000     0.0000 </r>
        <r>   -56.2278     0.0000     0.0000     0.0000     0.0000     0.0000     0.0000     0.0000     0.0000     0.0000 </r>
        <r>   -55.9953     0.0000     0.0000     0.0000     0.0000     0.0000     0.0000     0.0000     0.0000     0.0000 </r>
        <r>   -55.7629     0.0000     0.0000     0.0000     0.0000     0.0000     0.0000     0.0000     0.0000     0.0000 </r>
        <r>   -55.5305     0.0000     0.0000     0.0000     0.0000     0.0000     0.0000     0.0000     0.0000     0.0000 </r>
        <r>   -55.2980     0.0000     0.0000     0.0000     0.0000     0.0000     0.0000     0.0000     0.0000     0.0000 </r>
        <r>   -55.0656     0.0000     0.0000     0.0000     0.0000     0.0000     0.0000     0.0000     0.0000     0.0000 </r>
        <r>   -54.8332     0.0000     0.0000     0.0000     0.0000     0.0000     0.0000     0.0000     0.0000     0.0000 </r>
        <r>   -54.6007     0.0000     0.0000     0.0000     0.0000     0.0000     0.0000     0.0000     0.0000     0.0000 </r>
        <r>   -54.3683     0.0000     0.0000     0.0000     0.0000     0.0000     0.0000     0.0000     0.0000     0.0000 </r>
        <r>   -54.1359     0.0000     0.0000     0.0000     0.0000     0.0000     0.0000     0.0000     0.0000     0.0000 </r>
        <r>   -53.9035     0.0000     0.0000     0.0000     0.0000     0.0000     0.0000     0.0000     0.0000     0.0000 </r>
        <r>   -53.6710     0.0000     0.0000     0.0000     0.0000     0.0000     0.0000     0.0000     0.0000     0.0000 </r>
        <r>   -53.4386     0.0000     0.0000     0.0000     0.0000     0.0000     0.0000     0.0000     0.0000     0.0000 </r>
        <r>   -53.2062     0.0000     0.0000     0.0000     0.0000     0.0000     0.0000     0.0000     0.0000     0.0000 </r>
        <r>   -52.9737     0.0000     0.0000     0.0000     0.0000     0.0000     0.0000     0.0000     0.0000     0.0000 </r>
        <r>   -52.7413     0.0000     0.0000     0.0000     0.0000     0.0000     0.0000     0.0000     0.0000     0.0000 </r>
        <r>   -52.5089     0.0000     0.0000     0.0000     0.0000     0.0000     0.0000     0.0000     0.0000     0.0000 </r>
        <r>   -52.2764     0.0000     0.0000     0.0000     0.0000     0.0000     0.0000     0.0000     0.0000     0.0000 </r>
        <r>   -52.0440     0.0000     0.0000     0.0000     0.0000     0.0000     0.0000     0.0000     0.0000     0.0000 </r>
        <r>   -51.8116     0.0000     0.0000     0.0000     0.0000     0.0000     0.0000     0.0000     0.0000     0.0000 </r>
        <r>   -51.5791     0.0000     0.0000     0.0000     0.0000     0.0000     0.0000     0.0000     0.0000     0.0000 </r>
        <r>   -51.3467     0.0000     0.0000     0.0000     0.0000     0.0000     0.0000     0.0000     0.0000     0.0000 </r>
        <r>   -51.1143     0.0000     0.0000     0.0000     0.0000     0.0000     0.0000     0.0000     0.0000     0.0000 </r>
        <r>   -50.8819     0.0000     0.0000     0.0000     0.0000     0.0000     0.0000     0.0000     0.0000     0.0000 </r>
        <r>   -50.6494     0.0000     0.0000     0.0000     0.0000     0.0000     0.0000     0.0000     0.0000     0.0000 </r>
        <r>   -50.4170     0.0000     0.0000     0.0000     0.0000     0.0000     0.0000     0.0000     0.0000     0.0000 </r>
        <r>   -50.1846     0.0000     0.0000     0.0000     0.0000     0.0000     0.0000     0.0000     0.0000     0.0000 </r>
        <r>   -49.9521     0.0000     0.0000     0.0000     0.0000     0.0000     0.0000     0.0000     0.0000     0.0000 </r>
        <r>   -49.7197     0.0000     0.0000     0.0000     0.0000     0.0000     0.0000     0.0000     0.0000     0.0000 </r>
        <r>   -49.4873     0.0000     0.0000     0.0000     0.0000     0.0000     0.0000     0.0000     0.0000     0.0000 </r>
        <r>   -49.2548     0.0000     0.0000     0.0000     0.0000     0.0000     0.0000     0.0000     0.0000     0.0000 </r>
        <r>   -49.0224     0.0000     0.0000     0.0000     0.0000     0.0000     0.0000     0.0000     0.0000     0.0000 </r>
        <r>   -48.7900     0.0000     0.0000     0.0000     0.0000     0.0000     0.0000     0.0000     0.0000     0.0000 </r>
        <r>   -48.5576     0.0000     0.0000     0.0000     0.0000     0.0000     0.0000     0.0000     0.0000     0.0000 </r>
        <r>   -48.3251     0.0000     0.0000     0.0000     0.0000     0.0000     0.0000     0.0000     0.0000     0.0000 </r>
        <r>   -48.0927     0.0000     0.0000     0.0000     0.0000     0.0000     0.0000     0.0000     0.0000     0.0000 </r>
        <r>   -47.8603     0.0000     0.0000     0.0000     0.0000     0.0000     0.0000     0.0000     0.0000     0.0000 </r>
        <r>   -47.6278     0.0000     0.0000     0.0000     0.0000     0.0000     0.0000     0.0000     0.0000     0.0000 </r>
        <r>   -47.3954     0.0000     0.0000     0.0000     0.0000     0.0000     0.0000     0.0000     0.0000     0.0000 </r>
        <r>   -47.1630     0.0000     0.0000     0.0000     0.0000     0.0000     0.0000     0.0000     0.0000     0.0000 </r>
        <r>   -46.9305     0.0000     0.0000     0.0000     0.0000     0.0000     0.0000     0.0000     0.0000     0.0000 </r>
        <r>   -46.6981     0.0000     0.0000     0.0000     0.0000     0.0000     0.0000     0.0000     0.0000     0.0000 </r>
        <r>   -46.4657     0.0000     0.0000     0.0000     0.0000     0.0000     0.0000     0.0000     0.0000     0.0000 </r>
        <r>   -46.2333     0.0000     0.0000     0.0000     0.0000     0.0000     0.0000     0.0000     0.0000     0.0000 </r>
        <r>   -46.0008     0.0000     0.0000     0.0000     0.0000     0.0000     0.0000     0.0000     0.0000     0.0000 </r>
        <r>   -45.7684     0.0000     0.0000     0.0000     0.0000     0.0000     0.0000     0.0000     0.0000     0.0000 </r>
        <r>   -45.5360     0.0000     0.0000     0.0000     0.0000     0.0000     0.0000     0.0000     0.0000     0.0000 </r>
        <r>   -45.3035     0.0000     0.0000     0.0000     0.0000     0.0000     0.0000     0.0000     0.0000     0.0000 </r>
        <r>   -45.0711     0.0000     0.0000     0.0000     0.0000     0.0000     0.0000     0.0000     0.0000     0.0000 </r>
        <r>   -44.8387     0.0000     0.0000     0.0000     0.0000     0.0000     0.0000     0.0000     0.0000     0.0000 </r>
        <r>   -44.6062     0.0000     0.0000     0.0000     0.0000     0.0000     0.0000     0.0000     0.0000     0.0000 </r>
        <r>   -44.3738     0.0000     0.0000     0.0000     0.0000     0.0000     0.0000     0.0000     0.0000     0.0000 </r>
        <r>   -44.1414     0.0000     0.0000     0.0000     0.0000     0.0000     0.0000     0.0000     0.0000     0.0000 </r>
        <r>   -43.9089     0.0000     0.0000     0.0000     0.0000     0.0000     0.0000     0.0000     0.0000     0.0000 </r>
        <r>   -43.6765     0.0000     0.0000     0.0000     0.0000     0.0000     0.0000     0.0000     0.0000     0.0000 </r>
        <r>   -43.4441     0.0000     0.0000     0.0000     0.0000     0.0000     0.0000     0.0000     0.0000     0.0000 </r>
        <r>   -43.2117     0.0000     0.0000     0.0000     0.0000     0.0000     0.0000     0.0000     0.0000     0.0000 </r>
        <r>   -42.9792     0.0000     0.0000     0.0000     0.0000     0.0000     0.0000     0.0000     0.0000     0.0000 </r>
        <r>   -42.7468     0.0000     0.0000     0.0000     0.0000     0.0000     0.0000     0.0000     0.0000     0.0000 </r>
        <r>   -42.5144     0.0000     0.0000     0.0000     0.0000     0.0000     0.0000     0.0000     0.0000     0.0000 </r>
        <r>   -42.2819     0.0000     0.0000     0.0000     0.0000     0.0000     0.0000     0.0000     0.0000     0.0000 </r>
        <r>   -42.0495     0.0000     0.0000     0.0000     0.0000     0.0000     0.0000     0.0000     0.0000     0.0000 </r>
        <r>   -41.8171     0.0000     0.0000     0.0000     0.0000     0.0000     0.0000     0.0000     0.0000     0.0000 </r>
        <r>   -41.5846     0.0000     0.0000     0.0000     0.0000     0.0000     0.0000     0.0000     0.0000     0.0000 </r>
        <r>   -41.3522     0.0000     0.0000     0.0000     0.0000     0.0000     0.0000     0.0000     0.0000     0.0000 </r>
        <r>   -41.1198     0.0000     0.0000     0.0000     0.0000     0.0000     0.0000     0.0000     0.0000     0.0000 </r>
        <r>   -40.8874     0.0000     0.0000     0.0000     0.0000     0.0000     0.0000     0.0000     0.0000     0.0000 </r>
        <r>   -40.6549     0.0000     0.0000     0.0000     0.0000     0.0000     0.0000     0.0000     0.0000     0.0000 </r>
        <r>   -40.4225     0.0000     0.0000     0.0000     0.0000     0.0000     0.0000     0.0000     0.0000     0.0000 </r>
        <r>   -40.1901     0.0000     0.0000     0.0000     0.0000     0.0000     0.0000     0.0000     0.0000     0.0000 </r>
        <r>   -39.9576     0.0000     0.0000     0.0000     0.0000     0.0000     0.0000     0.0000     0.0000     0.0000 </r>
        <r>   -39.7252     0.0000     0.0000     0.0000     0.0000     0.0000     0.0000     0.0000     0.0000     0.0000 </r>
        <r>   -39.4928     0.0000     0.0000     0.0000     0.0000     0.0000     0.0000     0.0000     0.0000     0.0000 </r>
        <r>   -39.2603     0.0000     0.0000     0.0000     0.0000     0.0000     0.0000     0.0000     0.0000     0.0000 </r>
        <r>   -39.0279     0.0000     0.0000     0.0000     0.0000     0.0000     0.0000     0.0000     0.0000     0.0000 </r>
        <r>   -38.7955     0.0000     0.0000     0.0000     0.0000     0.0000     0.0000     0.0000     0.0000     0.0000 </r>
        <r>   -38.5631     0.0000     0.0000     0.0000     0.0000     0.0000     0.0000     0.0000     0.0000     0.0000 </r>
        <r>   -38.3306     0.0000     0.0000     0.0000     0.0000     0.0000     0.0000     0.0000     0.0000     0.0000 </r>
        <r>   -38.0982     0.0000     0.0000     0.0000     0.0000     0.0000     0.0000     0.0000     0.0000     0.0000 </r>
        <r>   -37.8658     0.0000     0.0000     0.0000     0.0000     0.0000     0.0000     0.0000     0.0000     0.0000 </r>
        <r>   -37.6333     0.0000     0.0000     0.0000     0.0000     0.0000     0.0000     0.0000     0.0000     0.0000 </r>
        <r>   -37.4009     0.0000     0.0000     0.0000     0.0000     0.0000     0.0000     0.0000     0.0000     0.0000 </r>
        <r>   -37.1685     0.0000     0.0000     0.0000     0.0000     0.0000     0.0000     0.0000     0.0000     0.0000 </r>
        <r>   -36.9360     0.0000     0.0000     0.0000     0.0000     0.0000     0.0000     0.0000     0.0000     0.0000 </r>
        <r>   -36.7036     0.0000     0.0000     0.0000     0.0000     0.0000     0.0000     0.0000     0.0000     0.0000 </r>
        <r>   -36.4712     0.0000     0.0000     0.0000     0.0000     0.0000     0.0000     0.0000     0.0000     0.0000 </r>
        <r>   -36.2387     0.0000     0.0000     0.0000     0.0000     0.0000     0.0000     0.0000     0.0000     0.0000 </r>
        <r>   -36.0063     0.0000     0.0000     0.0000     0.0000     0.0000     0.0000     0.0000     0.0000     0.0000 </r>
        <r>   -35.7739     0.0000     0.0000     0.0000     0.0000     0.0000     0.0000     0.0000     0.0000     0.0000 </r>
        <r>   -35.5415     0.0000     0.0000     0.0000     0.0000     0.0000     0.0000     0.0000     0.0000     0.0000 </r>
        <r>   -35.3090     0.0000     0.0000     0.0000     0.0000     0.0000     0.0000     0.0000     0.0000     0.0000 </r>
        <r>   -35.0766     0.0000     0.0000     0.0000     0.0000     0.0000     0.0000     0.0000     0.0000     0.0000 </r>
        <r>   -34.8442     0.0000     0.0000     0.0000     0.0000     0.0000     0.0000     0.0000     0.0000     0.0000 </r>
        <r>   -34.6117     0.0000     0.0000     0.0000     0.0000     0.0000     0.0000     0.0000     0.0000     0.0000 </r>
        <r>   -34.3793     0.0000     0.0000     0.0000     0.0000     0.0000     0.0000     0.0000     0.0000     0.0000 </r>
        <r>   -34.1469     0.0000     0.0000     0.0000     0.0000     0.0000     0.0000     0.0000     0.0000     0.0000 </r>
        <r>   -33.9144     0.0000     0.0000     0.0000     0.0000     0.0000     0.0000     0.0000     0.0000     0.0000 </r>
        <r>   -33.6820     0.0000     0.0000     0.0000     0.0000     0.0000     0.0000     0.0000     0.0000     0.0000 </r>
        <r>   -33.4496     0.0000     0.0000     0.0000     0.0000     0.0000     0.0000     0.0000     0.0000     0.0000 </r>
        <r>   -33.2172     0.0000     0.0000     0.0000     0.0000     0.0000     0.0000     0.0000     0.0000     0.0000 </r>
        <r>   -32.9847     0.0000     0.0000     0.0000     0.0000     0.0000     0.0000     0.0000     0.0000     0.0000 </r>
        <r>   -32.7523     0.0000     0.0000     0.0000     0.0000     0.0000     0.0000     0.0000     0.0000     0.0000 </r>
        <r>   -32.5199     0.0000     0.0000     0.0000     0.0000     0.0000     0.0000     0.0000     0.0000     0.0000 </r>
        <r>   -32.2874     0.0000     0.0000     0.0000     0.0000     0.0000     0.0000     0.0000     0.0000     0.0000 </r>
        <r>   -32.0550     0.0000     0.0000     0.0000     0.0000     0.0000     0.0000     0.0000     0.0000     0.0000 </r>
        <r>   -31.8226     0.0000     0.0000     0.0000     0.0000     0.0000     0.0000     0.0000     0.0000     0.0000 </r>
        <r>   -31.5901     0.0000     0.0000     0.0000     0.0000     0.0000     0.0000     0.0000     0.0000     0.0000 </r>
        <r>   -31.3577     0.0000     0.0000     0.0000     0.0000     0.0000     0.0000     0.0000     0.0000     0.0000 </r>
        <r>   -31.1253     0.0000     0.0000     0.0000     0.0000     0.0000     0.0000     0.0000     0.0000     0.0000 </r>
        <r>   -30.8929     0.0000     0.0000     0.0000     0.0000     0.0000     0.0000     0.0000     0.0000     0.0000 </r>
        <r>   -30.6604     0.0000     0.0000     0.0000     0.0000     0.0000     0.0000     0.0000     0.0000     0.0000 </r>
        <r>   -30.4280     0.0000     0.0000     0.0000     0.0000     0.0000     0.0000     0.0000     0.0000     0.0000 </r>
        <r>   -30.1956     0.0000     0.0000     0.0000     0.0000     0.0000     0.0000     0.0000     0.0000     0.0000 </r>
        <r>   -29.9631     0.0000     0.0000     0.0000     0.0000     0.0000     0.0000     0.0000     0.0000     0.0000 </r>
        <r>   -29.7307     0.0000     0.0000     0.0000     0.0000     0.0000     0.0000     0.0000     0.0000     0.0000 </r>
        <r>   -29.4983     0.0000     0.0000     0.0000     0.0000     0.0000     0.0000     0.0000     0.0000     0.0000 </r>
        <r>   -29.2658     0.0000     0.0000     0.0000     0.0000     0.0000     0.0000     0.0000     0.0000     0.0000 </r>
        <r>   -29.0334     0.0000     0.0000     0.0000     0.0000     0.0000     0.0000     0.0000     0.0000     0.0000 </r>
        <r>   -28.8010     0.0000     0.0000     0.0000     0.0000     0.0000     0.0000     0.0000     0.0000     0.0000 </r>
        <r>   -28.5685     0.0000     0.0000     0.0000     0.0000     0.0000     0.0000     0.0000     0.0000     0.0000 </r>
        <r>   -28.3361     0.0000     0.0000     0.0000     0.0000     0.0000     0.0000     0.0000     0.0000     0.0000 </r>
        <r>   -28.1037     0.0000     0.0000     0.0000     0.0000     0.0000     0.0000     0.0000     0.0000     0.0000 </r>
        <r>   -27.8713     0.0000     0.0000     0.0000     0.0000     0.0000     0.0000     0.0000     0.0000     0.0000 </r>
        <r>   -27.6388     0.0000     0.0000     0.0000     0.0000     0.0000     0.0000     0.0000     0.0000     0.0000 </r>
        <r>   -27.4064     0.0000     0.0000     0.0000     0.0000     0.0000     0.0000     0.0000     0.0000     0.0000 </r>
        <r>   -27.1740     0.0000     0.0000     0.0000     0.0000     0.0000     0.0000     0.0000     0.0000     0.0000 </r>
        <r>   -26.9415     0.0000     0.0000     0.0000     0.0000     0.0000     0.0000     0.0000     0.0000     0.0000 </r>
        <r>   -26.7091     0.0000     0.0000     0.0000     0.0000     0.0000     0.0000     0.0000     0.0000     0.0000 </r>
        <r>   -26.4767     0.0000     0.0000     0.0000     0.0000     0.0000     0.0000     0.0000     0.0000     0.0000 </r>
        <r>   -26.2442     0.0000     0.0000     0.0000     0.0000     0.0000     0.0000     0.0000     0.0000     0.0000 </r>
        <r>   -26.0118     0.0000     0.0000     0.0000     0.0000     0.0000     0.0000     0.0000     0.0000     0.0000 </r>
        <r>   -25.7794     0.0000     0.0000     0.0000     0.0000     0.0000     0.0000     0.0000     0.0000     0.0000 </r>
        <r>   -25.5470     0.0000     0.0000     0.0000     0.0000     0.0000     0.0000     0.0000     0.0000     0.0000 </r>
        <r>   -25.3145     0.0000     0.0000     0.0000     0.0000     0.0000     0.0000     0.0000     0.0000     0.0000 </r>
        <r>   -25.0821     0.0000     0.0000     0.0000     0.0000     0.0000     0.0000     0.0000     0.0000     0.0000 </r>
[...]
        <r>    -2.7688     0.0000     0.0000     0.0000     0.0000     3.7136     3.7260     0.0000     3.7254     0.0000 </r>
        <r>    -2.5364     0.0000     0.0000     0.0000     0.0000     0.0000     0.0000     0.0000     0.0000     0.0000 </r>
        <r>    -2.3039     0.0000     0.0000     0.0000     0.0000     0.0000     0.0000     0.0000     0.0000     0.0000 </r>
        <r>    -2.0715     0.0000     0.0000     0.0000     0.0000     0.0000     0.0000     0.0000     0.0000     0.0000 </r>
        <r>    -1.8391     0.0000     0.0000     0.0000     0.0000     0.0000     0.0000     0.0000     0.0000     0.0000 </r>
        <r>    -1.6066     0.0000     0.0000     0.0000     0.0000     0.0000     0.0000     0.0000     0.0000     0.0000 </r>
        <r>    -1.3742     0.0000     0.0000     0.0000     0.0000     0.0000     0.0000     0.0000     0.0000     0.0000 </r>
        <r>    -1.1418     0.0000     0.0000     0.0000     0.0000     0.0000     0.0000     0.0000     0.0000     0.0000 </r>
        <r>    -0.9093     0.0000     0.0000     0.0000     0.0000     0.0000     0.0000     0.0000     0.0000     0.0000 </r>
        <r>    -0.6769     0.0000     0.0000     0.0000     0.0000     0.0000     0.0000     0.0000     0.0000     0.0000 </r>
        <r>    -0.4445     0.0000     0.2524     0.2525     0.2524     0.0000     0.0000     0.0000     0.0000     0.0000 </r>
        <r>    -0.2121     0.0004     0.0748     0.0747     0.0748     0.0000     0.0000     0.0000     0.0000     0.0000 </r>
        <r>     0.0204     0.1228     0.0000     0.0000     0.0000     0.0000     0.0000     0.0000     0.0000     0.0000 </r>
        <r>     0.2528     0.0000     0.0000     0.0000     0.0000     0.0000     0.0000     0.0000     0.0000     0.0000 </r>
        <r>     0.4852     0.0000     0.0000     0.0000     0.0000     0.0000     0.0000     0.0000     0.0000     0.0000 </r>
        <r>     0.7177     0.0000     0.0000     0.0000     0.0000     0.0000     0.0000     0.0000     0.0000     0.0000 </r>
        <r>     0.9501     0.0000     0.0000     0.0000     0.0000     0.0000     0.0000     0.0266     0.0000     0.0267 </r>
        <r>     1.1825     0.0000     0.0000     0.0000     0.0000     0.0000     0.0000     0.0056     0.0000     0.0056 </r>
        <r>     1.4150     0.0000     0.0000     0.0000     0.0000     0.0000     0.0000     0.0000     0.0000     0.0000 </r>
        <r>     1.6474     0.0000     0.0031     0.0031     0.0031     0.0000     0.0000     0.0000     0.0000     0.0000 </r>
        <r>     1.8798     0.0562     0.1212     0.1212     0.1212     0.0000     0.0000     0.0000     0.0000     0.0000 </r>
        <r>     2.1123     0.0609     0.0000     0.0000     0.0000     0.0157     0.0157     0.0000     0.0157     0.0000 </r>
        <r>     2.3447     0.0000     0.0000     0.0000     0.0000     0.0663     0.0663     0.0000     0.0663     0.0000 </r>
        <r>     2.5771     0.0000     0.0000     0.0000     0.0000     0.0000     0.0000     0.0058     0.0000     0.0058 </r>
        <r>     2.8095     0.0000     0.0000     0.0000     0.0000     0.0000     0.0000     0.0130     0.0000     0.0130 </r>
        <r>     3.0420     0.0000     0.0000     0.0000     0.0000     0.0000     0.0000     0.0000     0.0000     0.0000 </r>
        <r>     3.2744     0.0000     0.0000     0.0000     0.0000     0.0000     0.0000     0.0000     0.0000     0.0000 </r>
        <r>     3.5068     0.0000     0.0000     0.0000     0.0000     0.0000     0.0000     0.0000     0.0000     0.0000 </r>
        <r>     3.7393     0.0000     0.1528     0.1527     0.1524     0.0000     0.0000     0.0000     0.0000     0.0000 </r>
        <r>     3.9717     0.1175     0.0051     0.0051     0.0051     0.0343     0.0343     0.0000     0.0343     0.0000 </r>
        <r>     4.2041     0.0011     0.0000     0.0000     0.0000     0.0008     0.0008     0.0000     0.0008     0.0000 </r>
        <r>     4.4366     0.0000     0.0000     0.0002     0.0009     0.0000     0.0000     0.0000     0.0000     0.0000 </r>
        <r>     4.6690     0.0000     0.0033     0.0236     0.1083     0.0000     0.0000     0.0000     0.0000     0.0000 </r>
        <r>     4.9014     0.0000     0.0000     0.0000     0.0000     0.0000     0.0000     0.0000     0.0000     0.0000 </r>
        <r>     5.1338     0.0000     0.0000     0.0000     0.0000     0.0000     0.0000     0.0000     0.0000     0.0000 </r>
        <r>     5.3663     0.0000     0.0000     0.0000     0.0000     0.0000     0.0000     0.0000     0.0000     0.0000 </r>
        <r>     5.5987     0.0000     0.0000     0.0000     0.0000     0.0000     0.0000     0.0000     0.0000     0.0000 </r>
        <r>     5.8311     0.0000     0.0000     0.0000     0.0000     0.0000     0.0000     0.0000     0.0000     0.0000 </r>
        <r>     6.0636     0.0000     0.0000     0.0000     0.0000     0.0000     0.0000     0.0000     0.0000     0.0000 </r>
        <r>     6.2960     0.0000     0.0000     0.0000     0.0000     0.0000     0.0000     0.0000     0.0000     0.0000 </r>
        <r>     6.5284     0.0000     0.0000     0.0000     0.0000     0.0000     0.0000     0.0000     0.0000     0.0000 </r>
        <r>     6.7609     0.0000     0.0000     0.0000     0.0000     0.0000     0.0000     0.0000     0.0000     0.0000 </r>
        <r>     6.9933     0.0000     0.0000     0.0000     0.0000     0.0000     0.0000     0.0000     0.0000     0.0000 </r>
        <r>     7.2257     0.0000     0.0000     0.0000     0.0000     0.0000     0.0000     0.0000     0.0000     0.0000 </r>
        <r>     7.4581     0.0000     0.0000     0.0000     0.0000     0.0000     0.0000     0.0000     0.0000     0.0000 </r>
        <r>     7.6906     0.0000     0.0000     0.0000     0.0000     0.0000     0.0000     0.0000     0.0000     0.0000 </r>
       </set>
      </set>
     </set>
    </array>
   </partial>
  </dos>
  <projected>
   <eigenvalues>
    <array>
     <dimension dim="1">band</dimension>
     <dimension dim="2">kpoint</dimension>
     <dimension dim="3">spin</dimension>
     <field>eigene</field>
     <field>occ</field>
     <set>
      <set comment="spin 1">
       <set comment="kpoint 1">
        <r>  -58.8690    1.0000 </r>
        <r>  -58.8690    1.0000 </r>
        <r>  -58.8690    1.0000 </r>
        <r>   -6.8613    1.0000 </r>
        <r>   -6.8613    1.0000 </r>
        <r>   -6.8612    1.0000 </r>
        <r>   -6.1340    1.0000 </r>
        <r>   -6.1339    1.0000 </r>
        <r>   -4.9894    1.0000 </r>
        <r>   -1.0511    0.0000 </r>
        <r>   -1.0511    0.0000 </r>
        <r>   -1.0511    0.0000 </r>
        <r>   -0.1786    0.0000 </r>
        <r>    0.9013    0.0000 </r>
        <r>    0.9013    0.0000 </r>
        <r>    1.6315    0.0000 </r>
        <r>    1.6315    0.0000 </r>
        <r>    1.6315    0.0000 </r>
        <r>    1.7972    0.0000 </r>
        <r>    1.9753    0.0000 </r>
        <r>    1.9753    0.0000 </r>
        <r>    1.9753    0.0000 </r>
        <r>    2.5206    0.0000 </r>
        <r>    2.5206    0.0000 </r>
        <r>    2.5206    0.0000 </r>
        <r>    2.6158    0.0000 </r>
        <r>    2.6158    0.0000 </r>
        <r>    3.5410    0.0000 </r>
        <r>    3.5410    0.0000 </r>
        <r>    3.5410    0.0000 </r>
        <r>    3.8129    0.0000 </r>
        <r>    3.8685    0.0000 </r>
        <r>    3.8685    0.0000 </r>
        <r>    3.8685    0.0000 </r>
        <r>    4.3926    0.0000 </r>
        <r>    4.3926    0.0000 </r>
       </set>
      </set>
      <set comment="spin 2">
       <set comment="kpoint 1">
        <r>  -55.2012    1.0000 </r>
        <r>  -55.2009    1.0000 </r>
        <r>  -55.2008    1.0000 </r>
        <r>   -3.8798    0.7488 </r>
        <r>   -3.8783    0.7350 </r>
        <r>   -3.8575    0.5161 </r>
        <r>   -2.9337    0.0000 </r>
        <r>   -2.9319    0.0000 </r>
        <r>   -2.9317    0.0000 </r>
        <r>   -0.4708    0.0000 </r>
        <r>   -0.4708    0.0000 </r>
        <r>   -0.4708    0.0000 </r>
        <r>   -0.1145    0.0000 </r>
        <r>    0.9170    0.0000 </r>
        <r>    0.9170    0.0000 </r>
        <r>    1.7168    0.0000 </r>
        <r>    1.7168    0.0000 </r>
        <r>    1.7168    0.0000 </r>
        <r>    1.8816    0.0000 </r>
        <r>    2.1431    0.0000 </r>
        <r>    2.1432    0.0000 </r>
        <r>    2.1432    0.0000 </r>
        <r>    2.4959    0.0000 </r>
        <r>    2.4959    0.0000 </r>
        <r>    2.4959    0.0000 </r>
        <r>    2.5947    0.0000 </r>
        <r>    2.5947    0.0000 </r>
        <r>    3.6740    0.0000 </r>
        <r>    3.6740    0.0000 </r>
        <r>    3.6740    0.0000 </r>
        <r>    3.7735    0.0000 </r>
        <r>    3.8890    0.0000 </r>
        <r>    3.9004    0.0000 </r>
        <r>    3.9004    0.0000 </r>
        <r>    3.9004    0.0000 </r>
        <r>    4.5211    0.0000 </r>
       </set>
      </set>
     </set>
    </array>
   </eigenvalues>
   <array>
    <dimension dim="1">ion</dimension>
    <dimension dim="2">band</dimension>
    <dimension dim="3">kpoint</dimension>
    <dimension dim="4">spin</dimension>
    <field>    s</field>
    <field>   py</field>
    <field>   pz</field>
    <field>   px</field>
    <field>  dxy</field>
    <field>  dyz</field>
    <field>  dz2</field>
    <field>  dxz</field>
    <field>x2-y2</field>
    <set>
     <set comment="spin1">
      <set comment="kpoint 1">
       <set comment="band 1">
        <r>  0.0000  0.0000  0.9964  0.0000  0.0000  0.0000  0.0000  0.0000  0.0000 </r>
       </set>
       <set comment="band 2">
        <r>  0.0000  0.9964  0.0000  0.0000  0.0000  0.0000  0.0000  0.0000  0.0000 </r>
       </set>
       <set comment="band 3">
        <r>  0.0000  0.0000  0.0000  0.9964  0.0000  0.0000  0.0000  0.0000  0.0000 </r>
       </set>
       <set comment="band 4">
        <r>  0.0000  0.0000  0.0000  0.0000  0.0000  0.9270  0.0000  0.0000  0.0000 </r>
       </set>
       <set comment="band 5">
        <r>  0.0000  0.0000  0.0000  0.0000  0.0000  0.0000  0.0000  0.9270  0.0000 </r>
       </set>
       <set comment="band 6">
        <r>  0.0000  0.0000  0.0000  0.0000  0.9270  0.0000  0.0000  0.0000  0.0000 </r>
       </set>
       <set comment="band 7">
        <r>  0.0000  0.0000  0.0000  0.0000  0.0000  0.0000  0.0020  0.0000  0.9187 </r>
       </set>
       <set comment="band 8">
        <r>  0.0000  0.0000  0.0000  0.0000  0.0000  0.0000  0.9187  0.0000  0.0020 </r>
       </set>
       <set comment="band 9">
        <r>  0.2954  0.0000  0.0000  0.0000  0.0000  0.0000  0.0000  0.0000  0.0000 </r>
       </set>
       <set comment="band 10">
        <r>  0.0000  0.0000  0.1157  0.0000  0.0000  0.0000  0.0000  0.0000  0.0000 </r>
       </set>
       <set comment="band 11">
        <r>  0.0000  0.1157  0.0000  0.0000  0.0000  0.0000  0.0000  0.0000  0.0000 </r>
       </set>
       <set comment="band 12">
        <r>  0.0000  0.0000  0.0000  0.1157  0.0000  0.0000  0.0000  0.0000  0.0000 </r>
       </set>
       <set comment="band 13">
        <r>  0.0270  0.0000  0.0000  0.0000  0.0000  0.0000  0.0000  0.0000  0.0000 </r>
       </set>
       <set comment="band 14">
        <r>  0.0000  0.0000  0.0000  0.0000  0.0000  0.0000  0.0000  0.0000  0.0051 </r>
       </set>
       <set comment="band 15">
        <r>  0.0000  0.0000  0.0000  0.0000  0.0000  0.0000  0.0051  0.0000  0.0000 </r>
       </set>
       <set comment="band 16">
        <r>  0.0000  0.0003  0.0323  0.0007  0.0000  0.0000  0.0000  0.0000  0.0000 </r>
       </set>
       <set comment="band 17">
        <r>  0.0000  0.0330  0.0003  0.0000  0.0000  0.0000  0.0000  0.0000  0.0000 </r>
       </set>
       <set comment="band 18">
        <r>  0.0000  0.0000  0.0008  0.0326  0.0000  0.0000  0.0000  0.0000  0.0000 </r>
       </set>
       <set comment="band 19">
        <r>  0.0269  0.0000  0.0000  0.0000  0.0000  0.0000  0.0000  0.0000  0.0000 </r>
       </set>
       <set comment="band 20">
        <r>  0.0000  0.0000  0.0000  0.0000  0.0000  0.0119  0.0000  0.0000  0.0000 </r>
       </set>
       <set comment="band 21">
        <r>  0.0000  0.0000  0.0000  0.0000  0.0000  0.0000  0.0000  0.0119  0.0000 </r>
       </set>
       <set comment="band 22">
        <r>  0.0000  0.0000  0.0000  0.0000  0.0119  0.0000  0.0000  0.0000  0.0000 </r>
       </set>
       <set comment="band 23">
        <r>  0.0000  0.0000  0.0000  0.0000  0.0000  0.0000  0.0000  0.0000  0.0000 </r>
       </set>
       <set comment="band 24">
        <r>  0.0000  0.0000  0.0000  0.0000  0.0000  0.0000  0.0000  0.0000  0.0000 </r>
       </set>
       <set comment="band 25">
        <r>  0.0000  0.0000  0.0000  0.0000  0.0000  0.0000  0.0000  0.0000  0.0000 </r>
       </set>
       <set comment="band 26">
        <r>  0.0000  0.0000  0.0000  0.0000  0.0000  0.0000  0.0000  0.0000  0.0035 </r>
       </set>
       <set comment="band 27">
        <r>  0.0000  0.0000  0.0000  0.0000  0.0000  0.0000  0.0035  0.0000  0.0000 </r>
       </set>
       <set comment="band 28">
        <r>  0.0000  0.0499  0.0004  0.0001  0.0000  0.0000  0.0000  0.0000  0.0000 </r>
       </set>
       <set comment="band 29">
        <r>  0.0000  0.0002  0.0060  0.0442  0.0000  0.0000  0.0000  0.0000  0.0000 </r>
       </set>
       <set comment="band 30">
        <r>  0.0000  0.0003  0.0441  0.0062  0.0000  0.0000  0.0000  0.0000  0.0000 </r>
       </set>
       <set comment="band 31">
        <r>  0.0337  0.0000  0.0000  0.0000  0.0000  0.0000  0.0000  0.0000  0.0000 </r>
       </set>
       <set comment="band 32">
        <r>  0.0000  0.0000  0.0000  0.0000  0.0000  0.0059  0.0000  0.0000  0.0000 </r>
       </set>
       <set comment="band 33">
        <r>  0.0000  0.0000  0.0000  0.0000  0.0000  0.0000  0.0000  0.0059  0.0000 </r>
       </set>
       <set comment="band 34">
        <r>  0.0000  0.0000  0.0000  0.0000  0.0059  0.0000  0.0000  0.0000  0.0000 </r>
       </set>
       <set comment="band 35">
        <r>  0.0000  0.0235  0.0002  0.0000  0.0000  0.0000  0.0000  0.0000  0.0000 </r>
       </set>
       <set comment="band 36">
        <r>  0.0000  0.0001  0.0025  0.0211  0.0000  0.0000  0.0000  0.0000  0.0000 </r>
       </set>
      </set>
     </set>
     <set comment="spin2">
      <set comment="kpoint 1">
       <set comment="band 1">
        <r>  0.0000  0.0000  0.0000  0.9967  0.0000  0.0000  0.0000  0.0000  0.0000 </r>
       </set>
       <set comment="band 2">
        <r>  0.0000  0.9967  0.0000  0.0000  0.0000  0.0000  0.0000  0.0000  0.0000 </r>
       </set>
       <set comment="band 3">
        <r>  0.0000  0.0000  0.9967  0.0000  0.0000  0.0000  0.0000  0.0000  0.0000 </r>
       </set>
       <set comment="band 4">
        <r>  0.0000  0.0000  0.0000  0.0000  0.0000  0.0000  0.8894  0.0000  0.0082 </r>
       </set>
       <set comment="band 5">
        <r>  0.0000  0.0000  0.0000  0.0000  0.0000  0.0000  0.0082  0.0000  0.8893 </r>
       </set>
       <set comment="band 6">
        <r>  0.2478  0.0000  0.0000  0.0000  0.0000  0.0000  0.0000  0.0000  0.0000 </r>
       </set>
       <set comment="band 7">
        <r>  0.0000  0.0000  0.0000  0.0000  0.8880  0.0000  0.0000  0.0000  0.0000 </r>
       </set>
       <set comment="band 8">
        <r>  0.0000  0.0000  0.0000  0.0000  0.0000  0.0000  0.0000  0.8880  0.0000 </r>
       </set>
       <set comment="band 9">
        <r>  0.0000  0.0000  0.0000  0.0000  0.0000  0.8880  0.0000  0.0000  0.0000 </r>
       </set>
       <set comment="band 10">
        <r>  0.0000  0.0000  0.0760  0.0000  0.0000  0.0000  0.0000  0.0000  0.0000 </r>
       </set>
       <set comment="band 11">
        <r>  0.0000  0.0760  0.0000  0.0000  0.0000  0.0000  0.0000  0.0000  0.0000 </r>
       </set>
       <set comment="band 12">
        <r>  0.0000  0.0000  0.0000  0.0760  0.0000  0.0000  0.0000  0.0000  0.0000 </r>
       </set>
       <set comment="band 13">
        <r>  0.0286  0.0000  0.0000  0.0000  0.0000  0.0000  0.0000  0.0000  0.0000 </r>
       </set>
       <set comment="band 14">
        <r>  0.0000  0.0000  0.0000  0.0000  0.0000  0.0000  0.0074  0.0000  0.0001 </r>
       </set>
       <set comment="band 15">
        <r>  0.0000  0.0000  0.0000  0.0000  0.0000  0.0000  0.0001  0.0000  0.0074 </r>
       </set>
       <set comment="band 16">
        <r>  0.0000  0.0000  0.0289  0.0000  0.0000  0.0000  0.0000  0.0000  0.0000 </r>
       </set>
       <set comment="band 17">
        <r>  0.0000  0.0264  0.0000  0.0025  0.0000  0.0000  0.0000  0.0000  0.0000 </r>
       </set>
       <set comment="band 18">
        <r>  0.0000  0.0025  0.0000  0.0264  0.0000  0.0000  0.0000  0.0000  0.0000 </r>
       </set>
       <set comment="band 19">
        <r>  0.0272  0.0000  0.0000  0.0000  0.0000  0.0000  0.0000  0.0000  0.0000 </r>
       </set>
       <set comment="band 20">
        <r>  0.0000  0.0000  0.0000  0.0000  0.0190  0.0000  0.0000  0.0000  0.0000 </r>
       </set>
       <set comment="band 21">
        <r>  0.0000  0.0000  0.0000  0.0000  0.0000  0.0000  0.0000  0.0191  0.0000 </r>
       </set>
       <set comment="band 22">
        <r>  0.0000  0.0000  0.0000  0.0000  0.0000  0.0191  0.0000  0.0000  0.0000 </r>
       </set>
       <set comment="band 23">
        <r>  0.0000  0.0000  0.0000  0.0000  0.0000  0.0000  0.0000  0.0000  0.0000 </r>
       </set>
       <set comment="band 24">
        <r>  0.0000  0.0000  0.0000  0.0000  0.0000  0.0000  0.0000  0.0000  0.0000 </r>
       </set>
       <set comment="band 25">
        <r>  0.0000  0.0000  0.0000  0.0000  0.0000  0.0000  0.0000  0.0000  0.0000 </r>
       </set>
       <set comment="band 26">
        <r>  0.0000  0.0000  0.0000  0.0000  0.0000  0.0000  0.0043  0.0000  0.0000 </r>
       </set>
       <set comment="band 27">
        <r>  0.0000  0.0000  0.0000  0.0000  0.0000  0.0000  0.0000  0.0000  0.0043 </r>
       </set>
       <set comment="band 28">
        <r>  0.0000  0.0004  0.0237  0.0125  0.0000  0.0000  0.0000  0.0000  0.0000 </r>
       </set>
       <set comment="band 29">
        <r>  0.0000  0.0009  0.0129  0.0229  0.0000  0.0000  0.0000  0.0000  0.0000 </r>
       </set>
       <set comment="band 30">
        <r>  0.0000  0.0354  0.0000  0.0013  0.0000  0.0000  0.0000  0.0000  0.0000 </r>
       </set>
       <set comment="band 31">
        <r>  0.0000  0.0000  0.0000  0.0000  0.0000  0.0000  0.0000  0.0000  0.0000 </r>
       </set>
       <set comment="band 32">
        <r>  0.0276  0.0000  0.0000  0.0000  0.0000  0.0000  0.0000  0.0000  0.0000 </r>
       </set>
       <set comment="band 33">
        <r>  0.0000  0.0000  0.0000  0.0000  0.0081  0.0000  0.0000  0.0000  0.0000 </r>
       </set>
       <set comment="band 34">
        <r>  0.0000  0.0000  0.0000  0.0000  0.0000  0.0000  0.0000  0.0082  0.0000 </r>
       </set>
       <set comment="band 35">
        <r>  0.0000  0.0000  0.0000  0.0000  0.0000  0.0082  0.0000  0.0000  0.0000 </r>
       </set>
       <set comment="band 36">
        <r>  0.0000  0.0008  0.0055  0.0254  0.0000  0.0000  0.0000  0.0000  0.0000 </r>
       </set>
      </set>
     </set>
    </set>
   </array>
  </projected>
 </calculation>
 <structure name="finalpos" >
  <crystal>
   <varray name="basis" >
    <v>      10.00000000       0.00000000       0.00000000 </v>
    <v>       0.00000000      10.00000000       0.00000000 </v>
    <v>       0.00000000       0.00000000      10.00000000 </v>
   </varray>
   <i name="volume">   1000.00000000 </i>
   <varray name="rec_basis" >
    <v>       0.10000000       0.00000000       0.00000000 </v>
    <v>       0.00000000       0.10000000       0.00000000 </v>
    <v>       0.00000000       0.00000000       0.10000000 </v>
   </varray>
  </crystal>
  <varray name="positions" >
   <v>       0.50000000       0.50000000       0.50000000 </v>
  </varray>
 </structure>
</modeling>
