       N       E                     dE             d eps       ncg     rms          ort
DAV:   1     0.520155418430E+02    0.52016E+02   -0.39800E+03    36   0.264E+02
DAV:   2     0.839387711190E+01   -0.43622E+02   -0.43622E+02    36   0.654E+01
DAV:   3     0.901259013771E+00   -0.74926E+01   -0.74926E+01    36   0.299E+01
DAV:   4     0.154521622789E+00   -0.74674E+00   -0.74674E+00    36   0.939E+00
DAV:   5     0.703594837423E-01   -0.84162E-01   -0.84162E-01    36   0.290E+00
SDA:   6     0.668268890968E-02   -0.63677E-01   -0.36861E-01    36   0.922E-01 0.000E+00
DMP:   7    -0.680889511000E-02   -0.13492E-01   -0.10855E-01    36   0.370E-01-0.257E-01
DMP:   8    -0.118810659153E-01   -0.50722E-02   -0.12970E-02    36   0.403E-02-0.207E-02
DMP:   9    -0.121010565806E-01   -0.21999E-03   -0.19263E-02    36   0.566E-02-0.220E-02
DMP:  10    -0.129068460408E-01   -0.80579E-03   -0.13990E-03    36   0.646E-03-0.775E-03
DMP:  11    -0.129580256892E-01   -0.51180E-04   -0.27530E-03    36   0.725E-03-0.966E-04
DMP:  12    -0.130854293282E-01   -0.12740E-03   -0.59080E-04    36   0.170E-03-0.590E-04
DMP:  13    -0.131234714481E-01   -0.38042E-04   -0.38764E-04    36   0.809E-04 0.419E-04
   1 F= -.13123471E-01 E0= -.13123471E-01  d E =-.131235E-01  mag=     0.0000
