<?xml version="1.0" encoding="ISO-8859-1"?>
<modeling>
 <generator>
  <i name="program" type="string">vasp </i>
  <i name="version" type="string">5.4.4.18Apr17-6-g9f103f2a35  </i>
  <i name="subversion" type="string">(build Nov 08 2019 15:19:53) gamma-only         parallel </i>
  <i name="platform" type="string">LinuxIFC </i>
  <i name="date" type="string">2020 11 30 </i>
  <i name="time" type="string">09:31:41 </i>
 </generator>
 <incar>
  <i type="string" name="PREC">accurate</i>
  <i type="string" name="ALGO"> D</i>
  <i type="int" name="ISPIN">     2</i>
  <i type="int" name="NELM">   300</i>
  <i type="int" name="IBRION">     2</i>
  <i name="EDIFF">      0.00005000</i>
  <i type="int" name="NSW">    99</i>
  <i type="int" name="ISIF">     2</i>
  <i name="ENCUT">    520.00000000</i>
  <v name="MAGMOM">      0.60000000</v>
  <i type="string" name="LREAL"> Auto</i>
  <i type="int" name="ISMEAR">     0</i>
  <i name="SIGMA">      0.05000000</i>
  <i type="logical" name="LWAVE"> F  </i>
  <i type="int" name="LORBIT">    11</i>
  <i type="logical" name="LASPH"> T  </i>
  <v type="int" name="KPOINT_BSE">    -1     0     0     0</v>
  <i type="int" name="NELM">   300</i>
  <i type="logical" name="LASPH"> T  </i>
 </incar>
 <structure name="primitive_cell" >
  <crystal>
   <varray name="basis" >
    <v>      10.00000000       0.00000000       0.00000000 </v>
    <v>       0.00000000      10.00000000       0.00000000 </v>
    <v>       0.00000000       0.00000000      10.00000000 </v>
   </varray>
   <i name="volume">   1000.00000000 </i>
   <varray name="rec_basis" >
    <v>       0.10000000       0.00000000       0.00000000 </v>
    <v>       0.00000000       0.10000000       0.00000000 </v>
    <v>       0.00000000       0.00000000       0.10000000 </v>
   </varray>
  </crystal>
  <varray name="positions" >
   <v>      -0.50000000      -0.50000000      -0.50000000 </v>
  </varray>
 </structure>
 <varray name="primitive_index" >
  <v type="int" >        1 </v>
 </varray>
 <kpoints>
  <generation param="Gamma">
   <v type="int" name="divisions">       1        1        1 </v>
   <v name="usershift">      0.00000000       0.00000000       0.00000000 </v>
   <v name="genvec1">      1.00000000       0.00000000       0.00000000 </v>
   <v name="genvec2">      0.00000000       1.00000000       0.00000000 </v>
   <v name="genvec3">      0.00000000       0.00000000       1.00000000 </v>
   <v name="shift">      0.00000000       0.00000000       0.00000000 </v>
  </generation>
  <varray name="kpointlist" >
   <v>       0.00000000       0.00000000       0.00000000 </v>
  </varray>
  <varray name="weights" >
   <v>       1.00000000 </v>
  </varray>
 </kpoints>
 <parameters>
  <separator name="general" >
   <i type="string" name="SYSTEM">unknown system</i>
   <i type="logical" name="LCOMPAT"> F  </i>
  </separator>
  <separator name="electronic" >
   <i type="string" name="PREC">accura</i>
   <i name="ENMAX">    520.00000000</i>
   <i name="ENAUG">    575.89200000</i>
   <i name="EDIFF">      0.00005000</i>
   <i type="int" name="IALGO">    53</i>
   <i type="int" name="IWAVPR">    11</i>
   <i type="int" name="NBANDS">    36</i>
   <i name="NELECT">     12.00000000</i>
   <i type="int" name="TURBO">     0</i>
   <i type="int" name="IRESTART">     0</i>
   <i type="int" name="NREBOOT">     0</i>
   <i type="int" name="NMIN">     0</i>
   <i name="EREF">      0.00000000</i>
   <separator name="electronic smearing" >
    <i type="int" name="ISMEAR">     0</i>
    <i name="SIGMA">      0.05000000</i>
    <i name="KSPACING">      0.50000000</i>
    <i type="logical" name="KGAMMA"> T  </i>
   </separator>
   <separator name="electronic projectors" >
    <i type="logical" name="LREAL"> T  </i>
    <v name="ROPT">     -0.00025000</v>
    <i type="int" name="LMAXPAW">  -100</i>
    <i type="int" name="LMAXMIX">     2</i>
    <i type="logical" name="NLSPLINE"> F  </i>
   </separator>
   <separator name="electronic startup" >
    <i type="int" name="ISTART">     0</i>
    <i type="int" name="ICHARG">     2</i>
    <i type="int" name="INIWAV">     1</i>
   </separator>
   <separator name="electronic spin" >
    <i type="int" name="ISPIN">     2</i>
    <i type="logical" name="LNONCOLLINEAR"> F  </i>
    <v name="MAGMOM">      0.60000000</v>
    <i name="NUPDOWN">     -1.00000000</i>
    <i type="logical" name="LSORBIT"> F  </i>
    <v name="SAXIS">      0.00000000      0.00000000      1.00000000</v>
    <i type="logical" name="LSPIRAL"> F  </i>
    <v name="QSPIRAL">      0.00000000      0.00000000      0.00000000</v>
    <i type="logical" name="LZEROZ"> F  </i>
   </separator>
   <separator name="electronic exchange-correlation" >
    <i type="logical" name="LASPH"> T  </i>
    <i type="logical" name="LMETAGGA"> F  </i>
   </separator>
   <separator name="electronic convergence" >
    <i type="int" name="NELM">   300</i>
    <i type="int" name="NELMDL">    -5</i>
    <i type="int" name="NELMIN">     2</i>
    <i name="ENINI">    520.00000000</i>
    <separator name="electronic convergence detail" >
     <i type="logical" name="LDIAG"> T  </i>
     <i type="logical" name="LSUBROT"> F  </i>
     <i name="WEIMIN">      0.00100000</i>
     <i name="EBREAK">      0.00000035</i>
     <i name="DEPER">      0.30000000</i>
     <i type="int" name="NRMM">     4</i>
     <i name="TIME">      0.40000000</i>
    </separator>
   </separator>
   <separator name="electronic mixer" >
    <i name="AMIX">      0.40000000</i>
    <i name="BMIX">      1.00000000</i>
    <i name="AMIN">      0.10000000</i>
    <i name="AMIX_MAG">      1.60000000</i>
    <i name="BMIX_MAG">      1.00000000</i>
    <separator name="electronic mixer details" >
     <i type="int" name="IMIX">     4</i>
     <i type="logical" name="MIXFIRST"> F  </i>
     <i type="int" name="MAXMIX">   -45</i>
     <i name="WC">    100.00000000</i>
     <i type="int" name="INIMIX">     1</i>
     <i type="int" name="MIXPRE">     1</i>
     <i type="int" name="MREMOVE">     5</i>
    </separator>
   </separator>
   <separator name="electronic dipolcorrection" >
    <i type="logical" name="LDIPOL"> F  </i>
    <i type="logical" name="LMONO"> F  </i>
    <i type="int" name="IDIPOL">     0</i>
    <i name="EPSILON">      1.00000000</i>
    <v name="DIPOL">   -100.00000000   -100.00000000   -100.00000000</v>
    <i name="EFIELD">      0.00000000</i>
   </separator>
  </separator>
  <separator name="grids" >
   <i type="int" name="NGX">    80</i>
   <i type="int" name="NGY">    80</i>
   <i type="int" name="NGZ">    80</i>
   <i type="int" name="NGXF">   160</i>
   <i type="int" name="NGYF">   160</i>
   <i type="int" name="NGZF">   160</i>
   <i type="logical" name="ADDGRID"> F  </i>
  </separator>
  <separator name="ionic" >
   <i type="int" name="NSW">    99</i>
   <i type="int" name="IBRION">     2</i>
   <i type="int" name="MDALGO">     0</i>
   <i type="int" name="ISIF">     2</i>
   <i name="PSTRESS">      0.00000000</i>
   <i name="EDIFFG">      0.00050000</i>
   <i type="int" name="NFREE">     1</i>
   <i name="POTIM">      0.50000000</i>
   <i name="SMASS">     -3.00000000</i>
   <i name="SCALEE">      1.00000000</i>
  </separator>
  <separator name="ionic md" >
   <i name="TEBEG">      0.00010000</i>
   <i name="TEEND">      0.00010000</i>
   <i type="int" name="NBLOCK">     1</i>
   <i type="int" name="KBLOCK">    99</i>
   <i type="int" name="NPACO">   256</i>
   <i name="APACO">     16.00000000</i>
  </separator>
  <separator name="symmetry" >
   <i type="int" name="ISYM">     2</i>
   <i name="SYMPREC">      0.00001000</i>
  </separator>
  <separator name="dos" >
   <i type="int" name="LORBIT">    11</i>
   <v name="RWIGS">     -1.00000000</v>
   <i type="int" name="NEDOS">   301</i>
   <i name="EMIN">     10.00000000</i>
   <i name="EMAX">    -10.00000000</i>
   <i name="EFERMI">      0.00000000</i>
  </separator>
  <separator name="writing" >
   <i type="int" name="NWRITE">     2</i>
   <i type="logical" name="LWAVE"> F  </i>
   <i type="logical" name="LDOWNSAMPLE"> F  </i>
   <i type="logical" name="LCHARG"> T  </i>
   <i type="logical" name="LPARD"> F  </i>
   <i type="logical" name="LVTOT"> F  </i>
   <i type="logical" name="LVHAR"> F  </i>
   <i type="logical" name="LELF"> F  </i>
   <i type="logical" name="LOPTICS"> F  </i>
   <v name="STM">      0.00000000      0.00000000      0.00000000      0.00000000      0.00000000      0.00000000      0.00000000</v>
  </separator>
  <separator name="performance" >
   <i type="int" name="NPAR">    36</i>
   <i type="int" name="NSIM">     4</i>
   <i type="int" name="NBLK">    -1</i>
   <i type="logical" name="LPLANE"> T  </i>
   <i type="logical" name="LSCALAPACK"> T  </i>
   <i type="logical" name="LSCAAWARE"> F  </i>
   <i type="logical" name="LSCALU"> F  </i>
   <i type="logical" name="LASYNC"> F  </i>
   <i type="logical" name="LORBITALREAL"> F  </i>
  </separator>
  <separator name="miscellaneous" >
   <i type="int" name="IDIOT">     3</i>
   <i type="int" name="ISPECIAL">     0</i>
   <i type="logical" name="LMUSIC"> F  </i>
   <v name="POMASS">     65.39000000</v>
   <v name="DARWINR">      0.00000000</v>
   <v name="DARWINV">      1.00000000</v>
   <i type="logical" name="LCORR"> T  </i>
  </separator>
  <i type="logical" name="GGA_COMPAT"> T  </i>
  <i type="logical" name="LBERRY"> F  </i>
  <i type="int" name="ICORELEVEL">     0</i>
  <i type="logical" name="LDAU"> F  </i>
  <i type="int" name="I_CONSTRAINED_M">     0</i>
  <separator name="electronic exchange-correlation" >
   <i type="string" name="GGA">--</i>
   <i type="int" name="VOSKOWN">     0</i>
   <i type="logical" name="LHFCALC"> F  </i>
   <i type="string" name="PRECFOCK"></i>
   <i type="logical" name="LSYMGRAD"> F  </i>
   <i type="logical" name="LHFONE"> F  </i>
   <i type="logical" name="LRHFCALC"> F  </i>
   <i type="logical" name="LTHOMAS"> F  </i>
   <i type="logical" name="LMODELHF"> F  </i>
   <i name="ENCUT4O">     -1.00000000</i>
   <i type="int" name="EXXOEP">     0</i>
   <i type="int" name="FOURORBIT">     0</i>
   <i name="AEXX">      0.00000000</i>
   <i name="HFALPHA">      0.00000000</i>
   <i name="MCALPHA">      0.00000000</i>
   <i name="ALDAX">      1.00000000</i>
   <i name="AGGAX">      1.00000000</i>
   <i name="ALDAC">      1.00000000</i>
   <i name="AGGAC">      1.00000000</i>
   <i type="int" name="NKREDX">     1</i>
   <i type="int" name="NKREDY">     1</i>
   <i type="int" name="NKREDZ">     1</i>
   <i type="logical" name="SHIFTRED"> F  </i>
   <i type="logical" name="ODDONLY"> F  </i>
   <i type="logical" name="EVENONLY"> F  </i>
   <i type="int" name="LMAXFOCK">     0</i>
   <i type="int" name="NMAXFOCKAE">     0</i>
   <i type="logical" name="LFOCKAEDFT"> F  </i>
   <i name="HFSCREEN">      0.00000000</i>
   <i name="HFSCREENC">      0.00000000</i>
   <i type="int" name="NBANDSGWLOW">     0</i>
  </separator>
  <separator name="vdW DFT" >
   <i type="logical" name="LUSE_VDW"> F  </i>
   <i name="Zab_VDW">     -0.84910000</i>
   <i name="PARAM1">      0.12340000</i>
   <i name="PARAM2">      1.00000000</i>
   <i name="PARAM3">      0.00000000</i>
  </separator>
  <separator name="model GW" >
   <i type="int" name="MODEL_GW">     0</i>
   <i name="MODEL_EPS0">    600.00000000</i>
   <i name="MODEL_ALPHA">      1.00000000</i>
  </separator>
  <separator name="linear response parameters" >
   <i type="logical" name="LEPSILON"> F  </i>
   <i type="logical" name="LRPA"> F  </i>
   <i type="logical" name="LNABLA"> F  </i>
   <i type="logical" name="LVEL"> F  </i>
   <i type="int" name="KINTER">     0</i>
   <i name="CSHIFT">      0.10000000</i>
   <i name="OMEGAMAX">     -1.00000000</i>
   <i name="DEG_THRESHOLD">      0.00200000</i>
   <i name="RTIME">     -0.10000000</i>
   <i name="WPLASMAI">      0.00000000</i>
   <v name="DFIELD">      0.00000000      0.00000000      0.00000000</v>
   <v name="WPLASMA">      0.00000000      0.00000000      0.00000000      0.00000000      0.00000000      0.00000000      0.00000000      0.00000000      0.00000000</v>
  </separator>
  <separator name="orbital magnetization" >
   <i type="logical" name="NUCIND"> F  </i>
   <v name="MAGPOS">      0.00000000      0.00000000      0.00000000</v>
   <i type="logical" name="LNICSALL"> T  </i>
   <i type="logical" name="ORBITALMAG"> F  </i>
   <i type="logical" name="LMAGBLOCH"> F  </i>
   <i type="logical" name="LCHIMAG"> F  </i>
   <i type="logical" name="LGAUGE"> T  </i>
   <i type="int" name="MAGATOM">     0</i>
   <v name="MAGDIPOL">      0.00000000      0.00000000      0.00000000</v>
   <v name="AVECCONST">      0.00000000      0.00000000      0.00000000</v>
  </separator>
  <separator name="response functions" >
   <i type="logical" name="LADDER"> F  </i>
   <i type="logical" name="LRPAFORCE"> F  </i>
   <i type="logical" name="LFXC"> F  </i>
   <i type="logical" name="LHARTREE"> T  </i>
   <i type="int" name="IBSE">     0</i>
   <v type="int" name="KPOINT">    -1     0     0     0</v>
   <i type="logical" name="LTCTE"> F  </i>
   <i type="logical" name="LTETE"> F  </i>
   <i type="logical" name="LTRIPLET"> F  </i>
   <i type="logical" name="LFXCEPS"> F  </i>
   <i type="logical" name="LFXHEG"> F  </i>
   <i type="int" name="NATURALO">     2</i>
   <i type="logical" name="L2ORDER"> F  </i>
   <i type="logical" name="LMP2LT"> F  </i>
   <i type="logical" name="LUSEW"> F  </i>
   <i name="ENCUTGW">     -2.00000000</i>
   <i name="ENCUTGWSOFT">     -2.00000000</i>
   <i name="ENCUTLF">     -1.00000000</i>
   <i type="int" name="LMAXMP2">    -1</i>
   <i name="SCISSOR">      0.00000000</i>
   <i type="int" name="NOMEGA">     0</i>
   <i type="int" name="NOMEGAR">     0</i>
   <i type="int" name="NBANDSGW">    -1</i>
   <i type="int" name="NBANDSO">    -1</i>
   <i type="int" name="NBANDSV">    -1</i>
   <i type="int" name="NELM">   300</i>
   <i type="int" name="NELMHF">     1</i>
   <i type="int" name="DIM">     3</i>
   <i type="int" name="ANTIRES">     0</i>
   <i name="OMEGAMAX">    -30.00000000</i>
   <i name="OMEGAMIN">    -30.00000000</i>
   <i name="OMEGATL">   -200.00000000</i>
   <i type="int" name="OMEGAGRID">   140</i>
   <i name="CSHIFT">     -0.10000000</i>
   <i type="logical" name="SELFENERGY"> F  </i>
   <i type="logical" name="LSPECTRAL"> F  </i>
   <i type="logical" name="LSPECTRALGW"> F  </i>
   <i type="logical" name="LSINGLES"> F  </i>
   <i type="logical" name="LFERMIGW"> F  </i>
   <i type="logical" name="ODDONLYGW"> F  </i>
   <i type="logical" name="EVENONLYGW"> F  </i>
   <i type="int" name="NKREDLFX">     1</i>
   <i type="int" name="NKREDLFY">     1</i>
   <i type="int" name="NKREDLFZ">     1</i>
   <i type="int" name="MAXMEM">  2800</i>
   <i type="int" name="TELESCOPE">     0</i>
   <i type="int" name="TAUPAR">     1</i>
   <i type="int" name="OMEGAPAR">    -1</i>
   <i name="LAMBDA">      1.00000000</i>
  </separator>
  <separator name="External order field" >
   <i name="OFIELD_KAPPA">      0.00000000</i>
   <v name="OFIELD_K">      0.00000000      0.00000000      0.00000000</v>
   <i name="OFIELD_Q6_NEAR">      0.00000000</i>
   <i name="OFIELD_Q6_FAR">      0.00000000</i>
   <i name="OFIELD_A">      0.00000000</i>
  </separator>
 </parameters>
 <atominfo>
  <atoms>       1 </atoms>
  <types>       1 </types>
  <array name="atoms" >
   <dimension dim="1">ion</dimension>
   <field type="string">element</field>
   <field type="int">atomtype</field>
   <set>
    <rc><c>Zn</c><c>   1</c></rc>
   </set>
  </array>
  <array name="atomtypes" >
   <dimension dim="1">type</dimension>
   <field type="int">atomspertype</field>
   <field type="string">element</field>
   <field>mass</field>
   <field>valence</field>
   <field type="string">pseudopotential</field>
   <set>
    <rc><c>   1</c><c>Zn</c><c>     65.39000000</c><c>     12.00000000</c><c>  PAW_PBE Zn 06Sep2000                  </c></rc>
   </set>
  </array>
 </atominfo>
 <structure name="initialpos" >
  <crystal>
   <varray name="basis" >
    <v>      10.00000000       0.00000000       0.00000000 </v>
    <v>       0.00000000      10.00000000       0.00000000 </v>
    <v>       0.00000000       0.00000000      10.00000000 </v>
   </varray>
   <i name="volume">   1000.00000000 </i>
   <varray name="rec_basis" >
    <v>       0.10000000       0.00000000       0.00000000 </v>
    <v>       0.00000000       0.10000000       0.00000000 </v>
    <v>       0.00000000       0.00000000       0.10000000 </v>
   </varray>
  </crystal>
  <varray name="positions" >
   <v>       0.50000000       0.50000000       0.50000000 </v>
  </varray>
 </structure>
 <calculation>
  <scstep>
   <time name="total">    0.86    0.86</time>
   <energy>
    <i name="alphaZ">      1.58277348 </i>
    <i name="ewald">   -294.16665608 </i>
    <i name="hartreedc">  -1222.22470851 </i>
    <i name="XCdc">     55.55339547 </i>
    <i name="pawpsdc">   1455.19288156 </i>
    <i name="pawaedc">  -1632.74905943 </i>
    <i name="eentropy">     -0.00000000 </i>
    <i name="bandstr">    -60.00467876 </i>
    <i name="atom">   1748.83159411 </i>
    <i name="e_fr_energy">     52.01554184 </i>
    <i name="e_wo_entrp">     52.01554184 </i>
    <i name="e_0_energy">     52.01554184 </i>
   </energy>
  </scstep>
  <scstep>
   <time name="total">    0.38    0.38</time>
   <energy>
    <i name="e_fr_energy">      8.39387711 </i>
    <i name="e_wo_entrp">      8.39387711 </i>
    <i name="e_0_energy">      8.39387711 </i>
   </energy>
  </scstep>
  <scstep>
   <time name="total">    0.39    0.39</time>
   <energy>
    <i name="e_fr_energy">      0.90125901 </i>
    <i name="e_wo_entrp">      0.90125901 </i>
    <i name="e_0_energy">      0.90125901 </i>
   </energy>
  </scstep>
  <scstep>
   <time name="total">    0.40    0.40</time>
   <energy>
    <i name="e_fr_energy">      0.15452162 </i>
    <i name="e_wo_entrp">      0.15452162 </i>
    <i name="e_0_energy">      0.15452162 </i>
   </energy>
  </scstep>
  <scstep>
   <time name="total">    0.61    0.61</time>
   <energy>
    <i name="e_fr_energy">      0.07035948 </i>
    <i name="e_wo_entrp">      0.07035948 </i>
    <i name="e_0_energy">      0.07035948 </i>
   </energy>
  </scstep>
  <scstep>
   <time name="total">    0.91    0.91</time>
   <energy>
    <i name="e_fr_energy">      0.00668269 </i>
    <i name="e_wo_entrp">      0.00668269 </i>
    <i name="e_0_energy">      0.00668269 </i>
   </energy>
  </scstep>
  <scstep>
   <time name="total">    0.89    0.89</time>
   <energy>
    <i name="e_fr_energy">     -0.00680890 </i>
    <i name="e_wo_entrp">     -0.00680890 </i>
    <i name="e_0_energy">     -0.00680890 </i>
   </energy>
  </scstep>
  <scstep>
   <time name="total">    0.89    0.89</time>
   <energy>
    <i name="e_fr_energy">     -0.01188107 </i>
    <i name="e_wo_entrp">     -0.01188107 </i>
    <i name="e_0_energy">     -0.01188107 </i>
   </energy>
  </scstep>
  <scstep>
   <time name="total">    0.89    0.89</time>
   <energy>
    <i name="e_fr_energy">     -0.01210106 </i>
    <i name="e_wo_entrp">     -0.01210106 </i>
    <i name="e_0_energy">     -0.01210106 </i>
   </energy>
  </scstep>
  <scstep>
   <time name="total">    0.90    0.90</time>
   <energy>
    <i name="e_fr_energy">     -0.01290685 </i>
    <i name="e_wo_entrp">     -0.01290685 </i>
    <i name="e_0_energy">     -0.01290685 </i>
   </energy>
  </scstep>
  <scstep>
   <time name="total">    0.89    0.89</time>
   <energy>
    <i name="e_fr_energy">     -0.01295803 </i>
    <i name="e_wo_entrp">     -0.01295803 </i>
    <i name="e_0_energy">     -0.01295803 </i>
   </energy>
  </scstep>
  <scstep>
   <time name="total">    0.89    0.89</time>
   <energy>
    <i name="e_fr_energy">     -0.01308543 </i>
    <i name="e_wo_entrp">     -0.01308543 </i>
    <i name="e_0_energy">     -0.01308543 </i>
   </energy>
  </scstep>
  <scstep>
   <time name="total">    0.96    0.96</time>
   <energy>
    <i name="alphaZ">      1.58277348 </i>
    <i name="ewald">   -294.16665608 </i>
    <i name="hartreedc">  -1222.24349747 </i>
    <i name="XCdc">     55.52086479 </i>
    <i name="pawpsdc">   1454.71493578 </i>
    <i name="pawaedc">  -1632.36418407 </i>
    <i name="eentropy">     -0.00000000 </i>
    <i name="bandstr">   -111.88895402 </i>
    <i name="atom">   1748.83159411 </i>
    <i name="e_fr_energy">     -0.01312347 </i>
    <i name="e_wo_entrp">     -0.01312347 </i>
    <i name="e_0_energy">     -0.01312347 </i>
   </energy>
  </scstep>
  <structure>
   <crystal>
    <varray name="basis" >
     <v>      10.00000000       0.00000000       0.00000000 </v>
     <v>       0.00000000      10.00000000       0.00000000 </v>
     <v>       0.00000000       0.00000000      10.00000000 </v>
    </varray>
    <i name="volume">   1000.00000000 </i>
    <varray name="rec_basis" >
     <v>       0.10000000       0.00000000       0.00000000 </v>
     <v>       0.00000000       0.10000000       0.00000000 </v>
     <v>       0.00000000       0.00000000       0.10000000 </v>
    </varray>
   </crystal>
   <varray name="positions" >
    <v>       0.50000000       0.50000000       0.50000000 </v>
   </varray>
  </structure>
  <varray name="forces" >
   <v>       0.00000000       0.00000000       0.00000000 </v>
  </varray>
  <varray name="stress" >
   <v>      -0.20650927      -0.00000000       0.00000000 </v>
   <v>       0.00000000      -0.20650927      -0.00000000 </v>
   <v>      -0.00000000      -0.00000000      -0.20650927 </v>
  </varray>
  <energy>
   <i name="e_fr_energy">     -0.01312347 </i>
   <i name="e_wo_entrp">     -0.01312347 </i>
   <i name="e_0_energy">     -0.00000000 </i>
  </energy>
  <time name="totalsc">   16.45   16.62</time>
  <eigenvalues>
   <array>
    <dimension dim="1">band</dimension>
    <dimension dim="2">kpoint</dimension>
    <dimension dim="3">spin</dimension>
    <field>eigene</field>
    <field>occ</field>
    <set>
     <set comment="spin 1">
      <set comment="kpoint 1">
       <r>  -10.0158    1.0000 </r>
       <r>  -10.0158    1.0000 </r>
       <r>  -10.0158    1.0000 </r>
       <r>  -10.0158    1.0000 </r>
       <r>  -10.0158    1.0000 </r>
       <r>   -5.8673    1.0000 </r>
       <r>   -0.9548    0.0000 </r>
       <r>   -0.9396    0.0000 </r>
       <r>   -0.8990    0.0000 </r>
       <r>   -0.2491    0.0000 </r>
       <r>    0.9810    0.0000 </r>
       <r>    0.9814    0.0000 </r>
       <r>    1.6009    0.0000 </r>
       <r>    1.6053    0.0000 </r>
       <r>    1.6315    0.0000 </r>
       <r>    1.9263    0.0000 </r>
       <r>    1.9698    0.0000 </r>
       <r>    2.0764    0.0000 </r>
       <r>    2.1022    0.0000 </r>
       <r>    2.5005    0.0000 </r>
       <r>    2.5306    0.0000 </r>
       <r>    2.5686    0.0000 </r>
       <r>    2.7003    0.0000 </r>
       <r>    3.2580    0.0000 </r>
       <r>    3.2714    0.0000 </r>
       <r>    3.5565    0.0000 </r>
       <r>    3.6275    0.0000 </r>
       <r>    3.6309    0.0000 </r>
       <r>    3.7543    0.0000 </r>
       <r>    3.7573    0.0000 </r>
       <r>    4.2579    0.0000 </r>
       <r>    4.5062    0.0000 </r>
       <r>    4.6146    0.0000 </r>
       <r>    5.3458    0.0000 </r>
       <r>    5.7605    0.0000 </r>
       <r>    6.2799    0.0000 </r>
      </set>
     </set>
     <set comment="spin 2">
      <set comment="kpoint 1">
       <r>  -10.0151    1.0000 </r>
       <r>  -10.0151    1.0000 </r>
       <r>  -10.0151    1.0000 </r>
       <r>  -10.0151    1.0000 </r>
       <r>  -10.0151    1.0000 </r>
       <r>   -5.8674    1.0000 </r>
       <r>   -0.9560    0.0000 </r>
       <r>   -0.9418    0.0000 </r>
       <r>   -0.9235    0.0000 </r>
       <r>   -0.2515    0.0000 </r>
       <r>    0.9785    0.0000 </r>
       <r>    0.9807    0.0000 </r>
       <r>    1.5858    0.0000 </r>
       <r>    1.6048    0.0000 </r>
       <r>    1.6110    0.0000 </r>
       <r>    1.7759    0.0000 </r>
       <r>    1.9548    0.0000 </r>
       <r>    2.0856    0.0000 </r>
       <r>    2.1090    0.0000 </r>
       <r>    2.5518    0.0000 </r>
       <r>    2.5661    0.0000 </r>
       <r>    2.5881    0.0000 </r>
       <r>    2.5986    0.0000 </r>
       <r>    3.2351    0.0000 </r>
       <r>    3.3250    0.0000 </r>
       <r>    3.6651    0.0000 </r>
       <r>    3.7139    0.0000 </r>
       <r>    3.8365    0.0000 </r>
       <r>    3.9792    0.0000 </r>
       <r>    4.0184    0.0000 </r>
       <r>    4.1843    0.0000 </r>
       <r>    4.3158    0.0000 </r>
       <r>    4.3432    0.0000 </r>
       <r>    4.4407    0.0000 </r>
       <r>    5.0716    0.0000 </r>
       <r>    5.9565    0.0000 </r>
      </set>
     </set>
    </set>
   </array>
  </eigenvalues>
  <separator name="orbital magnetization" >
   <v name="MAGDIPOLOUT">      0.00000000      0.00000000      0.00000000</v>
  </separator>
  <dos>
   <i name="efermi">     -5.62852277 </i>
   <total>
    <array>
     <dimension dim="1">gridpoints</dimension>
     <dimension dim="2">spin</dimension>
     <field>energy</field>
     <field>total</field>
     <field>integrated</field>
     <set>
      <set comment="spin 1">
       <r>   -10.8306     0.0000     0.0000 </r>
       <r>   -10.7708     0.0000     0.0000 </r>
       <r>   -10.7111     0.0000     0.0000 </r>
       <r>   -10.6513     0.0000     0.0000 </r>
       <r>   -10.5916     0.0000     0.0000 </r>
       <r>   -10.5318     0.0000     0.0000 </r>
       <r>   -10.4721     0.0000     0.0000 </r>
       <r>   -10.4123     0.0000     0.0000 </r>
       <r>   -10.3526     0.0000     0.0000 </r>
       <r>   -10.2928     0.0000     0.0000 </r>
       <r>   -10.2331     0.0000     0.0000 </r>
       <r>   -10.1733     0.0003     0.0000 </r>
       <r>   -10.1136     0.2371     0.0142 </r>
       <r>   -10.0538    11.5592     0.7049 </r>
       <r>    -9.9941    49.3245     3.6520 </r>
       <r>    -9.9343    21.6718     4.9470 </r>
       <r>    -9.8746     0.8851     4.9998 </r>
       <r>    -9.8148     0.0027     5.0000 </r>
       <r>    -9.7551     0.0000     5.0000 </r>
       <r>    -9.6953     0.0000     5.0000 </r>
       <r>    -9.6356     0.0000     5.0000 </r>
       <r>    -9.5758     0.0000     5.0000 </r>
       <r>    -9.5161     0.0000     5.0000 </r>
       <r>    -9.4563     0.0000     5.0000 </r>
       <r>    -9.3966     0.0000     5.0000 </r>
       <r>    -9.3368     0.0000     5.0000 </r>
       <r>    -9.2771     0.0000     5.0000 </r>
       <r>    -9.2173     0.0000     5.0000 </r>
       <r>    -9.1576     0.0000     5.0000 </r>
       <r>    -9.0978     0.0000     5.0000 </r>
       <r>    -9.0381     0.0000     5.0000 </r>
       <r>    -8.9783     0.0000     5.0000 </r>
       <r>    -8.9186     0.0000     5.0000 </r>
       <r>    -8.8588     0.0000     5.0000 </r>
       <r>    -8.7991     0.0000     5.0000 </r>
       <r>    -8.7393     0.0000     5.0000 </r>
       <r>    -8.6796     0.0000     5.0000 </r>
       <r>    -8.6198     0.0000     5.0000 </r>
       <r>    -8.5600     0.0000     5.0000 </r>
       <r>    -8.5003     0.0000     5.0000 </r>
       <r>    -8.4405     0.0000     5.0000 </r>
       <r>    -8.3808     0.0000     5.0000 </r>
       <r>    -8.3210     0.0000     5.0000 </r>
       <r>    -8.2613     0.0000     5.0000 </r>
       <r>    -8.2015     0.0000     5.0000 </r>
       <r>    -8.1418     0.0000     5.0000 </r>
       <r>    -8.0820     0.0000     5.0000 </r>
       <r>    -8.0223     0.0000     5.0000 </r>
       <r>    -7.9625     0.0000     5.0000 </r>
       <r>    -7.9028     0.0000     5.0000 </r>
       <r>    -7.8430     0.0000     5.0000 </r>
       <r>    -7.7833     0.0000     5.0000 </r>
       <r>    -7.7235     0.0000     5.0000 </r>
       <r>    -7.6638     0.0000     5.0000 </r>
       <r>    -7.6040     0.0000     5.0000 </r>
       <r>    -7.5443     0.0000     5.0000 </r>
       <r>    -7.4845     0.0000     5.0000 </r>
       <r>    -7.4248     0.0000     5.0000 </r>
       <r>    -7.3650     0.0000     5.0000 </r>
       <r>    -7.3053     0.0000     5.0000 </r>
       <r>    -7.2455     0.0000     5.0000 </r>
       <r>    -7.1858     0.0000     5.0000 </r>
       <r>    -7.1260     0.0000     5.0000 </r>
       <r>    -7.0663     0.0000     5.0000 </r>
       <r>    -7.0065     0.0000     5.0000 </r>
       <r>    -6.9468     0.0000     5.0000 </r>
       <r>    -6.8870     0.0000     5.0000 </r>
       <r>    -6.8273     0.0000     5.0000 </r>
       <r>    -6.7675     0.0000     5.0000 </r>
       <r>    -6.7078     0.0000     5.0000 </r>
       <r>    -6.6480     0.0000     5.0000 </r>
       <r>    -6.5883     0.0000     5.0000 </r>
       <r>    -6.5285     0.0000     5.0000 </r>
       <r>    -6.4688     0.0000     5.0000 </r>
       <r>    -6.4090     0.0000     5.0000 </r>
       <r>    -6.3493     0.0000     5.0000 </r>
       <r>    -6.2895     0.0000     5.0000 </r>
       <r>    -6.2298     0.0000     5.0000 </r>
       <r>    -6.1700     0.0000     5.0000 </r>
       <r>    -6.1103     0.0000     5.0000 </r>
       <r>    -6.0505     0.0000     5.0000 </r>
       <r>    -5.9908     0.0040     5.0002 </r>
       <r>    -5.9310     0.5932     5.0357 </r>
       <r>    -5.8713     7.0173     5.4550 </r>
       <r>    -5.8115     8.1609     5.9426 </r>
       <r>    -5.7518     0.9517     5.9995 </r>
       <r>    -5.6920     0.0091     6.0000 </r>
       <r>    -5.6323     0.0000     6.0000 </r>
       <r>    -5.5725     0.0000     6.0000 </r>
       <r>    -5.5128     0.0000     6.0000 </r>
       <r>    -5.4530     0.0000     6.0000 </r>
       <r>    -5.3933     0.0000     6.0000 </r>
       <r>    -5.3335     0.0000     6.0000 </r>
       <r>    -5.2738     0.0000     6.0000 </r>
       <r>    -5.2140     0.0000     6.0000 </r>
       <r>    -5.1543     0.0000     6.0000 </r>
       <r>    -5.0945     0.0000     6.0000 </r>
       <r>    -5.0347     0.0000     6.0000 </r>
       <r>    -4.9750     0.0000     6.0000 </r>
       <r>    -4.9152     0.0000     6.0000 </r>
       <r>    -4.8555     0.0000     6.0000 </r>
       <r>    -4.7957     0.0000     6.0000 </r>
       <r>    -4.7360     0.0000     6.0000 </r>
       <r>    -4.6762     0.0000     6.0000 </r>
       <r>    -4.6165     0.0000     6.0000 </r>
       <r>    -4.5567     0.0000     6.0000 </r>
       <r>    -4.4970     0.0000     6.0000 </r>
       <r>    -4.4372     0.0000     6.0000 </r>
       <r>    -4.3775     0.0000     6.0000 </r>
       <r>    -4.3177     0.0000     6.0000 </r>
       <r>    -4.2580     0.0000     6.0000 </r>
       <r>    -4.1982     0.0000     6.0000 </r>
       <r>    -4.1385     0.0000     6.0000 </r>
       <r>    -4.0787     0.0000     6.0000 </r>
       <r>    -4.0190     0.0000     6.0000 </r>
       <r>    -3.9592     0.0000     6.0000 </r>
       <r>    -3.8995     0.0000     6.0000 </r>
       <r>    -3.8397     0.0000     6.0000 </r>
       <r>    -3.7800     0.0000     6.0000 </r>
       <r>    -3.7202     0.0000     6.0000 </r>
       <r>    -3.6605     0.0000     6.0000 </r>
       <r>    -3.6007     0.0000     6.0000 </r>
       <r>    -3.5410     0.0000     6.0000 </r>
       <r>    -3.4812     0.0000     6.0000 </r>
       <r>    -3.4215     0.0000     6.0000 </r>
       <r>    -3.3617     0.0000     6.0000 </r>
       <r>    -3.3020     0.0000     6.0000 </r>
       <r>    -3.2422     0.0000     6.0000 </r>
       <r>    -3.1825     0.0000     6.0000 </r>
       <r>    -3.1227     0.0000     6.0000 </r>
       <r>    -3.0630     0.0000     6.0000 </r>
       <r>    -3.0032     0.0000     6.0000 </r>
       <r>    -2.9435     0.0000     6.0000 </r>
       <r>    -2.8837     0.0000     6.0000 </r>
       <r>    -2.8240     0.0000     6.0000 </r>
       <r>    -2.7642     0.0000     6.0000 </r>
       <r>    -2.7045     0.0000     6.0000 </r>
       <r>    -2.6447     0.0000     6.0000 </r>
       <r>    -2.5850     0.0000     6.0000 </r>
       <r>    -2.5252     0.0000     6.0000 </r>
       <r>    -2.4655     0.0000     6.0000 </r>
       <r>    -2.4057     0.0000     6.0000 </r>
       <r>    -2.3460     0.0000     6.0000 </r>
       <r>    -2.2862     0.0000     6.0000 </r>
       <r>    -2.2265     0.0000     6.0000 </r>
       <r>    -2.1667     0.0000     6.0000 </r>
       <r>    -2.1070     0.0000     6.0000 </r>
       <r>    -2.0472     0.0000     6.0000 </r>
       <r>    -1.9875     0.0000     6.0000 </r>
       <r>    -1.9277     0.0000     6.0000 </r>
       <r>    -1.8680     0.0000     6.0000 </r>
       <r>    -1.8082     0.0000     6.0000 </r>
       <r>    -1.7485     0.0000     6.0000 </r>
       <r>    -1.6887     0.0000     6.0000 </r>
       <r>    -1.6289     0.0000     6.0000 </r>
       <r>    -1.5692     0.0000     6.0000 </r>
       <r>    -1.5094     0.0000     6.0000 </r>
       <r>    -1.4497     0.0000     6.0000 </r>
       <r>    -1.3899     0.0000     6.0000 </r>
       <r>    -1.3302     0.0000     6.0000 </r>
       <r>    -1.2704     0.0000     6.0000 </r>
       <r>    -1.2107     0.0000     6.0000 </r>
       <r>    -1.1509     0.0000     6.0000 </r>
       <r>    -1.0912     0.0011     6.0001 </r>
       <r>    -1.0314     0.3306     6.0198 </r>
       <r>    -0.9717     8.3343     6.5178 </r>
       <r>    -0.9119    25.2594     8.0271 </r>
       <r>    -0.8522    14.5869     8.8987 </r>
       <r>    -0.7924     1.6743     8.9987 </r>
       <r>    -0.7327     0.0219     9.0000 </r>
       <r>    -0.6729     0.0000     9.0000 </r>
       <r>    -0.6132     0.0000     9.0000 </r>
       <r>    -0.5534     0.0000     9.0000 </r>
       <r>    -0.4937     0.0000     9.0000 </r>
       <r>    -0.4339     0.0000     9.0000 </r>
       <r>    -0.3742     0.0034     9.0002 </r>
       <r>    -0.3144     0.5388     9.0324 </r>
       <r>    -0.2547     6.7842     9.4378 </r>
       <r>    -0.1949     8.3621     9.9374 </r>
       <r>    -0.1352     1.0370     9.9994 </r>
       <r>    -0.0754     0.0106    10.0000 </r>
       <r>    -0.0157     0.0000    10.0000 </r>
       <r>     0.0441     0.0000    10.0000 </r>
       <r>     0.1038     0.0000    10.0000 </r>
       <r>     0.1636     0.0000    10.0000 </r>
       <r>     0.2233     0.0000    10.0000 </r>
       <r>     0.2831     0.0000    10.0000 </r>
       <r>     0.3428     0.0000    10.0000 </r>
       <r>     0.4026     0.0000    10.0000 </r>
       <r>     0.4623     0.0000    10.0000 </r>
       <r>     0.5221     0.0000    10.0000 </r>
       <r>     0.5818     0.0000    10.0000 </r>
       <r>     0.6416     0.0000    10.0000 </r>
       <r>     0.7013     0.0000    10.0000 </r>
       <r>     0.7611     0.0000    10.0000 </r>
       <r>     0.8208     0.0001    10.0000 </r>
       <r>     0.8806     0.0742    10.0044 </r>
       <r>     0.9403     4.0765    10.2480 </r>
       <r>     1.0001    19.4004    11.4072 </r>
       <r>     1.0598     9.4844    11.9739 </r>
       <r>     1.1196     0.4352    11.9999 </r>
       <r>     1.1793     0.0015    12.0000 </r>
       <r>     1.2391     0.0000    12.0000 </r>
       <r>     1.2988     0.0000    12.0000 </r>
       <r>     1.3586     0.0000    12.0000 </r>
       <r>     1.4183     0.0000    12.0000 </r>
       <r>     1.4781     0.0071    12.0004 </r>
       <r>     1.5378     1.1567    12.0695 </r>
       <r>     1.5976    16.3392    13.0458 </r>
       <r>     1.6573    26.7200    14.6424 </r>
       <r>     1.7171     5.8348    14.9910 </r>
       <r>     1.7768     0.1505    15.0000 </r>
       <r>     1.8366     0.0949    15.0057 </r>
       <r>     1.8964     3.5411    15.2172 </r>
       <r>     1.9561    15.6132    16.1502 </r>
       <r>     2.0159    13.3686    16.9489 </r>
       <r>     2.0756    12.8365    17.7159 </r>
       <r>     2.1354    17.7776    18.7781 </r>
       <r>     2.1951     3.6344    18.9953 </r>
       <r>     2.2549     0.0784    19.0000 </r>
       <r>     2.3146     0.0001    19.0000 </r>
       <r>     2.3744     0.0031    19.0002 </r>
       <r>     2.4341     0.5574    19.0335 </r>
       <r>     2.4939     9.3513    19.5922 </r>
       <r>     2.5536    23.7539    21.0116 </r>
       <r>     2.6134    14.7669    21.8939 </r>
       <r>     2.6731     5.4524    22.2197 </r>
       <r>     2.7329    10.0765    22.8218 </r>
       <r>     2.7926     2.9078    22.9955 </r>
       <r>     2.8524     0.0752    23.0000 </r>
       <r>     2.9121     0.0001    23.0000 </r>
       <r>     2.9719     0.0000    23.0000 </r>
       <r>     3.0316     0.0000    23.0000 </r>
       <r>     3.0914     0.0000    23.0000 </r>
       <r>     3.1511     0.0264    23.0016 </r>
       <r>     3.2109     2.2241    23.1345 </r>
       <r>     3.2706    16.6623    24.1301 </r>
       <r>     3.3304    13.4200    24.9319 </r>
       <r>     3.3901     1.1314    24.9995 </r>
       <r>     3.4499     0.0295    25.0013 </r>
       <r>     3.5096     1.5367    25.0931 </r>
       <r>     3.5694    10.7070    25.7329 </r>
       <r>     3.6291    20.8424    26.9782 </r>
       <r>     3.6889    16.5403    27.9665 </r>
       <r>     3.7486    14.5869    28.8381 </r>
       <r>     3.8084    17.1443    29.8625 </r>
       <r>     3.8681     2.2764    29.9985 </r>
       <r>     3.9279     0.0252    30.0000 </r>
       <r>     3.9876     0.0000    30.0000 </r>
       <r>     4.0474     0.0000    30.0000 </r>
       <r>     4.1071     0.0002    30.0000 </r>
       <r>     4.1669     0.0840    30.0050 </r>
       <r>     4.2266     3.0685    30.1884 </r>
       <r>     4.2864    10.0674    30.7899 </r>
       <r>     4.3461     3.4111    30.9937 </r>
       <r>     4.4059     0.1430    31.0023 </r>
       <r>     4.4656     2.0682    31.1258 </r>
       <r>     4.5254     9.8183    31.7125 </r>
       <r>     4.5851     7.9881    32.1898 </r>
       <r>     4.6449    10.2854    32.8044 </r>
       <r>     4.7046     3.1836    32.9946 </r>
       <r>     4.7644     0.0906    33.0000 </r>
       <r>     4.8241     0.0002    33.0000 </r>
       <r>     4.8839     0.0000    33.0000 </r>
       <r>     4.9436     0.0000    33.0000 </r>
       <r>     5.0034     0.0000    33.0000 </r>
       <r>     5.0631     0.0000    33.0000 </r>
       <r>     5.1229     0.0000    33.0000 </r>
       <r>     5.1826     0.0000    33.0000 </r>
       <r>     5.2424     0.0289    33.0017 </r>
       <r>     5.3022     1.7893    33.1086 </r>
       <r>     5.3619     9.4935    33.6759 </r>
       <r>     5.4217     5.1579    33.9841 </r>
       <r>     5.4814     0.2655    33.9999 </r>
       <r>     5.5412     0.0010    34.0000 </r>
       <r>     5.6009     0.0001    34.0000 </r>
       <r>     5.6607     0.0398    34.0024 </r>
       <r>     5.7204     2.1134    34.1287 </r>
       <r>     5.7802     9.7515    34.7113 </r>
       <r>     5.8399     4.6254    34.9877 </r>
       <r>     5.8997     0.2054    35.0000 </r>
       <r>     5.9594     0.0007    35.0000 </r>
       <r>     6.0192     0.0000    35.0000 </r>
       <r>     6.0789     0.0000    35.0000 </r>
       <r>     6.1387     0.0005    35.0000 </r>
       <r>     6.1984     0.1768    35.0106 </r>
       <r>     6.2582     4.3318    35.2694 </r>
       <r>     6.3179     9.8658    35.8589 </r>
       <r>     6.3777     2.3136    35.9972 </r>
       <r>     6.4374     0.0475    36.0000 </r>
       <r>     6.4972     0.0001    36.0000 </r>
       <r>     6.5569     0.0000    36.0000 </r>
       <r>     6.6167     0.0000    36.0000 </r>
       <r>     6.6764     0.0000    36.0000 </r>
       <r>     6.7362     0.0000    36.0000 </r>
       <r>     6.7959     0.0000    36.0000 </r>
       <r>     6.8557     0.0000    36.0000 </r>
       <r>     6.9154     0.0000    36.0000 </r>
       <r>     6.9752     0.0000    36.0000 </r>
       <r>     7.0349     0.0000    36.0000 </r>
       <r>     7.0947     0.0000    36.0000 </r>
      </set>
      <set comment="spin 2">
       <r>   -10.8306     0.0000     0.0000 </r>
       <r>   -10.7708     0.0000     0.0000 </r>
       <r>   -10.7111     0.0000     0.0000 </r>
       <r>   -10.6513     0.0000     0.0000 </r>
       <r>   -10.5916     0.0000     0.0000 </r>
       <r>   -10.5318     0.0000     0.0000 </r>
       <r>   -10.4721     0.0000     0.0000 </r>
       <r>   -10.4123     0.0000     0.0000 </r>
       <r>   -10.3526     0.0000     0.0000 </r>
       <r>   -10.2928     0.0000     0.0000 </r>
       <r>   -10.2331     0.0000     0.0000 </r>
       <r>   -10.1733     0.0003     0.0000 </r>
       <r>   -10.1136     0.2232     0.0134 </r>
       <r>   -10.0538    11.2088     0.6831 </r>
       <r>    -9.9941    49.1415     3.6193 </r>
       <r>    -9.9343    22.1720     4.9441 </r>
       <r>    -9.8746     0.9322     4.9998 </r>
       <r>    -9.8148     0.0030     5.0000 </r>
       <r>    -9.7551     0.0000     5.0000 </r>
       <r>    -9.6953     0.0000     5.0000 </r>
       <r>    -9.6356     0.0000     5.0000 </r>
       <r>    -9.5758     0.0000     5.0000 </r>
       <r>    -9.5161     0.0000     5.0000 </r>
       <r>    -9.4563     0.0000     5.0000 </r>
       <r>    -9.3966     0.0000     5.0000 </r>
       <r>    -9.3368     0.0000     5.0000 </r>
       <r>    -9.2771     0.0000     5.0000 </r>
       <r>    -9.2173     0.0000     5.0000 </r>
       <r>    -9.1576     0.0000     5.0000 </r>
       <r>    -9.0978     0.0000     5.0000 </r>
       <r>    -9.0381     0.0000     5.0000 </r>
       <r>    -8.9783     0.0000     5.0000 </r>
       <r>    -8.9186     0.0000     5.0000 </r>
       <r>    -8.8588     0.0000     5.0000 </r>
       <r>    -8.7991     0.0000     5.0000 </r>
       <r>    -8.7393     0.0000     5.0000 </r>
       <r>    -8.6796     0.0000     5.0000 </r>
       <r>    -8.6198     0.0000     5.0000 </r>
       <r>    -8.5600     0.0000     5.0000 </r>
       <r>    -8.5003     0.0000     5.0000 </r>
       <r>    -8.4405     0.0000     5.0000 </r>
       <r>    -8.3808     0.0000     5.0000 </r>
       <r>    -8.3210     0.0000     5.0000 </r>
       <r>    -8.2613     0.0000     5.0000 </r>
       <r>    -8.2015     0.0000     5.0000 </r>
       <r>    -8.1418     0.0000     5.0000 </r>
       <r>    -8.0820     0.0000     5.0000 </r>
       <r>    -8.0223     0.0000     5.0000 </r>
       <r>    -7.9625     0.0000     5.0000 </r>
       <r>    -7.9028     0.0000     5.0000 </r>
       <r>    -7.8430     0.0000     5.0000 </r>
       <r>    -7.7833     0.0000     5.0000 </r>
       <r>    -7.7235     0.0000     5.0000 </r>
       <r>    -7.6638     0.0000     5.0000 </r>
       <r>    -7.6040     0.0000     5.0000 </r>
       <r>    -7.5443     0.0000     5.0000 </r>
       <r>    -7.4845     0.0000     5.0000 </r>
       <r>    -7.4248     0.0000     5.0000 </r>
       <r>    -7.3650     0.0000     5.0000 </r>
       <r>    -7.3053     0.0000     5.0000 </r>
       <r>    -7.2455     0.0000     5.0000 </r>
       <r>    -7.1858     0.0000     5.0000 </r>
       <r>    -7.1260     0.0000     5.0000 </r>
       <r>    -7.0663     0.0000     5.0000 </r>
       <r>    -7.0065     0.0000     5.0000 </r>
       <r>    -6.9468     0.0000     5.0000 </r>
       <r>    -6.8870     0.0000     5.0000 </r>
       <r>    -6.8273     0.0000     5.0000 </r>
       <r>    -6.7675     0.0000     5.0000 </r>
       <r>    -6.7078     0.0000     5.0000 </r>
       <r>    -6.6480     0.0000     5.0000 </r>
       <r>    -6.5883     0.0000     5.0000 </r>
       <r>    -6.5285     0.0000     5.0000 </r>
       <r>    -6.4688     0.0000     5.0000 </r>
       <r>    -6.4090     0.0000     5.0000 </r>
       <r>    -6.3493     0.0000     5.0000 </r>
       <r>    -6.2895     0.0000     5.0000 </r>
       <r>    -6.2298     0.0000     5.0000 </r>
       <r>    -6.1700     0.0000     5.0000 </r>
       <r>    -6.1103     0.0000     5.0000 </r>
       <r>    -6.0505     0.0000     5.0000 </r>
       <r>    -5.9908     0.0041     5.0002 </r>
       <r>    -5.9310     0.5982     5.0360 </r>
       <r>    -5.8713     7.0377     5.4565 </r>
       <r>    -5.8115     8.1427     5.9430 </r>
       <r>    -5.7518     0.9444     5.9995 </r>
       <r>    -5.6920     0.0090     6.0000 </r>
       <r>    -5.6323     0.0000     6.0000 </r>
       <r>    -5.5725     0.0000     6.0000 </r>
       <r>    -5.5128     0.0000     6.0000 </r>
       <r>    -5.4530     0.0000     6.0000 </r>
       <r>    -5.3933     0.0000     6.0000 </r>
       <r>    -5.3335     0.0000     6.0000 </r>
       <r>    -5.2738     0.0000     6.0000 </r>
       <r>    -5.2140     0.0000     6.0000 </r>
       <r>    -5.1543     0.0000     6.0000 </r>
       <r>    -5.0945     0.0000     6.0000 </r>
       <r>    -5.0347     0.0000     6.0000 </r>
       <r>    -4.9750     0.0000     6.0000 </r>
       <r>    -4.9152     0.0000     6.0000 </r>
       <r>    -4.8555     0.0000     6.0000 </r>
       <r>    -4.7957     0.0000     6.0000 </r>
       <r>    -4.7360     0.0000     6.0000 </r>
       <r>    -4.6762     0.0000     6.0000 </r>
       <r>    -4.6165     0.0000     6.0000 </r>
       <r>    -4.5567     0.0000     6.0000 </r>
       <r>    -4.4970     0.0000     6.0000 </r>
       <r>    -4.4372     0.0000     6.0000 </r>
       <r>    -4.3775     0.0000     6.0000 </r>
       <r>    -4.3177     0.0000     6.0000 </r>
       <r>    -4.2580     0.0000     6.0000 </r>
       <r>    -4.1982     0.0000     6.0000 </r>
       <r>    -4.1385     0.0000     6.0000 </r>
       <r>    -4.0787     0.0000     6.0000 </r>
       <r>    -4.0190     0.0000     6.0000 </r>
       <r>    -3.9592     0.0000     6.0000 </r>
       <r>    -3.8995     0.0000     6.0000 </r>
       <r>    -3.8397     0.0000     6.0000 </r>
       <r>    -3.7800     0.0000     6.0000 </r>
       <r>    -3.7202     0.0000     6.0000 </r>
       <r>    -3.6605     0.0000     6.0000 </r>
       <r>    -3.6007     0.0000     6.0000 </r>
       <r>    -3.5410     0.0000     6.0000 </r>
       <r>    -3.4812     0.0000     6.0000 </r>
       <r>    -3.4215     0.0000     6.0000 </r>
       <r>    -3.3617     0.0000     6.0000 </r>
       <r>    -3.3020     0.0000     6.0000 </r>
       <r>    -3.2422     0.0000     6.0000 </r>
       <r>    -3.1825     0.0000     6.0000 </r>
       <r>    -3.1227     0.0000     6.0000 </r>
       <r>    -3.0630     0.0000     6.0000 </r>
       <r>    -3.0032     0.0000     6.0000 </r>
       <r>    -2.9435     0.0000     6.0000 </r>
       <r>    -2.8837     0.0000     6.0000 </r>
       <r>    -2.8240     0.0000     6.0000 </r>
       <r>    -2.7642     0.0000     6.0000 </r>
       <r>    -2.7045     0.0000     6.0000 </r>
       <r>    -2.6447     0.0000     6.0000 </r>
       <r>    -2.5850     0.0000     6.0000 </r>
       <r>    -2.5252     0.0000     6.0000 </r>
       <r>    -2.4655     0.0000     6.0000 </r>
       <r>    -2.4057     0.0000     6.0000 </r>
       <r>    -2.3460     0.0000     6.0000 </r>
       <r>    -2.2862     0.0000     6.0000 </r>
       <r>    -2.2265     0.0000     6.0000 </r>
       <r>    -2.1667     0.0000     6.0000 </r>
       <r>    -2.1070     0.0000     6.0000 </r>
       <r>    -2.0472     0.0000     6.0000 </r>
       <r>    -1.9875     0.0000     6.0000 </r>
       <r>    -1.9277     0.0000     6.0000 </r>
       <r>    -1.8680     0.0000     6.0000 </r>
       <r>    -1.8082     0.0000     6.0000 </r>
       <r>    -1.7485     0.0000     6.0000 </r>
       <r>    -1.6887     0.0000     6.0000 </r>
       <r>    -1.6289     0.0000     6.0000 </r>
       <r>    -1.5692     0.0000     6.0000 </r>
       <r>    -1.5094     0.0000     6.0000 </r>
       <r>    -1.4497     0.0000     6.0000 </r>
       <r>    -1.3899     0.0000     6.0000 </r>
       <r>    -1.3302     0.0000     6.0000 </r>
       <r>    -1.2704     0.0000     6.0000 </r>
       <r>    -1.2107     0.0000     6.0000 </r>
       <r>    -1.1509     0.0000     6.0000 </r>
       <r>    -1.0912     0.0013     6.0001 </r>
       <r>    -1.0314     0.3868     6.0232 </r>
       <r>    -0.9717     9.8879     6.6140 </r>
       <r>    -0.9119    28.5925     8.3224 </r>
       <r>    -0.8522    10.8516     8.9708 </r>
       <r>    -0.7924     0.4864     8.9999 </r>
       <r>    -0.7327     0.0020     9.0000 </r>
       <r>    -0.6729     0.0000     9.0000 </r>
       <r>    -0.6132     0.0000     9.0000 </r>
       <r>    -0.5534     0.0000     9.0000 </r>
       <r>    -0.4937     0.0000     9.0000 </r>
       <r>    -0.4339     0.0000     9.0000 </r>
       <r>    -0.3742     0.0044     9.0003 </r>
       <r>    -0.3144     0.6243     9.0376 </r>
       <r>    -0.2547     7.1414     9.4643 </r>
       <r>    -0.1949     8.0495     9.9452 </r>
       <r>    -0.1352     0.9081     9.9995 </r>
       <r>    -0.0754     0.0084    10.0000 </r>
       <r>    -0.0157     0.0000    10.0000 </r>
       <r>     0.0441     0.0000    10.0000 </r>
       <r>     0.1038     0.0000    10.0000 </r>
       <r>     0.1636     0.0000    10.0000 </r>
       <r>     0.2233     0.0000    10.0000 </r>
       <r>     0.2831     0.0000    10.0000 </r>
       <r>     0.3428     0.0000    10.0000 </r>
       <r>     0.4026     0.0000    10.0000 </r>
       <r>     0.4623     0.0000    10.0000 </r>
       <r>     0.5221     0.0000    10.0000 </r>
       <r>     0.5818     0.0000    10.0000 </r>
       <r>     0.6416     0.0000    10.0000 </r>
       <r>     0.7013     0.0000    10.0000 </r>
       <r>     0.7611     0.0000    10.0000 </r>
       <r>     0.8208     0.0001    10.0000 </r>
       <r>     0.8806     0.0859    10.0051 </r>
       <r>     0.9403     4.3902    10.2675 </r>
       <r>     1.0001    19.5947    11.4383 </r>
       <r>     1.0598     9.0124    11.9768 </r>
       <r>     1.1196     0.3877    11.9999 </r>
       <r>     1.1793     0.0013    12.0000 </r>
       <r>     1.2391     0.0000    12.0000 </r>
       <r>     1.2988     0.0000    12.0000 </r>
       <r>     1.3586     0.0000    12.0000 </r>
       <r>     1.4183     0.0000    12.0000 </r>
       <r>     1.4781     0.0236    12.0014 </r>
       <r>     1.5378     2.2482    12.1357 </r>
       <r>     1.5976    21.1850    13.4016 </r>
       <r>     1.6573    23.6572    14.8151 </r>
       <r>     1.7171     3.8617    15.0458 </r>
       <r>     1.7768     7.7735    15.5103 </r>
       <r>     1.8366     7.4811    15.9573 </r>
       <r>     1.8964     1.5296    16.0487 </r>
       <r>     1.9561     7.7941    16.5144 </r>
       <r>     2.0159     7.8988    16.9864 </r>
       <r>     2.0756     9.6268    17.5616 </r>
       <r>     2.1354    18.9325    18.6928 </r>
       <r>     2.1951     5.0007    18.9916 </r>
       <r>     2.2549     0.1401    19.0000 </r>
       <r>     2.3146     0.0003    19.0000 </r>
       <r>     2.3744     0.0000    19.0000 </r>
       <r>     2.4341     0.0090    19.0005 </r>
       <r>     2.4939     1.2692    19.0764 </r>
       <r>     2.5536    17.9315    20.1478 </r>
       <r>     2.6134    35.8957    22.2926 </r>
       <r>     2.6731    11.3844    22.9728 </r>
       <r>     2.7329     0.4532    22.9999 </r>
       <r>     2.7926     0.0016    23.0000 </r>
       <r>     2.8524     0.0000    23.0000 </r>
       <r>     2.9121     0.0000    23.0000 </r>
       <r>     2.9719     0.0000    23.0000 </r>
       <r>     3.0316     0.0000    23.0000 </r>
       <r>     3.0914     0.0004    23.0000 </r>
       <r>     3.1511     0.1465    23.0088 </r>
       <r>     3.2109     3.9928    23.2474 </r>
       <r>     3.2706    10.9980    23.9045 </r>
       <r>     3.3304    10.9116    24.5565 </r>
       <r>     3.3901     6.8737    24.9672 </r>
       <r>     3.4499     0.5458    24.9998 </r>
       <r>     3.5096     0.0036    25.0000 </r>
       <r>     3.5694     0.0570    25.0034 </r>
       <r>     3.6291     2.6667    25.1628 </r>
       <r>     3.6889    13.8330    25.9893 </r>
       <r>     3.7486    14.1486    26.8347 </r>
       <r>     3.8084     6.2741    27.2096 </r>
       <r>     3.8681    10.1408    27.8155 </r>
       <r>     3.9279     4.3191    28.0735 </r>
       <r>     3.9876    11.9245    28.7860 </r>
       <r>     4.0474    16.4179    29.7670 </r>
       <r>     4.1071     4.0382    30.0083 </r>
       <r>     4.1669     5.0630    30.3108 </r>
       <r>     4.2266     9.7025    30.8906 </r>
       <r>     4.2864     6.0922    31.2546 </r>
       <r>     4.3461    18.1795    32.3408 </r>
       <r>     4.4059    13.0168    33.1186 </r>
       <r>     4.4656    10.7214    33.7592 </r>
       <r>     4.5254     3.8908    33.9917 </r>
       <r>     4.5851     0.1388    34.0000 </r>
       <r>     4.6449     0.0004    34.0000 </r>
       <r>     4.7046     0.0000    34.0000 </r>
       <r>     4.7644     0.0000    34.0000 </r>
       <r>     4.8241     0.0000    34.0000 </r>
       <r>     4.8839     0.0000    34.0000 </r>
       <r>     4.9436     0.0025    34.0001 </r>
       <r>     5.0034     0.4457    34.0268 </r>
       <r>     5.0631     6.3301    34.4050 </r>
       <r>     5.1229     8.7264    34.9264 </r>
       <r>     5.1826     1.2174    34.9992 </r>
       <r>     5.2424     0.0141    35.0000 </r>
       <r>     5.3022     0.0000    35.0000 </r>
       <r>     5.3619     0.0000    35.0000 </r>
       <r>     5.4217     0.0000    35.0000 </r>
       <r>     5.4814     0.0000    35.0000 </r>
       <r>     5.5412     0.0000    35.0000 </r>
       <r>     5.6009     0.0000    35.0000 </r>
       <r>     5.6607     0.0000    35.0000 </r>
       <r>     5.7204     0.0000    35.0000 </r>
       <r>     5.7802     0.0000    35.0000 </r>
       <r>     5.8399     0.0082    35.0005 </r>
       <r>     5.8997     0.8957    35.0540 </r>
       <r>     5.9594     8.0166    35.5330 </r>
       <r>     6.0192     7.1776    35.9619 </r>
       <r>     6.0789     0.6336    35.9997 </r>
       <r>     6.1387     0.0045    36.0000 </r>
       <r>     6.1984     0.0000    36.0000 </r>
       <r>     6.2582     0.0000    36.0000 </r>
       <r>     6.3179     0.0000    36.0000 </r>
       <r>     6.3777     0.0000    36.0000 </r>
       <r>     6.4374     0.0000    36.0000 </r>
       <r>     6.4972     0.0000    36.0000 </r>
       <r>     6.5569     0.0000    36.0000 </r>
       <r>     6.6167     0.0000    36.0000 </r>
       <r>     6.6764     0.0000    36.0000 </r>
       <r>     6.7362     0.0000    36.0000 </r>
       <r>     6.7959     0.0000    36.0000 </r>
       <r>     6.8557     0.0000    36.0000 </r>
       <r>     6.9154     0.0000    36.0000 </r>
       <r>     6.9752     0.0000    36.0000 </r>
       <r>     7.0349     0.0000    36.0000 </r>
       <r>     7.0947     0.0000    36.0000 </r>
      </set>
     </set>
    </array>
   </total>
   <partial>
    <array>
     <dimension dim="1">gridpoints</dimension>
     <dimension dim="2">spin</dimension>
     <dimension dim="3">ion</dimension>
     <field>energy</field>
     <field>    s</field>
     <field>   py</field>
     <field>   pz</field>
     <field>   px</field>
     <field>  dxy</field>
     <field>  dyz</field>
     <field>  dz2</field>
     <field>  dxz</field>
     <field>x2-y2</field>
     <set>
      <set comment="ion 1">
       <set comment="spin 1">
        <r>   -10.8306     0.0000     0.0000     0.0000     0.0000     0.0000     0.0000     0.0000     0.0000     0.0000 </r>
        <r>   -10.7708     0.0000     0.0000     0.0000     0.0000     0.0000     0.0000     0.0000     0.0000     0.0000 </r>
        <r>   -10.7111     0.0000     0.0000     0.0000     0.0000     0.0000     0.0000     0.0000     0.0000     0.0000 </r>
        <r>   -10.6513     0.0000     0.0000     0.0000     0.0000     0.0000     0.0000     0.0000     0.0000     0.0000 </r>
        <r>   -10.5916     0.0000     0.0000     0.0000     0.0000     0.0000     0.0000     0.0000     0.0000     0.0000 </r>
        <r>   -10.5318     0.0000     0.0000     0.0000     0.0000     0.0000     0.0000     0.0000     0.0000     0.0000 </r>
        <r>   -10.4721     0.0000     0.0000     0.0000     0.0000     0.0000     0.0000     0.0000     0.0000     0.0000 </r>
        <r>   -10.4123     0.0000     0.0000     0.0000     0.0000     0.0000     0.0000     0.0000     0.0000     0.0000 </r>
        <r>   -10.3526     0.0000     0.0000     0.0000     0.0000     0.0000     0.0000     0.0000     0.0000     0.0000 </r>
        <r>   -10.2928     0.0000     0.0000     0.0000     0.0000     0.0000     0.0000     0.0000     0.0000     0.0000 </r>
        <r>   -10.2331     0.0000     0.0000     0.0000     0.0000     0.0000     0.0000     0.0000     0.0000     0.0000 </r>
        <r>   -10.1733     0.0000     0.0000     0.0000     0.0000     0.0001     0.0001     0.0001     0.0001     0.0001 </r>
        <r>   -10.1136     0.0000     0.0000     0.0000     0.0000     0.0461     0.0461     0.0463     0.0461     0.0463 </r>
        <r>   -10.0538     0.0000     0.0000     0.0000     0.0000     2.2504     2.2504     2.2533     2.2504     2.2533 </r>
        <r>    -9.9941     0.0000     0.0000     0.0000     0.0000     9.6071     9.6070     9.6085     9.6070     9.6085 </r>
        <r>    -9.9343     0.0000     0.0000     0.0000     0.0000     4.2230     4.2230     4.2189     4.2230     4.2189 </r>
        <r>    -9.8746     0.0000     0.0000     0.0000     0.0000     0.1726     0.1726     0.1722     0.1726     0.1722 </r>
        <r>    -9.8148     0.0000     0.0000     0.0000     0.0000     0.0005     0.0005     0.0005     0.0005     0.0005 </r>
        <r>    -9.7551     0.0000     0.0000     0.0000     0.0000     0.0000     0.0000     0.0000     0.0000     0.0000 </r>
        <r>    -9.6953     0.0000     0.0000     0.0000     0.0000     0.0000     0.0000     0.0000     0.0000     0.0000 </r>
        <r>    -9.6356     0.0000     0.0000     0.0000     0.0000     0.0000     0.0000     0.0000     0.0000     0.0000 </r>
        <r>    -9.5758     0.0000     0.0000     0.0000     0.0000     0.0000     0.0000     0.0000     0.0000     0.0000 </r>
        <r>    -9.5161     0.0000     0.0000     0.0000     0.0000     0.0000     0.0000     0.0000     0.0000     0.0000 </r>
        <r>    -9.4563     0.0000     0.0000     0.0000     0.0000     0.0000     0.0000     0.0000     0.0000     0.0000 </r>
        <r>    -9.3966     0.0000     0.0000     0.0000     0.0000     0.0000     0.0000     0.0000     0.0000     0.0000 </r>
        <r>    -9.3368     0.0000     0.0000     0.0000     0.0000     0.0000     0.0000     0.0000     0.0000     0.0000 </r>
        <r>    -9.2771     0.0000     0.0000     0.0000     0.0000     0.0000     0.0000     0.0000     0.0000     0.0000 </r>
        <r>    -9.2173     0.0000     0.0000     0.0000     0.0000     0.0000     0.0000     0.0000     0.0000     0.0000 </r>
        <r>    -9.1576     0.0000     0.0000     0.0000     0.0000     0.0000     0.0000     0.0000     0.0000     0.0000 </r>
        <r>    -9.0978     0.0000     0.0000     0.0000     0.0000     0.0000     0.0000     0.0000     0.0000     0.0000 </r>
        <r>    -9.0381     0.0000     0.0000     0.0000     0.0000     0.0000     0.0000     0.0000     0.0000     0.0000 </r>
        <r>    -8.9783     0.0000     0.0000     0.0000     0.0000     0.0000     0.0000     0.0000     0.0000     0.0000 </r>
        <r>    -8.9186     0.0000     0.0000     0.0000     0.0000     0.0000     0.0000     0.0000     0.0000     0.0000 </r>
        <r>    -8.8588     0.0000     0.0000     0.0000     0.0000     0.0000     0.0000     0.0000     0.0000     0.0000 </r>
        <r>    -8.7991     0.0000     0.0000     0.0000     0.0000     0.0000     0.0000     0.0000     0.0000     0.0000 </r>
        <r>    -8.7393     0.0000     0.0000     0.0000     0.0000     0.0000     0.0000     0.0000     0.0000     0.0000 </r>
        <r>    -8.6796     0.0000     0.0000     0.0000     0.0000     0.0000     0.0000     0.0000     0.0000     0.0000 </r>
        <r>    -8.6198     0.0000     0.0000     0.0000     0.0000     0.0000     0.0000     0.0000     0.0000     0.0000 </r>
        <r>    -8.5600     0.0000     0.0000     0.0000     0.0000     0.0000     0.0000     0.0000     0.0000     0.0000 </r>
        <r>    -8.5003     0.0000     0.0000     0.0000     0.0000     0.0000     0.0000     0.0000     0.0000     0.0000 </r>
        <r>    -8.4405     0.0000     0.0000     0.0000     0.0000     0.0000     0.0000     0.0000     0.0000     0.0000 </r>
        <r>    -8.3808     0.0000     0.0000     0.0000     0.0000     0.0000     0.0000     0.0000     0.0000     0.0000 </r>
        <r>    -8.3210     0.0000     0.0000     0.0000     0.0000     0.0000     0.0000     0.0000     0.0000     0.0000 </r>
        <r>    -8.2613     0.0000     0.0000     0.0000     0.0000     0.0000     0.0000     0.0000     0.0000     0.0000 </r>
        <r>    -8.2015     0.0000     0.0000     0.0000     0.0000     0.0000     0.0000     0.0000     0.0000     0.0000 </r>
        <r>    -8.1418     0.0000     0.0000     0.0000     0.0000     0.0000     0.0000     0.0000     0.0000     0.0000 </r>
        <r>    -8.0820     0.0000     0.0000     0.0000     0.0000     0.0000     0.0000     0.0000     0.0000     0.0000 </r>
        <r>    -8.0223     0.0000     0.0000     0.0000     0.0000     0.0000     0.0000     0.0000     0.0000     0.0000 </r>
        <r>    -7.9625     0.0000     0.0000     0.0000     0.0000     0.0000     0.0000     0.0000     0.0000     0.0000 </r>
        <r>    -7.9028     0.0000     0.0000     0.0000     0.0000     0.0000     0.0000     0.0000     0.0000     0.0000 </r>
        <r>    -7.8430     0.0000     0.0000     0.0000     0.0000     0.0000     0.0000     0.0000     0.0000     0.0000 </r>
        <r>    -7.7833     0.0000     0.0000     0.0000     0.0000     0.0000     0.0000     0.0000     0.0000     0.0000 </r>
        <r>    -7.7235     0.0000     0.0000     0.0000     0.0000     0.0000     0.0000     0.0000     0.0000     0.0000 </r>
        <r>    -7.6638     0.0000     0.0000     0.0000     0.0000     0.0000     0.0000     0.0000     0.0000     0.0000 </r>
        <r>    -7.6040     0.0000     0.0000     0.0000     0.0000     0.0000     0.0000     0.0000     0.0000     0.0000 </r>
        <r>    -7.5443     0.0000     0.0000     0.0000     0.0000     0.0000     0.0000     0.0000     0.0000     0.0000 </r>
        <r>    -7.4845     0.0000     0.0000     0.0000     0.0000     0.0000     0.0000     0.0000     0.0000     0.0000 </r>
        <r>    -7.4248     0.0000     0.0000     0.0000     0.0000     0.0000     0.0000     0.0000     0.0000     0.0000 </r>
        <r>    -7.3650     0.0000     0.0000     0.0000     0.0000     0.0000     0.0000     0.0000     0.0000     0.0000 </r>
        <r>    -7.3053     0.0000     0.0000     0.0000     0.0000     0.0000     0.0000     0.0000     0.0000     0.0000 </r>
        <r>    -7.2455     0.0000     0.0000     0.0000     0.0000     0.0000     0.0000     0.0000     0.0000     0.0000 </r>
        <r>    -7.1858     0.0000     0.0000     0.0000     0.0000     0.0000     0.0000     0.0000     0.0000     0.0000 </r>
        <r>    -7.1260     0.0000     0.0000     0.0000     0.0000     0.0000     0.0000     0.0000     0.0000     0.0000 </r>
        <r>    -7.0663     0.0000     0.0000     0.0000     0.0000     0.0000     0.0000     0.0000     0.0000     0.0000 </r>
        <r>    -7.0065     0.0000     0.0000     0.0000     0.0000     0.0000     0.0000     0.0000     0.0000     0.0000 </r>
        <r>    -6.9468     0.0000     0.0000     0.0000     0.0000     0.0000     0.0000     0.0000     0.0000     0.0000 </r>
        <r>    -6.8870     0.0000     0.0000     0.0000     0.0000     0.0000     0.0000     0.0000     0.0000     0.0000 </r>
        <r>    -6.8273     0.0000     0.0000     0.0000     0.0000     0.0000     0.0000     0.0000     0.0000     0.0000 </r>
        <r>    -6.7675     0.0000     0.0000     0.0000     0.0000     0.0000     0.0000     0.0000     0.0000     0.0000 </r>
        <r>    -6.7078     0.0000     0.0000     0.0000     0.0000     0.0000     0.0000     0.0000     0.0000     0.0000 </r>
        <r>    -6.6480     0.0000     0.0000     0.0000     0.0000     0.0000     0.0000     0.0000     0.0000     0.0000 </r>
        <r>    -6.5883     0.0000     0.0000     0.0000     0.0000     0.0000     0.0000     0.0000     0.0000     0.0000 </r>
        <r>    -6.5285     0.0000     0.0000     0.0000     0.0000     0.0000     0.0000     0.0000     0.0000     0.0000 </r>
        <r>    -6.4688     0.0000     0.0000     0.0000     0.0000     0.0000     0.0000     0.0000     0.0000     0.0000 </r>
        <r>    -6.4090     0.0000     0.0000     0.0000     0.0000     0.0000     0.0000     0.0000     0.0000     0.0000 </r>
        <r>    -6.3493     0.0000     0.0000     0.0000     0.0000     0.0000     0.0000     0.0000     0.0000     0.0000 </r>
        <r>    -6.2895     0.0000     0.0000     0.0000     0.0000     0.0000     0.0000     0.0000     0.0000     0.0000 </r>
        <r>    -6.2298     0.0000     0.0000     0.0000     0.0000     0.0000     0.0000     0.0000     0.0000     0.0000 </r>
        <r>    -6.1700     0.0000     0.0000     0.0000     0.0000     0.0000     0.0000     0.0000     0.0000     0.0000 </r>
        <r>    -6.1103     0.0000     0.0000     0.0000     0.0000     0.0000     0.0000     0.0000     0.0000     0.0000 </r>
        <r>    -6.0505     0.0000     0.0000     0.0000     0.0000     0.0000     0.0000     0.0000     0.0000     0.0000 </r>
        <r>    -5.9908     0.0018     0.0000     0.0000     0.0000     0.0000     0.0000     0.0000     0.0000     0.0000 </r>
        <r>    -5.9310     0.2606     0.0000     0.0000     0.0000     0.0000     0.0000     0.0000     0.0000     0.0000 </r>
        <r>    -5.8713     3.0823     0.0000     0.0000     0.0000     0.0000     0.0000     0.0000     0.0000     0.0000 </r>
        <r>    -5.8115     3.5846     0.0000     0.0000     0.0000     0.0000     0.0000     0.0000     0.0000     0.0000 </r>
        <r>    -5.7518     0.4180     0.0000     0.0000     0.0000     0.0000     0.0000     0.0000     0.0000     0.0000 </r>
        <r>    -5.6920     0.0040     0.0000     0.0000     0.0000     0.0000     0.0000     0.0000     0.0000     0.0000 </r>
        <r>    -5.6323     0.0000     0.0000     0.0000     0.0000     0.0000     0.0000     0.0000     0.0000     0.0000 </r>
        <r>    -5.5725     0.0000     0.0000     0.0000     0.0000     0.0000     0.0000     0.0000     0.0000     0.0000 </r>
        <r>    -5.5128     0.0000     0.0000     0.0000     0.0000     0.0000     0.0000     0.0000     0.0000     0.0000 </r>
        <r>    -5.4530     0.0000     0.0000     0.0000     0.0000     0.0000     0.0000     0.0000     0.0000     0.0000 </r>
        <r>    -5.3933     0.0000     0.0000     0.0000     0.0000     0.0000     0.0000     0.0000     0.0000     0.0000 </r>
        <r>    -5.3335     0.0000     0.0000     0.0000     0.0000     0.0000     0.0000     0.0000     0.0000     0.0000 </r>
        <r>    -5.2738     0.0000     0.0000     0.0000     0.0000     0.0000     0.0000     0.0000     0.0000     0.0000 </r>
        <r>    -5.2140     0.0000     0.0000     0.0000     0.0000     0.0000     0.0000     0.0000     0.0000     0.0000 </r>
        <r>    -5.1543     0.0000     0.0000     0.0000     0.0000     0.0000     0.0000     0.0000     0.0000     0.0000 </r>
        <r>    -5.0945     0.0000     0.0000     0.0000     0.0000     0.0000     0.0000     0.0000     0.0000     0.0000 </r>
        <r>    -5.0347     0.0000     0.0000     0.0000     0.0000     0.0000     0.0000     0.0000     0.0000     0.0000 </r>
        <r>    -4.9750     0.0000     0.0000     0.0000     0.0000     0.0000     0.0000     0.0000     0.0000     0.0000 </r>
        <r>    -4.9152     0.0000     0.0000     0.0000     0.0000     0.0000     0.0000     0.0000     0.0000     0.0000 </r>
        <r>    -4.8555     0.0000     0.0000     0.0000     0.0000     0.0000     0.0000     0.0000     0.0000     0.0000 </r>
        <r>    -4.7957     0.0000     0.0000     0.0000     0.0000     0.0000     0.0000     0.0000     0.0000     0.0000 </r>
        <r>    -4.7360     0.0000     0.0000     0.0000     0.0000     0.0000     0.0000     0.0000     0.0000     0.0000 </r>
        <r>    -4.6762     0.0000     0.0000     0.0000     0.0000     0.0000     0.0000     0.0000     0.0000     0.0000 </r>
        <r>    -4.6165     0.0000     0.0000     0.0000     0.0000     0.0000     0.0000     0.0000     0.0000     0.0000 </r>
        <r>    -4.5567     0.0000     0.0000     0.0000     0.0000     0.0000     0.0000     0.0000     0.0000     0.0000 </r>
        <r>    -4.4970     0.0000     0.0000     0.0000     0.0000     0.0000     0.0000     0.0000     0.0000     0.0000 </r>
        <r>    -4.4372     0.0000     0.0000     0.0000     0.0000     0.0000     0.0000     0.0000     0.0000     0.0000 </r>
        <r>    -4.3775     0.0000     0.0000     0.0000     0.0000     0.0000     0.0000     0.0000     0.0000     0.0000 </r>
        <r>    -4.3177     0.0000     0.0000     0.0000     0.0000     0.0000     0.0000     0.0000     0.0000     0.0000 </r>
        <r>    -4.2580     0.0000     0.0000     0.0000     0.0000     0.0000     0.0000     0.0000     0.0000     0.0000 </r>
        <r>    -4.1982     0.0000     0.0000     0.0000     0.0000     0.0000     0.0000     0.0000     0.0000     0.0000 </r>
        <r>    -4.1385     0.0000     0.0000     0.0000     0.0000     0.0000     0.0000     0.0000     0.0000     0.0000 </r>
        <r>    -4.0787     0.0000     0.0000     0.0000     0.0000     0.0000     0.0000     0.0000     0.0000     0.0000 </r>
        <r>    -4.0190     0.0000     0.0000     0.0000     0.0000     0.0000     0.0000     0.0000     0.0000     0.0000 </r>
        <r>    -3.9592     0.0000     0.0000     0.0000     0.0000     0.0000     0.0000     0.0000     0.0000     0.0000 </r>
        <r>    -3.8995     0.0000     0.0000     0.0000     0.0000     0.0000     0.0000     0.0000     0.0000     0.0000 </r>
        <r>    -3.8397     0.0000     0.0000     0.0000     0.0000     0.0000     0.0000     0.0000     0.0000     0.0000 </r>
        <r>    -3.7800     0.0000     0.0000     0.0000     0.0000     0.0000     0.0000     0.0000     0.0000     0.0000 </r>
        <r>    -3.7202     0.0000     0.0000     0.0000     0.0000     0.0000     0.0000     0.0000     0.0000     0.0000 </r>
        <r>    -3.6605     0.0000     0.0000     0.0000     0.0000     0.0000     0.0000     0.0000     0.0000     0.0000 </r>
        <r>    -3.6007     0.0000     0.0000     0.0000     0.0000     0.0000     0.0000     0.0000     0.0000     0.0000 </r>
        <r>    -3.5410     0.0000     0.0000     0.0000     0.0000     0.0000     0.0000     0.0000     0.0000     0.0000 </r>
        <r>    -3.4812     0.0000     0.0000     0.0000     0.0000     0.0000     0.0000     0.0000     0.0000     0.0000 </r>
        <r>    -3.4215     0.0000     0.0000     0.0000     0.0000     0.0000     0.0000     0.0000     0.0000     0.0000 </r>
        <r>    -3.3617     0.0000     0.0000     0.0000     0.0000     0.0000     0.0000     0.0000     0.0000     0.0000 </r>
        <r>    -3.3020     0.0000     0.0000     0.0000     0.0000     0.0000     0.0000     0.0000     0.0000     0.0000 </r>
        <r>    -3.2422     0.0000     0.0000     0.0000     0.0000     0.0000     0.0000     0.0000     0.0000     0.0000 </r>
        <r>    -3.1825     0.0000     0.0000     0.0000     0.0000     0.0000     0.0000     0.0000     0.0000     0.0000 </r>
        <r>    -3.1227     0.0000     0.0000     0.0000     0.0000     0.0000     0.0000     0.0000     0.0000     0.0000 </r>
        <r>    -3.0630     0.0000     0.0000     0.0000     0.0000     0.0000     0.0000     0.0000     0.0000     0.0000 </r>
        <r>    -3.0032     0.0000     0.0000     0.0000     0.0000     0.0000     0.0000     0.0000     0.0000     0.0000 </r>
        <r>    -2.9435     0.0000     0.0000     0.0000     0.0000     0.0000     0.0000     0.0000     0.0000     0.0000 </r>
        <r>    -2.8837     0.0000     0.0000     0.0000     0.0000     0.0000     0.0000     0.0000     0.0000     0.0000 </r>
        <r>    -2.8240     0.0000     0.0000     0.0000     0.0000     0.0000     0.0000     0.0000     0.0000     0.0000 </r>
        <r>    -2.7642     0.0000     0.0000     0.0000     0.0000     0.0000     0.0000     0.0000     0.0000     0.0000 </r>
        <r>    -2.7045     0.0000     0.0000     0.0000     0.0000     0.0000     0.0000     0.0000     0.0000     0.0000 </r>
        <r>    -2.6447     0.0000     0.0000     0.0000     0.0000     0.0000     0.0000     0.0000     0.0000     0.0000 </r>
        <r>    -2.5850     0.0000     0.0000     0.0000     0.0000     0.0000     0.0000     0.0000     0.0000     0.0000 </r>
        <r>    -2.5252     0.0000     0.0000     0.0000     0.0000     0.0000     0.0000     0.0000     0.0000     0.0000 </r>
        <r>    -2.4655     0.0000     0.0000     0.0000     0.0000     0.0000     0.0000     0.0000     0.0000     0.0000 </r>
        <r>    -2.4057     0.0000     0.0000     0.0000     0.0000     0.0000     0.0000     0.0000     0.0000     0.0000 </r>
        <r>    -2.3460     0.0000     0.0000     0.0000     0.0000     0.0000     0.0000     0.0000     0.0000     0.0000 </r>
        <r>    -2.2862     0.0000     0.0000     0.0000     0.0000     0.0000     0.0000     0.0000     0.0000     0.0000 </r>
        <r>    -2.2265     0.0000     0.0000     0.0000     0.0000     0.0000     0.0000     0.0000     0.0000     0.0000 </r>
        <r>    -2.1667     0.0000     0.0000     0.0000     0.0000     0.0000     0.0000     0.0000     0.0000     0.0000 </r>
        <r>    -2.1070     0.0000     0.0000     0.0000     0.0000     0.0000     0.0000     0.0000     0.0000     0.0000 </r>
        <r>    -2.0472     0.0000     0.0000     0.0000     0.0000     0.0000     0.0000     0.0000     0.0000     0.0000 </r>
        <r>    -1.9875     0.0000     0.0000     0.0000     0.0000     0.0000     0.0000     0.0000     0.0000     0.0000 </r>
        <r>    -1.9277     0.0000     0.0000     0.0000     0.0000     0.0000     0.0000     0.0000     0.0000     0.0000 </r>
        <r>    -1.8680     0.0000     0.0000     0.0000     0.0000     0.0000     0.0000     0.0000     0.0000     0.0000 </r>
        <r>    -1.8082     0.0000     0.0000     0.0000     0.0000     0.0000     0.0000     0.0000     0.0000     0.0000 </r>
        <r>    -1.7485     0.0000     0.0000     0.0000     0.0000     0.0000     0.0000     0.0000     0.0000     0.0000 </r>
        <r>    -1.6887     0.0000     0.0000     0.0000     0.0000     0.0000     0.0000     0.0000     0.0000     0.0000 </r>
        <r>    -1.6289     0.0000     0.0000     0.0000     0.0000     0.0000     0.0000     0.0000     0.0000     0.0000 </r>
        <r>    -1.5692     0.0000     0.0000     0.0000     0.0000     0.0000     0.0000     0.0000     0.0000     0.0000 </r>
        <r>    -1.5094     0.0000     0.0000     0.0000     0.0000     0.0000     0.0000     0.0000     0.0000     0.0000 </r>
        <r>    -1.4497     0.0000     0.0000     0.0000     0.0000     0.0000     0.0000     0.0000     0.0000     0.0000 </r>
        <r>    -1.3899     0.0000     0.0000     0.0000     0.0000     0.0000     0.0000     0.0000     0.0000     0.0000 </r>
        <r>    -1.3302     0.0000     0.0000     0.0000     0.0000     0.0000     0.0000     0.0000     0.0000     0.0000 </r>
        <r>    -1.2704     0.0000     0.0000     0.0000     0.0000     0.0000     0.0000     0.0000     0.0000     0.0000 </r>
        <r>    -1.2107     0.0000     0.0000     0.0000     0.0000     0.0000     0.0000     0.0000     0.0000     0.0000 </r>
        <r>    -1.1509     0.0000     0.0000     0.0000     0.0000     0.0000     0.0000     0.0000     0.0000     0.0000 </r>
        <r>    -1.0912     0.0000     0.0001     0.0000     0.0000     0.0000     0.0000     0.0000     0.0000     0.0000 </r>
        <r>    -1.0314     0.0000     0.0288     0.0149     0.0027     0.0000     0.0000     0.0000     0.0000     0.0000 </r>
        <r>    -0.9717     0.0000     0.6067     0.4496     0.1012     0.0000     0.0000     0.0000     0.0000     0.0000 </r>
        <r>    -0.9119     0.0001     1.2807     1.3437     0.7981     0.0000     0.0000     0.0000     0.0000     0.0000 </r>
        <r>    -0.8522     0.0002     0.3599     0.4509     1.0793     0.0000     0.0000     0.0000     0.0000     0.0000 </r>
        <r>    -0.7924     0.0000     0.0211     0.0168     0.1729     0.0000     0.0000     0.0000     0.0000     0.0000 </r>
        <r>    -0.7327     0.0000     0.0002     0.0001     0.0024     0.0000     0.0000     0.0000     0.0000     0.0000 </r>
        <r>    -0.6729     0.0000     0.0000     0.0000     0.0000     0.0000     0.0000     0.0000     0.0000     0.0000 </r>
        <r>    -0.6132     0.0000     0.0000     0.0000     0.0000     0.0000     0.0000     0.0000     0.0000     0.0000 </r>
        <r>    -0.5534     0.0000     0.0000     0.0000     0.0000     0.0000     0.0000     0.0000     0.0000     0.0000 </r>
        <r>    -0.4937     0.0000     0.0000     0.0000     0.0000     0.0000     0.0000     0.0000     0.0000     0.0000 </r>
        <r>    -0.4339     0.0000     0.0000     0.0000     0.0000     0.0000     0.0000     0.0000     0.0000     0.0000 </r>
        <r>    -0.3742     0.0001     0.0000     0.0000     0.0000     0.0000     0.0000     0.0000     0.0000     0.0000 </r>
        <r>    -0.3144     0.0132     0.0000     0.0000     0.0000     0.0000     0.0000     0.0000     0.0000     0.0000 </r>
        <r>    -0.2547     0.1656     0.0000     0.0000     0.0002     0.0000     0.0000     0.0000     0.0000     0.0000 </r>
        <r>    -0.1949     0.2041     0.0000     0.0000     0.0002     0.0000     0.0000     0.0000     0.0000     0.0000 </r>
        <r>    -0.1352     0.0253     0.0000     0.0000     0.0000     0.0000     0.0000     0.0000     0.0000     0.0000 </r>
        <r>    -0.0754     0.0003     0.0000     0.0000     0.0000     0.0000     0.0000     0.0000     0.0000     0.0000 </r>
        <r>    -0.0157     0.0000     0.0000     0.0000     0.0000     0.0000     0.0000     0.0000     0.0000     0.0000 </r>
        <r>     0.0441     0.0000     0.0000     0.0000     0.0000     0.0000     0.0000     0.0000     0.0000     0.0000 </r>
        <r>     0.1038     0.0000     0.0000     0.0000     0.0000     0.0000     0.0000     0.0000     0.0000     0.0000 </r>
        <r>     0.1636     0.0000     0.0000     0.0000     0.0000     0.0000     0.0000     0.0000     0.0000     0.0000 </r>
        <r>     0.2233     0.0000     0.0000     0.0000     0.0000     0.0000     0.0000     0.0000     0.0000     0.0000 </r>
        <r>     0.2831     0.0000     0.0000     0.0000     0.0000     0.0000     0.0000     0.0000     0.0000     0.0000 </r>
        <r>     0.3428     0.0000     0.0000     0.0000     0.0000     0.0000     0.0000     0.0000     0.0000     0.0000 </r>
        <r>     0.4026     0.0000     0.0000     0.0000     0.0000     0.0000     0.0000     0.0000     0.0000     0.0000 </r>
        <r>     0.4623     0.0000     0.0000     0.0000     0.0000     0.0000     0.0000     0.0000     0.0000     0.0000 </r>
        <r>     0.5221     0.0000     0.0000     0.0000     0.0000     0.0000     0.0000     0.0000     0.0000     0.0000 </r>
        <r>     0.5818     0.0000     0.0000     0.0000     0.0000     0.0000     0.0000     0.0000     0.0000     0.0000 </r>
        <r>     0.6416     0.0000     0.0000     0.0000     0.0000     0.0000     0.0000     0.0000     0.0000     0.0000 </r>
        <r>     0.7013     0.0000     0.0000     0.0000     0.0000     0.0000     0.0000     0.0000     0.0000     0.0000 </r>
        <r>     0.7611     0.0000     0.0000     0.0000     0.0000     0.0000     0.0000     0.0000     0.0000     0.0000 </r>
[...]
        <r>     4.4059     0.0584     0.0392     0.0113     0.0585     0.0002     0.0008     0.0628     0.0001     0.0649 </r>
        <r>     4.4656     0.1566     0.0090     0.0209     0.0043     0.0004     0.0005     0.0245     0.0000     0.0206 </r>
        <r>     4.5254     0.0604     0.0024     0.0079     0.0000     0.0002     0.0002     0.0080     0.0000     0.0062 </r>
        <r>     4.5851     0.0022     0.0001     0.0003     0.0000     0.0000     0.0000     0.0003     0.0000     0.0002 </r>
        <r>     4.6449     0.0000     0.0000     0.0000     0.0000     0.0000     0.0000     0.0000     0.0000     0.0000 </r>
        <r>     4.7046     0.0000     0.0000     0.0000     0.0000     0.0000     0.0000     0.0000     0.0000     0.0000 </r>
        <r>     4.7644     0.0000     0.0000     0.0000     0.0000     0.0000     0.0000     0.0000     0.0000     0.0000 </r>
        <r>     4.8241     0.0000     0.0000     0.0000     0.0000     0.0000     0.0000     0.0000     0.0000     0.0000 </r>
        <r>     4.8839     0.0000     0.0000     0.0000     0.0000     0.0000     0.0000     0.0000     0.0000     0.0000 </r>
        <r>     4.9436     0.0000     0.0000     0.0000     0.0000     0.0000     0.0000     0.0000     0.0000     0.0000 </r>
        <r>     5.0034     0.0003     0.0007     0.0006     0.0015     0.0000     0.0008     0.0002     0.0002     0.0000 </r>
        <r>     5.0631     0.0037     0.0103     0.0091     0.0210     0.0002     0.0108     0.0030     0.0035     0.0002 </r>
        <r>     5.1229     0.0051     0.0141     0.0125     0.0290     0.0002     0.0149     0.0042     0.0048     0.0002 </r>
        <r>     5.1826     0.0007     0.0020     0.0017     0.0040     0.0000     0.0021     0.0006     0.0007     0.0000 </r>
        <r>     5.2424     0.0000     0.0000     0.0000     0.0000     0.0000     0.0000     0.0000     0.0000     0.0000 </r>
        <r>     5.3022     0.0000     0.0000     0.0000     0.0000     0.0000     0.0000     0.0000     0.0000     0.0000 </r>
        <r>     5.3619     0.0000     0.0000     0.0000     0.0000     0.0000     0.0000     0.0000     0.0000     0.0000 </r>
        <r>     5.4217     0.0000     0.0000     0.0000     0.0000     0.0000     0.0000     0.0000     0.0000     0.0000 </r>
        <r>     5.4814     0.0000     0.0000     0.0000     0.0000     0.0000     0.0000     0.0000     0.0000     0.0000 </r>
        <r>     5.5412     0.0000     0.0000     0.0000     0.0000     0.0000     0.0000     0.0000     0.0000     0.0000 </r>
        <r>     5.6009     0.0000     0.0000     0.0000     0.0000     0.0000     0.0000     0.0000     0.0000     0.0000 </r>
        <r>     5.6607     0.0000     0.0000     0.0000     0.0000     0.0000     0.0000     0.0000     0.0000     0.0000 </r>
        <r>     5.7204     0.0000     0.0000     0.0000     0.0000     0.0000     0.0000     0.0000     0.0000     0.0000 </r>
        <r>     5.7802     0.0000     0.0000     0.0000     0.0000     0.0000     0.0000     0.0000     0.0000     0.0000 </r>
        <r>     5.8399     0.0000     0.0001     0.0000     0.0000     0.0000     0.0000     0.0000     0.0000     0.0000 </r>
        <r>     5.8997     0.0004     0.0088     0.0004     0.0000     0.0000     0.0011     0.0025     0.0005     0.0007 </r>
        <r>     5.9594     0.0038     0.0792     0.0037     0.0001     0.0003     0.0100     0.0220     0.0044     0.0063 </r>
        <r>     6.0192     0.0034     0.0709     0.0033     0.0001     0.0003     0.0090     0.0197     0.0039     0.0056 </r>
        <r>     6.0789     0.0003     0.0063     0.0003     0.0000     0.0000     0.0008     0.0017     0.0003     0.0005 </r>
        <r>     6.1387     0.0000     0.0000     0.0000     0.0000     0.0000     0.0000     0.0000     0.0000     0.0000 </r>
        <r>     6.1984     0.0000     0.0000     0.0000     0.0000     0.0000     0.0000     0.0000     0.0000     0.0000 </r>
        <r>     6.2582     0.0000     0.0000     0.0000     0.0000     0.0000     0.0000     0.0000     0.0000     0.0000 </r>
        <r>     6.3179     0.0000     0.0000     0.0000     0.0000     0.0000     0.0000     0.0000     0.0000     0.0000 </r>
        <r>     6.3777     0.0000     0.0000     0.0000     0.0000     0.0000     0.0000     0.0000     0.0000     0.0000 </r>
        <r>     6.4374     0.0000     0.0000     0.0000     0.0000     0.0000     0.0000     0.0000     0.0000     0.0000 </r>
        <r>     6.4972     0.0000     0.0000     0.0000     0.0000     0.0000     0.0000     0.0000     0.0000     0.0000 </r>
        <r>     6.5569     0.0000     0.0000     0.0000     0.0000     0.0000     0.0000     0.0000     0.0000     0.0000 </r>
        <r>     6.6167     0.0000     0.0000     0.0000     0.0000     0.0000     0.0000     0.0000     0.0000     0.0000 </r>
        <r>     6.6764     0.0000     0.0000     0.0000     0.0000     0.0000     0.0000     0.0000     0.0000     0.0000 </r>
        <r>     6.7362     0.0000     0.0000     0.0000     0.0000     0.0000     0.0000     0.0000     0.0000     0.0000 </r>
        <r>     6.7959     0.0000     0.0000     0.0000     0.0000     0.0000     0.0000     0.0000     0.0000     0.0000 </r>
        <r>     6.8557     0.0000     0.0000     0.0000     0.0000     0.0000     0.0000     0.0000     0.0000     0.0000 </r>
        <r>     6.9154     0.0000     0.0000     0.0000     0.0000     0.0000     0.0000     0.0000     0.0000     0.0000 </r>
        <r>     6.9752     0.0000     0.0000     0.0000     0.0000     0.0000     0.0000     0.0000     0.0000     0.0000 </r>
        <r>     7.0349     0.0000     0.0000     0.0000     0.0000     0.0000     0.0000     0.0000     0.0000     0.0000 </r>
        <r>     7.0947     0.0000     0.0000     0.0000     0.0000     0.0000     0.0000     0.0000     0.0000     0.0000 </r>
       </set>
      </set>
     </set>
    </array>
   </partial>
  </dos>
  <projected>
   <eigenvalues>
    <array>
     <dimension dim="1">band</dimension>
     <dimension dim="2">kpoint</dimension>
     <dimension dim="3">spin</dimension>
     <field>eigene</field>
     <field>occ</field>
     <set>
      <set comment="spin 1">
       <set comment="kpoint 1">
        <r>  -10.0158    1.0000 </r>
        <r>  -10.0158    1.0000 </r>
        <r>  -10.0158    1.0000 </r>
        <r>  -10.0158    1.0000 </r>
        <r>  -10.0158    1.0000 </r>
        <r>   -5.8673    1.0000 </r>
        <r>   -0.9548    0.0000 </r>
        <r>   -0.9396    0.0000 </r>
        <r>   -0.8990    0.0000 </r>
        <r>   -0.2491    0.0000 </r>
        <r>    0.9810    0.0000 </r>
        <r>    0.9814    0.0000 </r>
        <r>    1.6009    0.0000 </r>
        <r>    1.6053    0.0000 </r>
        <r>    1.6315    0.0000 </r>
        <r>    1.9263    0.0000 </r>
        <r>    1.9698    0.0000 </r>
        <r>    2.0764    0.0000 </r>
        <r>    2.1022    0.0000 </r>
        <r>    2.5005    0.0000 </r>
        <r>    2.5306    0.0000 </r>
        <r>    2.5686    0.0000 </r>
        <r>    2.7003    0.0000 </r>
        <r>    3.2580    0.0000 </r>
        <r>    3.2714    0.0000 </r>
        <r>    3.5565    0.0000 </r>
        <r>    3.6275    0.0000 </r>
        <r>    3.6309    0.0000 </r>
        <r>    3.7543    0.0000 </r>
        <r>    3.7573    0.0000 </r>
        <r>    4.2579    0.0000 </r>
        <r>    4.5062    0.0000 </r>
        <r>    4.6146    0.0000 </r>
        <r>    5.3458    0.0000 </r>
        <r>    5.7605    0.0000 </r>
        <r>    6.2799    0.0000 </r>
       </set>
      </set>
      <set comment="spin 2">
       <set comment="kpoint 1">
        <r>  -10.0151    1.0000 </r>
        <r>  -10.0151    1.0000 </r>
        <r>  -10.0151    1.0000 </r>
        <r>  -10.0151    1.0000 </r>
        <r>  -10.0151    1.0000 </r>
        <r>   -5.8674    1.0000 </r>
        <r>   -0.9560    0.0000 </r>
        <r>   -0.9418    0.0000 </r>
        <r>   -0.9235    0.0000 </r>
        <r>   -0.2515    0.0000 </r>
        <r>    0.9785    0.0000 </r>
        <r>    0.9807    0.0000 </r>
        <r>    1.5858    0.0000 </r>
        <r>    1.6048    0.0000 </r>
        <r>    1.6110    0.0000 </r>
        <r>    1.7759    0.0000 </r>
        <r>    1.9548    0.0000 </r>
        <r>    2.0856    0.0000 </r>
        <r>    2.1090    0.0000 </r>
        <r>    2.5518    0.0000 </r>
        <r>    2.5661    0.0000 </r>
        <r>    2.5881    0.0000 </r>
        <r>    2.5986    0.0000 </r>
        <r>    3.2351    0.0000 </r>
        <r>    3.3250    0.0000 </r>
        <r>    3.6651    0.0000 </r>
        <r>    3.7139    0.0000 </r>
        <r>    3.8365    0.0000 </r>
        <r>    3.9792    0.0000 </r>
        <r>    4.0184    0.0000 </r>
        <r>    4.1843    0.0000 </r>
        <r>    4.3158    0.0000 </r>
        <r>    4.3432    0.0000 </r>
        <r>    4.4407    0.0000 </r>
        <r>    5.0716    0.0000 </r>
        <r>    5.9565    0.0000 </r>
       </set>
      </set>
     </set>
    </array>
   </eigenvalues>
   <array>
    <dimension dim="1">ion</dimension>
    <dimension dim="2">band</dimension>
    <dimension dim="3">kpoint</dimension>
    <dimension dim="4">spin</dimension>
    <field>    s</field>
    <field>   py</field>
    <field>   pz</field>
    <field>   px</field>
    <field>  dxy</field>
    <field>  dyz</field>
    <field>  dz2</field>
    <field>  dxz</field>
    <field>x2-y2</field>
    <set>
     <set comment="spin1">
      <set comment="kpoint 1">
       <set comment="band 1">
        <r>  0.0000  0.0000  0.0000  0.0000  0.0000  0.0000  0.9699  0.0000  0.0040 </r>
       </set>
       <set comment="band 2">
        <r>  0.0000  0.0000  0.0000  0.0000  0.0000  0.0000  0.0040  0.0000  0.9699 </r>
       </set>
       <set comment="band 3">
        <r>  0.0000  0.0000  0.0000  0.0000  0.0616  0.1186  0.0000  0.7937  0.0000 </r>
       </set>
       <set comment="band 4">
        <r>  0.0000  0.0000  0.0000  0.0000  0.6412  0.1821  0.0000  0.1506  0.0000 </r>
       </set>
       <set comment="band 5">
        <r>  0.0000  0.0000  0.0000  0.0000  0.2711  0.6732  0.0000  0.0296  0.0000 </r>
       </set>
       <set comment="band 6">
        <r>  0.4392  0.0000  0.0000  0.0000  0.0000  0.0000  0.0000  0.0000  0.0000 </r>
       </set>
       <set comment="band 7">
        <r>  0.0000  0.1094  0.0256  0.0069  0.0000  0.0000  0.0000  0.0000  0.0000 </r>
       </set>
       <set comment="band 8">
        <r>  0.0000  0.0176  0.1078  0.0099  0.0000  0.0000  0.0000  0.0000  0.0000 </r>
       </set>
       <set comment="band 9">
        <r>  0.0000  0.0103  0.0026  0.1120  0.0000  0.0000  0.0000  0.0000  0.0000 </r>
       </set>
       <set comment="band 10">
        <r>  0.0244  0.0000  0.0000  0.0000  0.0000  0.0000  0.0000  0.0000  0.0000 </r>
       </set>
       <set comment="band 11">
        <r>  0.0000  0.0000  0.0000  0.0000  0.0000  0.0000  0.0016  0.0000  0.0003 </r>
       </set>
       <set comment="band 12">
        <r>  0.0000  0.0000  0.0000  0.0000  0.0000  0.0000  0.0003  0.0000  0.0016 </r>
       </set>
       <set comment="band 13">
        <r>  0.0003  0.0081  0.0325  0.0000  0.0000  0.0000  0.0000  0.0000  0.0000 </r>
       </set>
       <set comment="band 14">
        <r>  0.0297  0.0000  0.0002  0.0001  0.0000  0.0000  0.0000  0.0000  0.0000 </r>
       </set>
       <set comment="band 15">
        <r>  0.0000  0.0170  0.0080  0.0127  0.0001  0.0003  0.0000  0.0000  0.0000 </r>
       </set>
       <set comment="band 16">
        <r>  0.0000  0.0060  0.0008  0.0194  0.0011  0.0003  0.0002  0.0000  0.0000 </r>
       </set>
       <set comment="band 17">
        <r>  0.0000  0.0043  0.0022  0.0055  0.0047  0.0000  0.0000  0.0002  0.0000 </r>
       </set>
       <set comment="band 18">
        <r>  0.0000  0.0029  0.0007  0.0001  0.0000  0.0051  0.0000  0.0004  0.0000 </r>
       </set>
       <set comment="band 19">
        <r>  0.0000  0.0000  0.0003  0.0001  0.0003  0.0004  0.0000  0.0059  0.0000 </r>
       </set>
       <set comment="band 20">
        <r>  0.0005  0.0009  0.0000  0.0112  0.0001  0.0000  0.0001  0.0000  0.0000 </r>
       </set>
       <set comment="band 21">
        <r>  0.0001  0.0008  0.0001  0.0011  0.0000  0.0000  0.0017  0.0000  0.0000 </r>
       </set>
       <set comment="band 22">
        <r>  0.0000  0.0000  0.0002  0.0000  0.0000  0.0000  0.0000  0.0000  0.0021 </r>
       </set>
       <set comment="band 23">
        <r>  0.0002  0.0015  0.0003  0.0001  0.0000  0.0001  0.0001  0.0000  0.0000 </r>
       </set>
       <set comment="band 24">
        <r>  0.0097  0.0027  0.0016  0.0025  0.0008  0.0003  0.0000  0.0001  0.0000 </r>
       </set>
       <set comment="band 25">
        <r>  0.0208  0.0000  0.0015  0.0000  0.0000  0.0000  0.0000  0.0000  0.0000 </r>
       </set>
       <set comment="band 26">
        <r>  0.0026  0.0072  0.0226  0.0080  0.0000  0.0000  0.0000  0.0000  0.0013 </r>
       </set>
       <set comment="band 27">
        <r>  0.0024  0.0018  0.0004  0.0003  0.0035  0.0000  0.0000  0.0005  0.0001 </r>
       </set>
       <set comment="band 28">
        <r>  0.0000  0.0003  0.0116  0.0308  0.0000  0.0001  0.0018  0.0000  0.0010 </r>
       </set>
       <set comment="band 29">
        <r>  0.0003  0.0014  0.0008  0.0024  0.0003  0.0000  0.0000  0.0038  0.0000 </r>
       </set>
       <set comment="band 30">
        <r>  0.0010  0.0003  0.0013  0.0010  0.0000  0.0043  0.0000  0.0001  0.0001 </r>
       </set>
       <set comment="band 31">
        <r>  0.0001  0.0087  0.0000  0.0013  0.0002  0.0000  0.0000  0.0000  0.0093 </r>
       </set>
       <set comment="band 32">
        <r>  0.0136  0.0005  0.0001  0.0010  0.0000  0.0000  0.0024  0.0000  0.0026 </r>
       </set>
       <set comment="band 33">
        <r>  0.0050  0.0006  0.0002  0.0049  0.0001  0.0011  0.0091  0.0007  0.0016 </r>
       </set>
       <set comment="band 34">
        <r>  0.0023  0.0007  0.0024  0.0002  0.0081  0.0000  0.0005  0.0015  0.0002 </r>
       </set>
       <set comment="band 35">
        <r>  0.0072  0.0018  0.0075  0.0009  0.0003  0.0000  0.0033  0.0000  0.0003 </r>
       </set>
       <set comment="band 36">
        <r>  0.0018  0.0007  0.0026  0.0009  0.0005  0.0017  0.0009  0.0014  0.0009 </r>
       </set>
      </set>
     </set>
     <set comment="spin2">
      <set comment="kpoint 1">
       <set comment="band 1">
        <r>  0.0000  0.0000  0.0000  0.0000  0.0114  0.1842  0.0000  0.7783  0.0000 </r>
       </set>
       <set comment="band 2">
        <r>  0.0000  0.0000  0.0000  0.0000  0.7748  0.1882  0.0000  0.0109  0.0000 </r>
       </set>
       <set comment="band 3">
        <r>  0.0000  0.0000  0.0000  0.0000  0.1877  0.6015  0.0000  0.1847  0.0000 </r>
       </set>
       <set comment="band 4">
        <r>  0.0000  0.0000  0.0000  0.0000  0.0000  0.0000  0.7100  0.0000  0.2639 </r>
       </set>
       <set comment="band 5">
        <r>  0.0000  0.0000  0.0000  0.0000  0.0000  0.0000  0.2639  0.0000  0.7100 </r>
       </set>
       <set comment="band 6">
        <r>  0.4389  0.0000  0.0000  0.0000  0.0000  0.0000  0.0000  0.0000  0.0000 </r>
       </set>
       <set comment="band 7">
        <r>  0.0000  0.0038  0.1390  0.0000  0.0000  0.0000  0.0000  0.0000  0.0000 </r>
       </set>
       <set comment="band 8">
        <r>  0.0000  0.0005  0.0000  0.1362  0.0000  0.0000  0.0000  0.0000  0.0000 </r>
       </set>
       <set comment="band 9">
        <r>  0.0000  0.1275  0.0033  0.0007  0.0000  0.0000  0.0000  0.0000  0.0000 </r>
       </set>
       <set comment="band 10">
        <r>  0.0243  0.0001  0.0000  0.0000  0.0000  0.0000  0.0000  0.0000  0.0000 </r>
       </set>
       <set comment="band 11">
        <r>  0.0000  0.0000  0.0000  0.0000  0.0000  0.0000  0.0009  0.0000  0.0011 </r>
       </set>
       <set comment="band 12">
        <r>  0.0000  0.0000  0.0000  0.0000  0.0000  0.0000  0.0011  0.0000  0.0008 </r>
       </set>
       <set comment="band 13">
        <r>  0.0001  0.0007  0.0281  0.0089  0.0000  0.0000  0.0000  0.0000  0.0000 </r>
       </set>
       <set comment="band 14">
        <r>  0.0297  0.0000  0.0000  0.0002  0.0000  0.0000  0.0000  0.0000  0.0000 </r>
       </set>
       <set comment="band 15">
        <r>  0.0001  0.0133  0.0036  0.0226  0.0000  0.0001  0.0000  0.0001  0.0000 </r>
       </set>
       <set comment="band 16">
        <r>  0.0000  0.0233  0.0046  0.0050  0.0001  0.0010  0.0000  0.0007  0.0000 </r>
       </set>
       <set comment="band 17">
        <r>  0.0000  0.0104  0.0010  0.0023  0.0004  0.0025  0.0000  0.0017  0.0000 </r>
       </set>
       <set comment="band 18">
        <r>  0.0000  0.0003  0.0001  0.0012  0.0006  0.0028  0.0000  0.0029  0.0000 </r>
       </set>
       <set comment="band 19">
        <r>  0.0000  0.0002  0.0000  0.0002  0.0053  0.0000  0.0000  0.0010  0.0000 </r>
       </set>
       <set comment="band 20">
        <r>  0.0000  0.0010  0.0000  0.0001  0.0000  0.0000  0.0000  0.0000  0.0021 </r>
       </set>
       <set comment="band 21">
        <r>  0.0000  0.0001  0.0000  0.0002  0.0000  0.0000  0.0021  0.0000  0.0000 </r>
       </set>
       <set comment="band 22">
        <r>  0.0001  0.0002  0.0002  0.0004  0.0000  0.0000  0.0000  0.0001  0.0000 </r>
       </set>
       <set comment="band 23">
        <r>  0.0003  0.0004  0.0001  0.0005  0.0001  0.0000  0.0000  0.0001  0.0000 </r>
       </set>
       <set comment="band 24">
        <r>  0.0166  0.0012  0.0011  0.0000  0.0006  0.0002  0.0000  0.0003  0.0000 </r>
       </set>
       <set comment="band 25">
        <r>  0.0187  0.0000  0.0001  0.0002  0.0003  0.0002  0.0000  0.0001  0.0000 </r>
       </set>
       <set comment="band 26">
        <r>  0.0006  0.0001  0.0009  0.0020  0.0001  0.0030  0.0003  0.0001  0.0000 </r>
       </set>
       <set comment="band 27">
        <r>  0.0021  0.0018  0.0004  0.0000  0.0018  0.0009  0.0000  0.0011  0.0001 </r>
       </set>
       <set comment="band 28">
        <r>  0.0001  0.0000  0.0005  0.0004  0.0018  0.0000  0.0000  0.0028  0.0000 </r>
       </set>
       <set comment="band 29">
        <r>  0.0002  0.0001  0.0184  0.0013  0.0001  0.0000  0.0001  0.0001  0.0010 </r>
       </set>
       <set comment="band 30">
        <r>  0.0007  0.0073  0.0002  0.0097  0.0000  0.0002  0.0036  0.0000  0.0025 </r>
       </set>
       <set comment="band 31">
        <r>  0.0010  0.0037  0.0034  0.0046  0.0001  0.0007  0.0027  0.0000  0.0037 </r>
       </set>
       <set comment="band 32">
        <r>  0.0010  0.0032  0.0000  0.0047  0.0000  0.0000  0.0050  0.0000  0.0030 </r>
       </set>
       <set comment="band 33">
        <r>  0.0019  0.0038  0.0008  0.0061  0.0000  0.0001  0.0058  0.0000  0.0071 </r>
       </set>
       <set comment="band 34">
        <r>  0.0155  0.0006  0.0020  0.0000  0.0000  0.0000  0.0020  0.0000  0.0016 </r>
       </set>
       <set comment="band 35">
        <r>  0.0006  0.0016  0.0014  0.0033  0.0000  0.0017  0.0005  0.0006  0.0000 </r>
       </set>
       <set comment="band 36">
        <r>  0.0005  0.0099  0.0005  0.0000  0.0000  0.0013  0.0027  0.0005  0.0008 </r>
       </set>
      </set>
     </set>
    </set>
   </array>
  </projected>
 </calculation>
 <structure name="finalpos" >
  <crystal>
   <varray name="basis" >
    <v>      10.00000000       0.00000000       0.00000000 </v>
    <v>       0.00000000      10.00000000       0.00000000 </v>
    <v>       0.00000000       0.00000000      10.00000000 </v>
   </varray>
   <i name="volume">   1000.00000000 </i>
   <varray name="rec_basis" >
    <v>       0.10000000       0.00000000       0.00000000 </v>
    <v>       0.00000000       0.10000000       0.00000000 </v>
    <v>       0.00000000       0.00000000       0.10000000 </v>
   </varray>
  </crystal>
  <varray name="positions" >
   <v>       0.50000000       0.50000000       0.50000000 </v>
  </varray>
 </structure>
</modeling>
