       N       E                     dE             d eps       ncg     rms          ort
DAV:   1     0.186361637809E+02    0.18636E+02   -0.12153E+03    36   0.855E+01
DAV:   2     0.100838678003E+02   -0.85523E+01   -0.85523E+01    36   0.154E+01
DAV:   3     0.899566437278E+01   -0.10882E+01   -0.10106E+01    36   0.310E+00
DAV:   4     0.335655117863E+01   -0.56391E+01   -0.54980E+01    36   0.471E+00
DAV:   5     0.707216230642E+00   -0.26493E+01   -0.26493E+01    36   0.470E+00
SDA:   6     0.409522728834E+00   -0.29769E+00   -0.21755E+01    36   0.544E+01 0.000E+00
DMP:   7    -0.924466480607E+00   -0.13340E+01   -0.42431E+00    36   0.602E+00 0.120E+01
DMP:   8    -0.109679069810E+01   -0.17232E+00   -0.11796E+00    36   0.427E+00-0.345E+00
DMP:   9    -0.117643655940E+01   -0.79646E-01   -0.92982E-01    36   0.210E+00 0.582E-01
DMP:  10    -0.122669715664E+01   -0.50261E-01   -0.15929E-01    36   0.337E-01 0.161E-01
DMP:  11    -0.123170245676E+01   -0.50053E-02   -0.92143E-02    36   0.293E-01-0.163E-01
DMP:  12    -0.123844761784E+01   -0.67452E-02   -0.66869E-02    36   0.129E-01 0.101E-01
DMP:  13    -0.124250889524E+01   -0.40613E-02   -0.12545E-02    36   0.179E-02 0.353E-02
DMP:  14    -0.124299856110E+01   -0.48967E-03   -0.36939E-03    36   0.119E-02-0.697E-03
DMP:  15    -0.124324575741E+01   -0.24720E-03   -0.33556E-03    36   0.722E-03 0.306E-03
DMP:  16    -0.124347197979E+01   -0.22622E-03   -0.11517E-03    36   0.176E-03 0.292E-03
DMP:  17    -0.124354117245E+01   -0.69193E-04   -0.48285E-04    36   0.854E-04 0.924E-04
DMP:  18    -0.124391268448E+01   -0.37151E-03   -0.10887E-02    36   0.136E-02 0.357E-02
DMP:  19    -0.124808307361E+01   -0.41704E-02   -0.66616E-02    36   0.777E-02 0.233E-01
DMP:  20    -0.125890774912E+01   -0.10825E-01   -0.10246E-01    36   0.114E-01 0.372E-01
DMP:  21    -0.127007809901E+01   -0.11170E-01   -0.75359E-02    36   0.806E-02 0.282E-01
DMP:  22    -0.127693547554E+01   -0.68574E-02   -0.38143E-02    36   0.393E-02 0.147E-01
DMP:  23    -0.128013362297E+01   -0.31981E-02   -0.15972E-02    36   0.159E-02 0.629E-02
DMP:  24    -0.128142307019E+01   -0.12894E-02   -0.60321E-03    36   0.579E-03 0.243E-02
DMP:  25    -0.128190075834E+01   -0.47769E-03   -0.21308E-03    36   0.197E-03 0.879E-03
DMP:  26    -0.128206735889E+01   -0.16660E-03   -0.71168E-04    36   0.631E-04 0.301E-03
DMP:  27    -0.128212234078E+01   -0.54982E-04   -0.22417E-04    36   0.189E-04 0.972E-04
DMP:  28    -0.128213941359E+01   -0.17073E-04   -0.65823E-05    36   0.523E-05 0.294E-04
   1 F= -.12821394E+01 E0= -.12628574E+01  d E =-.128214E+01  mag=     2.0000
