<?xml version="1.0" encoding="ISO-8859-1"?>
<modeling>
 <generator>
  <i name="program" type="string">vasp </i>
  <i name="version" type="string">5.4.4.18Apr17-6-g9f103f2a35  </i>
  <i name="subversion" type="string">(build Nov 08 2019 15:19:53) gamma-only         parallel </i>
  <i name="platform" type="string">LinuxIFC </i>
  <i name="date" type="string">2020 11 30 </i>
  <i name="time" type="string">09:30:48 </i>
 </generator>
 <incar>
  <i type="string" name="PREC">accurate</i>
  <i type="string" name="ALGO"> D</i>
  <i type="int" name="ISPIN">     2</i>
  <i type="int" name="NELM">   300</i>
  <i type="int" name="IBRION">     2</i>
  <i name="EDIFF">      0.00005000</i>
  <i type="int" name="NSW">    99</i>
  <i type="int" name="ISIF">     2</i>
  <i name="ENCUT">    520.00000000</i>
  <v name="MAGMOM">      0.60000000</v>
  <i type="string" name="LREAL"> Auto</i>
  <i type="int" name="ISMEAR">     0</i>
  <i name="SIGMA">      0.05000000</i>
  <i type="logical" name="LWAVE"> F  </i>
  <i type="int" name="LORBIT">    11</i>
  <i type="logical" name="LASPH"> T  </i>
  <v type="int" name="KPOINT_BSE">    -1     0     0     0</v>
  <i type="int" name="NELM">   300</i>
  <i type="logical" name="LASPH"> T  </i>
 </incar>
 <structure name="primitive_cell" >
  <crystal>
   <varray name="basis" >
    <v>      10.00000000       0.00000000       0.00000000 </v>
    <v>       0.00000000      10.00000000       0.00000000 </v>
    <v>       0.00000000       0.00000000      10.00000000 </v>
   </varray>
   <i name="volume">   1000.00000000 </i>
   <varray name="rec_basis" >
    <v>       0.10000000       0.00000000       0.00000000 </v>
    <v>       0.00000000       0.10000000       0.00000000 </v>
    <v>       0.00000000       0.00000000       0.10000000 </v>
   </varray>
  </crystal>
  <varray name="positions" >
   <v>      -0.50000000      -0.50000000      -0.50000000 </v>
  </varray>
 </structure>
 <varray name="primitive_index" >
  <v type="int" >        1 </v>
 </varray>
 <kpoints>
  <generation param="Gamma">
   <v type="int" name="divisions">       1        1        1 </v>
   <v name="usershift">      0.00000000       0.00000000       0.00000000 </v>
   <v name="genvec1">      1.00000000       0.00000000       0.00000000 </v>
   <v name="genvec2">      0.00000000       1.00000000       0.00000000 </v>
   <v name="genvec3">      0.00000000       0.00000000       1.00000000 </v>
   <v name="shift">      0.00000000       0.00000000       0.00000000 </v>
  </generation>
  <varray name="kpointlist" >
   <v>       0.00000000       0.00000000       0.00000000 </v>
  </varray>
  <varray name="weights" >
   <v>       1.00000000 </v>
  </varray>
 </kpoints>
 <parameters>
  <separator name="general" >
   <i type="string" name="SYSTEM">unknown system</i>
   <i type="logical" name="LCOMPAT"> F  </i>
  </separator>
  <separator name="electronic" >
   <i type="string" name="PREC">accura</i>
   <i name="ENMAX">    520.00000000</i>
   <i name="ENAUG">    644.87300000</i>
   <i name="EDIFF">      0.00005000</i>
   <i type="int" name="IALGO">    53</i>
   <i type="int" name="IWAVPR">    11</i>
   <i type="int" name="NBANDS">    36</i>
   <i name="NELECT">      4.00000000</i>
   <i type="int" name="TURBO">     0</i>
   <i type="int" name="IRESTART">     0</i>
   <i type="int" name="NREBOOT">     0</i>
   <i type="int" name="NMIN">     0</i>
   <i name="EREF">      0.00000000</i>
   <separator name="electronic smearing" >
    <i type="int" name="ISMEAR">     0</i>
    <i name="SIGMA">      0.05000000</i>
    <i name="KSPACING">      0.50000000</i>
    <i type="logical" name="KGAMMA"> T  </i>
   </separator>
   <separator name="electronic projectors" >
    <i type="logical" name="LREAL"> T  </i>
    <v name="ROPT">     -0.00025000</v>
    <i type="int" name="LMAXPAW">  -100</i>
    <i type="int" name="LMAXMIX">     2</i>
    <i type="logical" name="NLSPLINE"> F  </i>
   </separator>
   <separator name="electronic startup" >
    <i type="int" name="ISTART">     0</i>
    <i type="int" name="ICHARG">     2</i>
    <i type="int" name="INIWAV">     1</i>
   </separator>
   <separator name="electronic spin" >
    <i type="int" name="ISPIN">     2</i>
    <i type="logical" name="LNONCOLLINEAR"> F  </i>
    <v name="MAGMOM">      0.60000000</v>
    <i name="NUPDOWN">     -1.00000000</i>
    <i type="logical" name="LSORBIT"> F  </i>
    <v name="SAXIS">      0.00000000      0.00000000      1.00000000</v>
    <i type="logical" name="LSPIRAL"> F  </i>
    <v name="QSPIRAL">      0.00000000      0.00000000      0.00000000</v>
    <i type="logical" name="LZEROZ"> F  </i>
   </separator>
   <separator name="electronic exchange-correlation" >
    <i type="logical" name="LASPH"> T  </i>
    <i type="logical" name="LMETAGGA"> F  </i>
   </separator>
   <separator name="electronic convergence" >
    <i type="int" name="NELM">   300</i>
    <i type="int" name="NELMDL">    -5</i>
    <i type="int" name="NELMIN">     2</i>
    <i name="ENINI">    520.00000000</i>
    <separator name="electronic convergence detail" >
     <i type="logical" name="LDIAG"> T  </i>
     <i type="logical" name="LSUBROT"> F  </i>
     <i name="WEIMIN">      0.00100000</i>
     <i name="EBREAK">      0.00000035</i>
     <i name="DEPER">      0.30000000</i>
     <i type="int" name="NRMM">     4</i>
     <i name="TIME">      0.40000000</i>
    </separator>
   </separator>
   <separator name="electronic mixer" >
    <i name="AMIX">      0.40000000</i>
    <i name="BMIX">      1.00000000</i>
    <i name="AMIN">      0.10000000</i>
    <i name="AMIX_MAG">      1.60000000</i>
    <i name="BMIX_MAG">      1.00000000</i>
    <separator name="electronic mixer details" >
     <i type="int" name="IMIX">     4</i>
     <i type="logical" name="MIXFIRST"> F  </i>
     <i type="int" name="MAXMIX">   -45</i>
     <i name="WC">    100.00000000</i>
     <i type="int" name="INIMIX">     1</i>
     <i type="int" name="MIXPRE">     1</i>
     <i type="int" name="MREMOVE">     5</i>
    </separator>
   </separator>
   <separator name="electronic dipolcorrection" >
    <i type="logical" name="LDIPOL"> F  </i>
    <i type="logical" name="LMONO"> F  </i>
    <i type="int" name="IDIPOL">     0</i>
    <i name="EPSILON">      1.00000000</i>
    <v name="DIPOL">   -100.00000000   -100.00000000   -100.00000000</v>
    <i name="EFIELD">      0.00000000</i>
   </separator>
  </separator>
  <separator name="grids" >
   <i type="int" name="NGX">    80</i>
   <i type="int" name="NGY">    80</i>
   <i type="int" name="NGZ">    80</i>
   <i type="int" name="NGXF">   160</i>
   <i type="int" name="NGYF">   160</i>
   <i type="int" name="NGZF">   160</i>
   <i type="logical" name="ADDGRID"> F  </i>
  </separator>
  <separator name="ionic" >
   <i type="int" name="NSW">    99</i>
   <i type="int" name="IBRION">     2</i>
   <i type="int" name="MDALGO">     0</i>
   <i type="int" name="ISIF">     2</i>
   <i name="PSTRESS">      0.00000000</i>
   <i name="EDIFFG">      0.00050000</i>
   <i type="int" name="NFREE">     1</i>
   <i name="POTIM">      0.50000000</i>
   <i name="SMASS">     -3.00000000</i>
   <i name="SCALEE">      1.00000000</i>
  </separator>
  <separator name="ionic md" >
   <i name="TEBEG">      0.00010000</i>
   <i name="TEEND">      0.00010000</i>
   <i type="int" name="NBLOCK">     1</i>
   <i type="int" name="KBLOCK">    99</i>
   <i type="int" name="NPACO">   256</i>
   <i name="APACO">     16.00000000</i>
  </separator>
  <separator name="symmetry" >
   <i type="int" name="ISYM">     2</i>
   <i name="SYMPREC">      0.00001000</i>
  </separator>
  <separator name="dos" >
   <i type="int" name="LORBIT">    11</i>
   <v name="RWIGS">     -1.00000000</v>
   <i type="int" name="NEDOS">   301</i>
   <i name="EMIN">     10.00000000</i>
   <i name="EMAX">    -10.00000000</i>
   <i name="EFERMI">      0.00000000</i>
  </separator>
  <separator name="writing" >
   <i type="int" name="NWRITE">     2</i>
   <i type="logical" name="LWAVE"> F  </i>
   <i type="logical" name="LDOWNSAMPLE"> F  </i>
   <i type="logical" name="LCHARG"> T  </i>
   <i type="logical" name="LPARD"> F  </i>
   <i type="logical" name="LVTOT"> F  </i>
   <i type="logical" name="LVHAR"> F  </i>
   <i type="logical" name="LELF"> F  </i>
   <i type="logical" name="LOPTICS"> F  </i>
   <v name="STM">      0.00000000      0.00000000      0.00000000      0.00000000      0.00000000      0.00000000      0.00000000</v>
  </separator>
  <separator name="performance" >
   <i type="int" name="NPAR">    36</i>
   <i type="int" name="NSIM">     4</i>
   <i type="int" name="NBLK">    -1</i>
   <i type="logical" name="LPLANE"> T  </i>
   <i type="logical" name="LSCALAPACK"> T  </i>
   <i type="logical" name="LSCAAWARE"> F  </i>
   <i type="logical" name="LSCALU"> F  </i>
   <i type="logical" name="LASYNC"> F  </i>
   <i type="logical" name="LORBITALREAL"> F  </i>
  </separator>
  <separator name="miscellaneous" >
   <i type="int" name="IDIOT">     3</i>
   <i type="int" name="ISPECIAL">     0</i>
   <i type="logical" name="LMUSIC"> F  </i>
   <v name="POMASS">     12.01100000</v>
   <v name="DARWINR">      0.00000000</v>
   <v name="DARWINV">      1.00000000</v>
   <i type="logical" name="LCORR"> T  </i>
  </separator>
  <i type="logical" name="GGA_COMPAT"> T  </i>
  <i type="logical" name="LBERRY"> F  </i>
  <i type="int" name="ICORELEVEL">     0</i>
  <i type="logical" name="LDAU"> F  </i>
  <i type="int" name="I_CONSTRAINED_M">     0</i>
  <separator name="electronic exchange-correlation" >
   <i type="string" name="GGA">--</i>
   <i type="int" name="VOSKOWN">     0</i>
   <i type="logical" name="LHFCALC"> F  </i>
   <i type="string" name="PRECFOCK"></i>
   <i type="logical" name="LSYMGRAD"> F  </i>
   <i type="logical" name="LHFONE"> F  </i>
   <i type="logical" name="LRHFCALC"> F  </i>
   <i type="logical" name="LTHOMAS"> F  </i>
   <i type="logical" name="LMODELHF"> F  </i>
   <i name="ENCUT4O">     -1.00000000</i>
   <i type="int" name="EXXOEP">     0</i>
   <i type="int" name="FOURORBIT">     0</i>
   <i name="AEXX">      0.00000000</i>
   <i name="HFALPHA">      0.00000000</i>
   <i name="MCALPHA">      0.00000000</i>
   <i name="ALDAX">      1.00000000</i>
   <i name="AGGAX">      1.00000000</i>
   <i name="ALDAC">      1.00000000</i>
   <i name="AGGAC">      1.00000000</i>
   <i type="int" name="NKREDX">     1</i>
   <i type="int" name="NKREDY">     1</i>
   <i type="int" name="NKREDZ">     1</i>
   <i type="logical" name="SHIFTRED"> F  </i>
   <i type="logical" name="ODDONLY"> F  </i>
   <i type="logical" name="EVENONLY"> F  </i>
   <i type="int" name="LMAXFOCK">     0</i>
   <i type="int" name="NMAXFOCKAE">     0</i>
   <i type="logical" name="LFOCKAEDFT"> F  </i>
   <i name="HFSCREEN">      0.00000000</i>
   <i name="HFSCREENC">      0.00000000</i>
   <i type="int" name="NBANDSGWLOW">     0</i>
  </separator>
  <separator name="vdW DFT" >
   <i type="logical" name="LUSE_VDW"> F  </i>
   <i name="Zab_VDW">     -0.84910000</i>
   <i name="PARAM1">      0.12340000</i>
   <i name="PARAM2">      1.00000000</i>
   <i name="PARAM3">      0.00000000</i>
  </separator>
  <separator name="model GW" >
   <i type="int" name="MODEL_GW">     0</i>
   <i name="MODEL_EPS0">    600.00000000</i>
   <i name="MODEL_ALPHA">      1.00000000</i>
  </separator>
  <separator name="linear response parameters" >
   <i type="logical" name="LEPSILON"> F  </i>
   <i type="logical" name="LRPA"> F  </i>
   <i type="logical" name="LNABLA"> F  </i>
   <i type="logical" name="LVEL"> F  </i>
   <i type="int" name="KINTER">     0</i>
   <i name="CSHIFT">      0.10000000</i>
   <i name="OMEGAMAX">     -1.00000000</i>
   <i name="DEG_THRESHOLD">      0.00200000</i>
   <i name="RTIME">     -0.10000000</i>
   <i name="WPLASMAI">      0.00000000</i>
   <v name="DFIELD">      0.00000000      0.00000000      0.00000000</v>
   <v name="WPLASMA">      0.00000000      0.00000000      0.00000000      0.00000000      0.00000000      0.00000000      0.00000000      0.00000000      0.00000000</v>
  </separator>
  <separator name="orbital magnetization" >
   <i type="logical" name="NUCIND"> F  </i>
   <v name="MAGPOS">      0.00000000      0.00000000      0.00000000</v>
   <i type="logical" name="LNICSALL"> T  </i>
   <i type="logical" name="ORBITALMAG"> F  </i>
   <i type="logical" name="LMAGBLOCH"> F  </i>
   <i type="logical" name="LCHIMAG"> F  </i>
   <i type="logical" name="LGAUGE"> T  </i>
   <i type="int" name="MAGATOM">     0</i>
   <v name="MAGDIPOL">      0.00000000      0.00000000      0.00000000</v>
   <v name="AVECCONST">      0.00000000      0.00000000      0.00000000</v>
  </separator>
  <separator name="response functions" >
   <i type="logical" name="LADDER"> F  </i>
   <i type="logical" name="LRPAFORCE"> F  </i>
   <i type="logical" name="LFXC"> F  </i>
   <i type="logical" name="LHARTREE"> T  </i>
   <i type="int" name="IBSE">     0</i>
   <v type="int" name="KPOINT">    -1     0     0     0</v>
   <i type="logical" name="LTCTE"> F  </i>
   <i type="logical" name="LTETE"> F  </i>
   <i type="logical" name="LTRIPLET"> F  </i>
   <i type="logical" name="LFXCEPS"> F  </i>
   <i type="logical" name="LFXHEG"> F  </i>
   <i type="int" name="NATURALO">     2</i>
   <i type="logical" name="L2ORDER"> F  </i>
   <i type="logical" name="LMP2LT"> F  </i>
   <i type="logical" name="LUSEW"> F  </i>
   <i name="ENCUTGW">     -2.00000000</i>
   <i name="ENCUTGWSOFT">     -2.00000000</i>
   <i name="ENCUTLF">     -1.00000000</i>
   <i type="int" name="LMAXMP2">    -1</i>
   <i name="SCISSOR">      0.00000000</i>
   <i type="int" name="NOMEGA">     0</i>
   <i type="int" name="NOMEGAR">     0</i>
   <i type="int" name="NBANDSGW">    -1</i>
   <i type="int" name="NBANDSO">    -1</i>
   <i type="int" name="NBANDSV">    -1</i>
   <i type="int" name="NELM">   300</i>
   <i type="int" name="NELMHF">     1</i>
   <i type="int" name="DIM">     3</i>
   <i type="int" name="ANTIRES">     0</i>
   <i name="OMEGAMAX">    -30.00000000</i>
   <i name="OMEGAMIN">    -30.00000000</i>
   <i name="OMEGATL">   -200.00000000</i>
   <i type="int" name="OMEGAGRID">   140</i>
   <i name="CSHIFT">     -0.10000000</i>
   <i type="logical" name="SELFENERGY"> F  </i>
   <i type="logical" name="LSPECTRAL"> F  </i>
   <i type="logical" name="LSPECTRALGW"> F  </i>
   <i type="logical" name="LSINGLES"> F  </i>
   <i type="logical" name="LFERMIGW"> F  </i>
   <i type="logical" name="ODDONLYGW"> F  </i>
   <i type="logical" name="EVENONLYGW"> F  </i>
   <i type="int" name="NKREDLFX">     1</i>
   <i type="int" name="NKREDLFY">     1</i>
   <i type="int" name="NKREDLFZ">     1</i>
   <i type="int" name="MAXMEM">  2800</i>
   <i type="int" name="TELESCOPE">     0</i>
   <i type="int" name="TAUPAR">     1</i>
   <i type="int" name="OMEGAPAR">    -1</i>
   <i name="LAMBDA">      1.00000000</i>
  </separator>
  <separator name="External order field" >
   <i name="OFIELD_KAPPA">      0.00000000</i>
   <v name="OFIELD_K">      0.00000000      0.00000000      0.00000000</v>
   <i name="OFIELD_Q6_NEAR">      0.00000000</i>
   <i name="OFIELD_Q6_FAR">      0.00000000</i>
   <i name="OFIELD_A">      0.00000000</i>
  </separator>
 </parameters>
 <atominfo>
  <atoms>       1 </atoms>
  <types>       1 </types>
  <array name="atoms" >
   <dimension dim="1">ion</dimension>
   <field type="string">element</field>
   <field type="int">atomtype</field>
   <set>
    <rc><c>C </c><c>   1</c></rc>
   </set>
  </array>
  <array name="atomtypes" >
   <dimension dim="1">type</dimension>
   <field type="int">atomspertype</field>
   <field type="string">element</field>
   <field>mass</field>
   <field>valence</field>
   <field type="string">pseudopotential</field>
   <set>
    <rc><c>   1</c><c>C </c><c>     12.01100000</c><c>      4.00000000</c><c>  PAW_PBE C 08Apr2002                   </c></rc>
   </set>
  </array>
 </atominfo>
 <structure name="initialpos" >
  <crystal>
   <varray name="basis" >
    <v>      10.00000000       0.00000000       0.00000000 </v>
    <v>       0.00000000      10.00000000       0.00000000 </v>
    <v>       0.00000000       0.00000000      10.00000000 </v>
   </varray>
   <i name="volume">   1000.00000000 </i>
   <varray name="rec_basis" >
    <v>       0.10000000       0.00000000       0.00000000 </v>
    <v>       0.00000000       0.10000000       0.00000000 </v>
    <v>       0.00000000       0.00000000       0.10000000 </v>
   </varray>
  </crystal>
  <varray name="positions" >
   <v>       0.50000000       0.50000000       0.50000000 </v>
  </varray>
 </structure>
 <calculation>
  <scstep>
   <time name="total">    0.65    0.66</time>
   <energy>
    <i name="alphaZ">      0.08214672 </i>
    <i name="ewald">    -32.68518401 </i>
    <i name="hartreedc">    -86.94625648 </i>
    <i name="XCdc">     10.66759138 </i>
    <i name="pawpsdc">    108.47602143 </i>
    <i name="pawaedc">   -109.04234549 </i>
    <i name="eentropy">     -0.00000000 </i>
    <i name="bandstr">    -19.06470308 </i>
    <i name="atom">    147.14889331 </i>
    <i name="e_fr_energy">     18.63616378 </i>
    <i name="e_wo_entrp">     18.63616378 </i>
    <i name="e_0_energy">     18.63616378 </i>
   </energy>
  </scstep>
  <scstep>
   <time name="total">    0.37    0.37</time>
   <energy>
    <i name="e_fr_energy">     10.08386780 </i>
    <i name="e_wo_entrp">     10.08386780 </i>
    <i name="e_0_energy">     10.08386780 </i>
   </energy>
  </scstep>
  <scstep>
   <time name="total">    0.36    0.36</time>
   <energy>
    <i name="e_fr_energy">      8.99566437 </i>
    <i name="e_wo_entrp">      9.01249655 </i>
    <i name="e_0_energy">      9.00408046 </i>
   </energy>
  </scstep>
  <scstep>
   <time name="total">    0.37    0.37</time>
   <energy>
    <i name="e_fr_energy">      3.35655118 </i>
    <i name="e_wo_entrp">      3.35655118 </i>
    <i name="e_0_energy">      3.35655118 </i>
   </energy>
  </scstep>
  <scstep>
   <time name="total">    0.58    0.58</time>
   <energy>
    <i name="e_fr_energy">      0.70721623 </i>
    <i name="e_wo_entrp">      0.70721623 </i>
    <i name="e_0_energy">      0.70721623 </i>
   </energy>
  </scstep>
  <scstep>
   <time name="total">    0.72    0.73</time>
   <energy>
    <i name="e_fr_energy">      0.40952273 </i>
    <i name="e_wo_entrp">      0.40952273 </i>
    <i name="e_0_energy">      0.40952273 </i>
   </energy>
  </scstep>
  <scstep>
   <time name="total">    0.66    0.66</time>
   <energy>
    <i name="e_fr_energy">     -0.92446648 </i>
    <i name="e_wo_entrp">     -0.92446648 </i>
    <i name="e_0_energy">     -0.92446648 </i>
   </energy>
  </scstep>
  <scstep>
   <time name="total">    0.66    0.66</time>
   <energy>
    <i name="e_fr_energy">     -1.09679070 </i>
    <i name="e_wo_entrp">     -1.09679070 </i>
    <i name="e_0_energy">     -1.09679070 </i>
   </energy>
  </scstep>
  <scstep>
   <time name="total">    0.66    0.67</time>
   <energy>
    <i name="e_fr_energy">     -1.17643656 </i>
    <i name="e_wo_entrp">     -1.17643656 </i>
    <i name="e_0_energy">     -1.17643656 </i>
   </energy>
  </scstep>
  <scstep>
   <time name="total">    0.68    0.68</time>
   <energy>
    <i name="e_fr_energy">     -1.22669716 </i>
    <i name="e_wo_entrp">     -1.22669716 </i>
    <i name="e_0_energy">     -1.22669716 </i>
   </energy>
  </scstep>
  <scstep>
   <time name="total">    0.66    0.66</time>
   <energy>
    <i name="e_fr_energy">     -1.23170246 </i>
    <i name="e_wo_entrp">     -1.23170246 </i>
    <i name="e_0_energy">     -1.23170246 </i>
   </energy>
  </scstep>
  <scstep>
   <time name="total">    0.65    0.65</time>
   <energy>
    <i name="e_fr_energy">     -1.23844762 </i>
    <i name="e_wo_entrp">     -1.23844762 </i>
    <i name="e_0_energy">     -1.23844762 </i>
   </energy>
  </scstep>
  <scstep>
   <time name="total">    0.67    0.67</time>
   <energy>
    <i name="e_fr_energy">     -1.24250890 </i>
    <i name="e_wo_entrp">     -1.24250890 </i>
    <i name="e_0_energy">     -1.24250890 </i>
   </energy>
  </scstep>
  <scstep>
   <time name="total">    0.66    0.66</time>
   <energy>
    <i name="e_fr_energy">     -1.24299856 </i>
    <i name="e_wo_entrp">     -1.24299856 </i>
    <i name="e_0_energy">     -1.24299856 </i>
   </energy>
  </scstep>
  <scstep>
   <time name="total">    0.66    0.66</time>
   <energy>
    <i name="e_fr_energy">     -1.24324576 </i>
    <i name="e_wo_entrp">     -1.24324576 </i>
    <i name="e_0_energy">     -1.24324576 </i>
   </energy>
  </scstep>
  <scstep>
   <time name="total">    0.67    0.67</time>
   <energy>
    <i name="e_fr_energy">     -1.24347198 </i>
    <i name="e_wo_entrp">     -1.24346923 </i>
    <i name="e_0_energy">     -1.24347061 </i>
   </energy>
  </scstep>
  <scstep>
   <time name="total">    0.66    0.66</time>
   <energy>
    <i name="e_fr_energy">     -1.24354117 </i>
    <i name="e_wo_entrp">     -1.24318656 </i>
    <i name="e_0_energy">     -1.24336387 </i>
   </energy>
  </scstep>
  <scstep>
   <time name="total">    0.66    0.66</time>
   <energy>
    <i name="e_fr_energy">     -1.24391268 </i>
    <i name="e_wo_entrp">     -1.23938427 </i>
    <i name="e_0_energy">     -1.24164848 </i>
   </energy>
  </scstep>
  <scstep>
   <time name="total">    0.66    0.66</time>
   <energy>
    <i name="e_fr_energy">     -1.24808307 </i>
    <i name="e_wo_entrp">     -1.23270873 </i>
    <i name="e_0_energy">     -1.24039590 </i>
   </energy>
  </scstep>
  <scstep>
   <time name="total">    0.66    0.66</time>
   <energy>
    <i name="e_fr_energy">     -1.25890775 </i>
    <i name="e_wo_entrp">     -1.23236066 </i>
    <i name="e_0_energy">     -1.24563421 </i>
   </energy>
  </scstep>
  <scstep>
   <time name="total">    0.68    0.68</time>
   <energy>
    <i name="e_fr_energy">     -1.27007810 </i>
    <i name="e_wo_entrp">     -1.23668888 </i>
    <i name="e_0_energy">     -1.25338349 </i>
   </energy>
  </scstep>
  <scstep>
   <time name="total">    0.65    0.65</time>
   <energy>
    <i name="e_fr_energy">     -1.27693548 </i>
    <i name="e_wo_entrp">     -1.24036383 </i>
    <i name="e_0_energy">     -1.25864965 </i>
   </energy>
  </scstep>
  <scstep>
   <time name="total">    0.66    0.66</time>
   <energy>
    <i name="e_fr_energy">     -1.28013362 </i>
    <i name="e_wo_entrp">     -1.24228236 </i>
    <i name="e_0_energy">     -1.26120799 </i>
   </energy>
  </scstep>
  <scstep>
   <time name="total">    0.66    0.66</time>
   <energy>
    <i name="e_fr_energy">     -1.28142307 </i>
    <i name="e_wo_entrp">     -1.24309906 </i>
    <i name="e_0_energy">     -1.26226107 </i>
   </energy>
  </scstep>
  <scstep>
   <time name="total">    0.66    0.66</time>
   <energy>
    <i name="e_fr_energy">     -1.28190076 </i>
    <i name="e_wo_entrp">     -1.24341234 </i>
    <i name="e_0_energy">     -1.26265655 </i>
   </energy>
  </scstep>
  <scstep>
   <time name="total">    0.66    0.66</time>
   <energy>
    <i name="e_fr_energy">     -1.28206736 </i>
    <i name="e_wo_entrp">     -1.24352486 </i>
    <i name="e_0_energy">     -1.26279611 </i>
   </energy>
  </scstep>
  <scstep>
   <time name="total">    0.65    0.65</time>
   <energy>
    <i name="e_fr_energy">     -1.28212234 </i>
    <i name="e_wo_entrp">     -1.24356310 </i>
    <i name="e_0_energy">     -1.26284272 </i>
   </energy>
  </scstep>
  <scstep>
   <time name="total">    0.70    0.70</time>
   <energy>
    <i name="alphaZ">      0.08214672 </i>
    <i name="ewald">    -32.68518401 </i>
    <i name="hartreedc">    -88.18622142 </i>
    <i name="XCdc">     11.25867199 </i>
    <i name="pawpsdc">    106.72216846 </i>
    <i name="pawaedc">   -107.26926219 </i>
    <i name="eentropy">     -0.03856403 </i>
    <i name="bandstr">    -38.31479303 </i>
    <i name="atom">    147.14889331 </i>
    <i name="e_fr_energy">     -1.28213941 </i>
    <i name="e_wo_entrp">     -1.24357538 </i>
    <i name="e_0_energy">     -1.26285740 </i>
   </energy>
  </scstep>
  <structure>
   <crystal>
    <varray name="basis" >
     <v>      10.00000000       0.00000000       0.00000000 </v>
     <v>       0.00000000      10.00000000       0.00000000 </v>
     <v>       0.00000000       0.00000000      10.00000000 </v>
    </varray>
    <i name="volume">   1000.00000000 </i>
    <varray name="rec_basis" >
     <v>       0.10000000       0.00000000       0.00000000 </v>
     <v>       0.00000000       0.10000000       0.00000000 </v>
     <v>       0.00000000       0.00000000       0.10000000 </v>
    </varray>
   </crystal>
   <varray name="positions" >
    <v>       0.50000000       0.50000000       0.50000000 </v>
   </varray>
  </structure>
  <varray name="forces" >
   <v>       0.00000000       0.00000000       0.00000000 </v>
  </varray>
  <varray name="stress" >
   <v>      -0.01030137       0.00000000       0.00000000 </v>
   <v>       0.00000000      -0.01030137      -0.00000000 </v>
   <v>       0.00000000      -0.00000000      -0.01030137 </v>
  </varray>
  <energy>
   <i name="e_fr_energy">     -1.28213941 </i>
   <i name="e_wo_entrp">     -1.26285740 </i>
   <i name="e_0_energy">     -0.03856403 </i>
  </energy>
  <time name="totalsc">   24.55   24.93</time>
  <eigenvalues>
   <array>
    <dimension dim="1">band</dimension>
    <dimension dim="2">kpoint</dimension>
    <dimension dim="3">spin</dimension>
    <field>eigene</field>
    <field>occ</field>
    <set>
     <set comment="spin 1">
      <set comment="kpoint 1">
       <r>  -14.5426    1.0000 </r>
       <r>   -5.9944    0.6690 </r>
       <r>   -5.9944    0.6689 </r>
       <r>   -5.9944    0.6621 </r>
       <r>   -0.4849    0.0000 </r>
       <r>    1.0138    0.0000 </r>
       <r>    1.0138    0.0000 </r>
       <r>    1.0141    0.0000 </r>
       <r>    1.1388    0.0000 </r>
       <r>    1.1701    0.0000 </r>
       <r>    1.1701    0.0000 </r>
       <r>    2.3218    0.0000 </r>
       <r>    2.3220    0.0000 </r>
       <r>    2.3224    0.0000 </r>
       <r>    2.5462    0.0000 </r>
       <r>    2.5490    0.0000 </r>
       <r>    2.5501    0.0000 </r>
       <r>    2.7100    0.0000 </r>
       <r>    2.7110    0.0000 </r>
       <r>    2.7448    0.0000 </r>
       <r>    2.7491    0.0000 </r>
       <r>    2.7504    0.0000 </r>
       <r>    2.9500    0.0000 </r>
       <r>    3.9930    0.0000 </r>
       <r>    3.9931    0.0000 </r>
       <r>    3.9932    0.0000 </r>
       <r>    4.0494    0.0000 </r>
       <r>    4.2215    0.0000 </r>
       <r>    4.2286    0.0000 </r>
       <r>    4.2322    0.0000 </r>
       <r>    4.4853    0.0000 </r>
       <r>    4.9838    0.0000 </r>
       <r>    4.9883    0.0000 </r>
       <r>    6.0365    0.0000 </r>
       <r>    6.2906    0.0000 </r>
       <r>    6.8286    0.0000 </r>
      </set>
     </set>
     <set comment="spin 2">
      <set comment="kpoint 1">
       <r>  -11.7834    1.0000 </r>
       <r>   -3.5092    0.0000 </r>
       <r>   -3.5092    0.0000 </r>
       <r>   -3.5092    0.0000 </r>
       <r>   -0.0649    0.0000 </r>
       <r>    1.4529    0.0000 </r>
       <r>    1.4529    0.0000 </r>
       <r>    1.4758    0.0000 </r>
       <r>    1.4760    0.0000 </r>
       <r>    1.4761    0.0000 </r>
       <r>    1.5027    0.0000 </r>
       <r>    2.7811    0.0000 </r>
       <r>    2.7811    0.0000 </r>
       <r>    2.7815    0.0000 </r>
       <r>    2.9397    0.0000 </r>
       <r>    2.9400    0.0000 </r>
       <r>    2.9738    0.0000 </r>
       <r>    2.9780    0.0000 </r>
       <r>    2.9784    0.0000 </r>
       <r>    2.9825    0.0000 </r>
       <r>    2.9868    0.0000 </r>
       <r>    2.9960    0.0000 </r>
       <r>    3.2664    0.0000 </r>
       <r>    4.2869    0.0000 </r>
       <r>    4.2870    0.0000 </r>
       <r>    4.2873    0.0000 </r>
       <r>    4.4117    0.0000 </r>
       <r>    4.5013    0.0000 </r>
       <r>    4.5158    0.0000 </r>
       <r>    4.5332    0.0000 </r>
       <r>    4.7181    0.0000 </r>
       <r>    5.5074    0.0000 </r>
       <r>    5.5222    0.0000 </r>
       <r>    6.0344    0.0000 </r>
       <r>    6.2464    0.0000 </r>
       <r>    6.9921    0.0000 </r>
      </set>
     </set>
    </set>
   </array>
  </eigenvalues>
  <separator name="orbital magnetization" >
   <v name="MAGDIPOLOUT">      0.00000000      0.00000000      0.00000000</v>
  </separator>
  <dos>
   <i name="efermi">     -5.97918524 </i>
   <total>
    <array>
     <dimension dim="1">gridpoints</dimension>
     <dimension dim="2">spin</dimension>
     <field>energy</field>
     <field>total</field>
     <field>integrated</field>
     <set>
      <set comment="spin 1">
       <r>   -15.6193     0.0000     0.0000 </r>
       <r>   -15.5404     0.0000     0.0000 </r>
       <r>   -15.4614     0.0000     0.0000 </r>
       <r>   -15.3824     0.0000     0.0000 </r>
       <r>   -15.3035     0.0000     0.0000 </r>
       <r>   -15.2245     0.0000     0.0000 </r>
       <r>   -15.1456     0.0000     0.0000 </r>
       <r>   -15.0666     0.0000     0.0000 </r>
       <r>   -14.9876     0.0000     0.0000 </r>
       <r>   -14.9087     0.0000     0.0000 </r>
       <r>   -14.8297     0.0000     0.0000 </r>
       <r>   -14.7508     0.0000     0.0000 </r>
       <r>   -14.6718     0.0016     0.0001 </r>
       <r>   -14.5928     0.9815     0.0776 </r>
       <r>   -14.5139     9.0427     0.7916 </r>
       <r>   -14.4349     2.6241     0.9988 </r>
       <r>   -14.3560     0.0147     1.0000 </r>
       <r>   -14.2770     0.0000     1.0000 </r>
       <r>   -14.1980     0.0000     1.0000 </r>
       <r>   -14.1191     0.0000     1.0000 </r>
       <r>   -14.0401     0.0000     1.0000 </r>
       <r>   -13.9612     0.0000     1.0000 </r>
       <r>   -13.8822     0.0000     1.0000 </r>
       <r>   -13.8032     0.0000     1.0000 </r>
       <r>   -13.7243     0.0000     1.0000 </r>
       <r>   -13.6453     0.0000     1.0000 </r>
       <r>   -13.5663     0.0000     1.0000 </r>
       <r>   -13.4874     0.0000     1.0000 </r>
       <r>   -13.4084     0.0000     1.0000 </r>
       <r>   -13.3295     0.0000     1.0000 </r>
       <r>   -13.2505     0.0000     1.0000 </r>
       <r>   -13.1715     0.0000     1.0000 </r>
       <r>   -13.0926     0.0000     1.0000 </r>
       <r>   -13.0136     0.0000     1.0000 </r>
       <r>   -12.9347     0.0000     1.0000 </r>
       <r>   -12.8557     0.0000     1.0000 </r>
       <r>   -12.7767     0.0000     1.0000 </r>
       <r>   -12.6978     0.0000     1.0000 </r>
       <r>   -12.6188     0.0000     1.0000 </r>
       <r>   -12.5399     0.0000     1.0000 </r>
       <r>   -12.4609     0.0000     1.0000 </r>
       <r>   -12.3819     0.0000     1.0000 </r>
       <r>   -12.3030     0.0000     1.0000 </r>
       <r>   -12.2240     0.0000     1.0000 </r>
       <r>   -12.1451     0.0000     1.0000 </r>
       <r>   -12.0661     0.0000     1.0000 </r>
       <r>   -11.9871     0.0000     1.0000 </r>
       <r>   -11.9082     0.0000     1.0000 </r>
       <r>   -11.8292     0.0000     1.0000 </r>
       <r>   -11.7503     0.0000     1.0000 </r>
       <r>   -11.6713     0.0000     1.0000 </r>
       <r>   -11.5923     0.0000     1.0000 </r>
       <r>   -11.5134     0.0000     1.0000 </r>
       <r>   -11.4344     0.0000     1.0000 </r>
       <r>   -11.3555     0.0000     1.0000 </r>
       <r>   -11.2765     0.0000     1.0000 </r>
       <r>   -11.1975     0.0000     1.0000 </r>
       <r>   -11.1186     0.0000     1.0000 </r>
       <r>   -11.0396     0.0000     1.0000 </r>
       <r>   -10.9606     0.0000     1.0000 </r>
       <r>   -10.8817     0.0000     1.0000 </r>
       <r>   -10.8027     0.0000     1.0000 </r>
       <r>   -10.7238     0.0000     1.0000 </r>
       <r>   -10.6448     0.0000     1.0000 </r>
       <r>   -10.5658     0.0000     1.0000 </r>
       <r>   -10.4869     0.0000     1.0000 </r>
       <r>   -10.4079     0.0000     1.0000 </r>
       <r>   -10.3290     0.0000     1.0000 </r>
       <r>   -10.2500     0.0000     1.0000 </r>
       <r>   -10.1710     0.0000     1.0000 </r>
       <r>   -10.0921     0.0000     1.0000 </r>
       <r>   -10.0131     0.0000     1.0000 </r>
       <r>    -9.9342     0.0000     1.0000 </r>
       <r>    -9.8552     0.0000     1.0000 </r>
       <r>    -9.7762     0.0000     1.0000 </r>
       <r>    -9.6973     0.0000     1.0000 </r>
       <r>    -9.6183     0.0000     1.0000 </r>
       <r>    -9.5394     0.0000     1.0000 </r>
       <r>    -9.4604     0.0000     1.0000 </r>
       <r>    -9.3814     0.0000     1.0000 </r>
       <r>    -9.3025     0.0000     1.0000 </r>
       <r>    -9.2235     0.0000     1.0000 </r>
       <r>    -9.1446     0.0000     1.0000 </r>
       <r>    -9.0656     0.0000     1.0000 </r>
       <r>    -8.9866     0.0000     1.0000 </r>
       <r>    -8.9077     0.0000     1.0000 </r>
       <r>    -8.8287     0.0000     1.0000 </r>
       <r>    -8.7498     0.0000     1.0000 </r>
       <r>    -8.6708     0.0000     1.0000 </r>
       <r>    -8.5918     0.0000     1.0000 </r>
       <r>    -8.5129     0.0000     1.0000 </r>
       <r>    -8.4339     0.0000     1.0000 </r>
       <r>    -8.3549     0.0000     1.0000 </r>
       <r>    -8.2760     0.0000     1.0000 </r>
       <r>    -8.1970     0.0000     1.0000 </r>
       <r>    -8.1181     0.0000     1.0000 </r>
       <r>    -8.0391     0.0000     1.0000 </r>
       <r>    -7.9601     0.0000     1.0000 </r>
       <r>    -7.8812     0.0000     1.0000 </r>
       <r>    -7.8022     0.0000     1.0000 </r>
       <r>    -7.7233     0.0000     1.0000 </r>
       <r>    -7.6443     0.0000     1.0000 </r>
       <r>    -7.5653     0.0000     1.0000 </r>
       <r>    -7.4864     0.0000     1.0000 </r>
       <r>    -7.4074     0.0000     1.0000 </r>
       <r>    -7.3285     0.0000     1.0000 </r>
       <r>    -7.2495     0.0000     1.0000 </r>
       <r>    -7.1705     0.0000     1.0000 </r>
       <r>    -7.0916     0.0000     1.0000 </r>
       <r>    -7.0126     0.0000     1.0000 </r>
       <r>    -6.9337     0.0000     1.0000 </r>
       <r>    -6.8547     0.0000     1.0000 </r>
       <r>    -6.7757     0.0000     1.0000 </r>
       <r>    -6.6968     0.0000     1.0000 </r>
       <r>    -6.6178     0.0000     1.0000 </r>
       <r>    -6.5389     0.0000     1.0000 </r>
       <r>    -6.4599     0.0000     1.0000 </r>
       <r>    -6.3809     0.0000     1.0000 </r>
       <r>    -6.3020     0.0000     1.0000 </r>
       <r>    -6.2230     0.0000     1.0000 </r>
       <r>    -6.1441     0.0004     1.0000 </r>
       <r>    -6.0651     0.8658     1.0684 </r>
       <r>    -5.9861    21.6493     2.7778 </r>
       <r>    -5.9072    15.2196     3.9796 </r>
       <r>    -5.8282     0.2583     4.0000 </r>
       <r>    -5.7492     0.0000     4.0000 </r>
       <r>    -5.6703     0.0000     4.0000 </r>
       <r>    -5.5913     0.0000     4.0000 </r>
       <r>    -5.5124     0.0000     4.0000 </r>
       <r>    -5.4334     0.0000     4.0000 </r>
       <r>    -5.3544     0.0000     4.0000 </r>
       <r>    -5.2755     0.0000     4.0000 </r>
       <r>    -5.1965     0.0000     4.0000 </r>
       <r>    -5.1176     0.0000     4.0000 </r>
       <r>    -5.0386     0.0000     4.0000 </r>
       <r>    -4.9596     0.0000     4.0000 </r>
       <r>    -4.8807     0.0000     4.0000 </r>
       <r>    -4.8017     0.0000     4.0000 </r>
       <r>    -4.7228     0.0000     4.0000 </r>
       <r>    -4.6438     0.0000     4.0000 </r>
       <r>    -4.5648     0.0000     4.0000 </r>
       <r>    -4.4859     0.0000     4.0000 </r>
       <r>    -4.4069     0.0000     4.0000 </r>
       <r>    -4.3280     0.0000     4.0000 </r>
       <r>    -4.2490     0.0000     4.0000 </r>
       <r>    -4.1700     0.0000     4.0000 </r>
       <r>    -4.0911     0.0000     4.0000 </r>
       <r>    -4.0121     0.0000     4.0000 </r>
       <r>    -3.9332     0.0000     4.0000 </r>
       <r>    -3.8542     0.0000     4.0000 </r>
       <r>    -3.7752     0.0000     4.0000 </r>
       <r>    -3.6963     0.0000     4.0000 </r>
       <r>    -3.6173     0.0000     4.0000 </r>
       <r>    -3.5384     0.0000     4.0000 </r>
       <r>    -3.4594     0.0000     4.0000 </r>
       <r>    -3.3804     0.0000     4.0000 </r>
       <r>    -3.3015     0.0000     4.0000 </r>
       <r>    -3.2225     0.0000     4.0000 </r>
       <r>    -3.1435     0.0000     4.0000 </r>
       <r>    -3.0646     0.0000     4.0000 </r>
       <r>    -2.9856     0.0000     4.0000 </r>
       <r>    -2.9067     0.0000     4.0000 </r>
       <r>    -2.8277     0.0000     4.0000 </r>
       <r>    -2.7487     0.0000     4.0000 </r>
       <r>    -2.6698     0.0000     4.0000 </r>
       <r>    -2.5908     0.0000     4.0000 </r>
       <r>    -2.5119     0.0000     4.0000 </r>
       <r>    -2.4329     0.0000     4.0000 </r>
       <r>    -2.3539     0.0000     4.0000 </r>
       <r>    -2.2750     0.0000     4.0000 </r>
       <r>    -2.1960     0.0000     4.0000 </r>
       <r>    -2.1171     0.0000     4.0000 </r>
       <r>    -2.0381     0.0000     4.0000 </r>
       <r>    -1.9591     0.0000     4.0000 </r>
       <r>    -1.8802     0.0000     4.0000 </r>
       <r>    -1.8012     0.0000     4.0000 </r>
       <r>    -1.7223     0.0000     4.0000 </r>
       <r>    -1.6433     0.0000     4.0000 </r>
       <r>    -1.5643     0.0000     4.0000 </r>
       <r>    -1.4854     0.0000     4.0000 </r>
       <r>    -1.4064     0.0000     4.0000 </r>
       <r>    -1.3275     0.0000     4.0000 </r>
       <r>    -1.2485     0.0000     4.0000 </r>
       <r>    -1.1695     0.0000     4.0000 </r>
       <r>    -1.0906     0.0000     4.0000 </r>
       <r>    -1.0116     0.0000     4.0000 </r>
       <r>    -0.9327     0.0000     4.0000 </r>
       <r>    -0.8537     0.0000     4.0000 </r>
       <r>    -0.7747     0.0000     4.0000 </r>
       <r>    -0.6958     0.0000     4.0000 </r>
       <r>    -0.6168     0.0012     4.0001 </r>
       <r>    -0.5378     0.8501     4.0672 </r>
       <r>    -0.4589     8.8914     4.7693 </r>
       <r>    -0.3799     2.9030     4.9985 </r>
       <r>    -0.3010     0.0189     5.0000 </r>
       <r>    -0.2220     0.0000     5.0000 </r>
       <r>    -0.1430     0.0000     5.0000 </r>
       <r>    -0.0641     0.0000     5.0000 </r>
       <r>     0.0149     0.0000     5.0000 </r>
       <r>     0.0938     0.0000     5.0000 </r>
       <r>     0.1728     0.0000     5.0000 </r>
       <r>     0.2518     0.0000     5.0000 </r>
       <r>     0.3307     0.0000     5.0000 </r>
       <r>     0.4097     0.0000     5.0000 </r>
       <r>     0.4886     0.0000     5.0000 </r>
       <r>     0.5676     0.0000     5.0000 </r>
       <r>     0.6466     0.0000     5.0000 </r>
       <r>     0.7255     0.0000     5.0000 </r>
       <r>     0.8045     0.0000     5.0000 </r>
       <r>     0.8834     0.0042     5.0003 </r>
       <r>     0.9624     2.7499     5.2175 </r>
       <r>     1.0414    26.9623     7.3464 </r>
       <r>     1.1203    14.0578     8.4564 </r>
       <r>     1.1993    26.4844    10.5477 </r>
       <r>     1.2782     5.7000    10.9977 </r>
       <r>     1.3572     0.0286    11.0000 </r>
       <r>     1.4362     0.0000    11.0000 </r>
       <r>     1.5151     0.0000    11.0000 </r>
       <r>     1.5941     0.0000    11.0000 </r>
       <r>     1.6730     0.0000    11.0000 </r>
       <r>     1.7520     0.0000    11.0000 </r>
       <r>     1.8310     0.0000    11.0000 </r>
       <r>     1.9099     0.0000    11.0000 </r>
       <r>     1.9889     0.0000    11.0000 </r>
       <r>     2.0679     0.0000    11.0000 </r>
       <r>     2.1468     0.0000    11.0000 </r>
       <r>     2.2258     0.1227    11.0097 </r>
       <r>     2.3047    11.7317    11.9360 </r>
       <r>     2.3837    24.5946    13.8780 </r>
       <r>     2.4627     1.8359    14.0230 </r>
       <r>     2.5416    15.8151    15.2718 </r>
       <r>     2.6206    21.2457    16.9493 </r>
       <r>     2.6995    13.4813    18.0138 </r>
       <r>     2.7785    42.3786    21.3601 </r>
       <r>     2.8575     8.1218    22.0014 </r>
       <r>     2.9364     4.4252    22.3508 </r>
       <r>     3.0154     7.8147    22.9679 </r>
       <r>     3.0943     0.4068    23.0000 </r>
       <r>     3.1733     0.0003    23.0000 </r>
       <r>     3.2523     0.0000    23.0000 </r>
       <r>     3.3312     0.0000    23.0000 </r>
       <r>     3.4102     0.0000    23.0000 </r>
       <r>     3.4891     0.0000    23.0000 </r>
       <r>     3.5681     0.0000    23.0000 </r>
       <r>     3.6471     0.0000    23.0000 </r>
       <r>     3.7260     0.0000    23.0000 </r>
       <r>     3.8050     0.0000    23.0000 </r>
       <r>     3.8839     0.0384    23.0030 </r>
       <r>     3.9629     7.5249    23.5972 </r>
       <r>     4.0419    32.5027    26.1636 </r>
       <r>     4.1208    10.3639    26.9820 </r>
       <r>     4.1998     8.5482    27.6570 </r>
       <r>     4.2787    26.8275    29.7753 </r>
       <r>     4.3577     2.8433    29.9998 </r>
       <r>     4.4367     1.0735    30.0845 </r>
       <r>     4.5156     9.1192    30.8046 </r>
       <r>     4.5946     2.4620    30.9990 </r>
       <r>     4.6736     0.0126    31.0000 </r>
       <r>     4.7525     0.0000    31.0000 </r>
       <r>     4.8315     0.0002    31.0000 </r>
       <r>     4.9104     0.4151    31.0328 </r>
       <r>     4.9894    13.1996    32.0750 </r>
       <r>     5.0684    11.4586    32.9798 </r>
       <r>     5.1473     0.2555    33.0000 </r>
       <r>     5.2263     0.0001    33.0000 </r>
       <r>     5.3052     0.0000    33.0000 </r>
       <r>     5.3842     0.0000    33.0000 </r>
       <r>     5.4632     0.0000    33.0000 </r>
       <r>     5.5421     0.0000    33.0000 </r>
       <r>     5.6211     0.0000    33.0000 </r>
       <r>     5.7000     0.0000    33.0000 </r>
       <r>     5.7790     0.0000    33.0000 </r>
       <r>     5.8580     0.0000    33.0000 </r>
       <r>     5.9369     0.0307    33.0024 </r>
       <r>     6.0159     3.5107    33.2796 </r>
       <r>     6.0948     8.4959    33.9505 </r>
       <r>     6.1738     0.6327    34.0004 </r>
       <r>     6.2528     1.7958    34.1422 </r>
       <r>     6.3317     9.3129    34.8776 </r>
       <r>     6.4107     1.5461    34.9997 </r>
       <r>     6.4896     0.0043    35.0000 </r>
       <r>     6.5686     0.0000    35.0000 </r>
       <r>     6.6476     0.0000    35.0000 </r>
       <r>     6.7265     0.0246    35.0019 </r>
       <r>     6.8055     3.2231    35.2564 </r>
       <r>     6.8844     8.6928    35.9428 </r>
       <r>     6.9634     0.7232    35.9999 </r>
       <r>     7.0424     0.0009    36.0000 </r>
       <r>     7.1213     0.0000    36.0000 </r>
       <r>     7.2003     0.0000    36.0000 </r>
       <r>     7.2793     0.0000    36.0000 </r>
       <r>     7.3582     0.0000    36.0000 </r>
       <r>     7.4372     0.0000    36.0000 </r>
       <r>     7.5161     0.0000    36.0000 </r>
       <r>     7.5951     0.0000    36.0000 </r>
       <r>     7.6741     0.0000    36.0000 </r>
       <r>     7.7530     0.0000    36.0000 </r>
       <r>     7.8320     0.0000    36.0000 </r>
       <r>     7.9109     0.0000    36.0000 </r>
       <r>     7.9899     0.0000    36.0000 </r>
       <r>     8.0689     0.0000    36.0000 </r>
      </set>
      <set comment="spin 2">
       <r>   -15.6193     0.0000     0.0000 </r>
       <r>   -15.5404     0.0000     0.0000 </r>
       <r>   -15.4614     0.0000     0.0000 </r>
       <r>   -15.3824     0.0000     0.0000 </r>
       <r>   -15.3035     0.0000     0.0000 </r>
       <r>   -15.2245     0.0000     0.0000 </r>
       <r>   -15.1456     0.0000     0.0000 </r>
       <r>   -15.0666     0.0000     0.0000 </r>
       <r>   -14.9876     0.0000     0.0000 </r>
       <r>   -14.9087     0.0000     0.0000 </r>
       <r>   -14.8297     0.0000     0.0000 </r>
       <r>   -14.7508     0.0000     0.0000 </r>
       <r>   -14.6718     0.0000     0.0000 </r>
       <r>   -14.5928     0.0000     0.0000 </r>
       <r>   -14.5139     0.0000     0.0000 </r>
       <r>   -14.4349     0.0000     0.0000 </r>
       <r>   -14.3560     0.0000     0.0000 </r>
       <r>   -14.2770     0.0000     0.0000 </r>
       <r>   -14.1980     0.0000     0.0000 </r>
       <r>   -14.1191     0.0000     0.0000 </r>
       <r>   -14.0401     0.0000     0.0000 </r>
       <r>   -13.9612     0.0000     0.0000 </r>
       <r>   -13.8822     0.0000     0.0000 </r>
       <r>   -13.8032     0.0000     0.0000 </r>
       <r>   -13.7243     0.0000     0.0000 </r>
       <r>   -13.6453     0.0000     0.0000 </r>
       <r>   -13.5663     0.0000     0.0000 </r>
       <r>   -13.4874     0.0000     0.0000 </r>
       <r>   -13.4084     0.0000     0.0000 </r>
       <r>   -13.3295     0.0000     0.0000 </r>
       <r>   -13.2505     0.0000     0.0000 </r>
       <r>   -13.1715     0.0000     0.0000 </r>
       <r>   -13.0926     0.0000     0.0000 </r>
       <r>   -13.0136     0.0000     0.0000 </r>
       <r>   -12.9347     0.0000     0.0000 </r>
       <r>   -12.8557     0.0000     0.0000 </r>
       <r>   -12.7767     0.0000     0.0000 </r>
       <r>   -12.6978     0.0000     0.0000 </r>
       <r>   -12.6188     0.0000     0.0000 </r>
       <r>   -12.5399     0.0000     0.0000 </r>
       <r>   -12.4609     0.0000     0.0000 </r>
       <r>   -12.3819     0.0000     0.0000 </r>
       <r>   -12.3030     0.0000     0.0000 </r>
       <r>   -12.2240     0.0000     0.0000 </r>
       <r>   -12.1451     0.0000     0.0000 </r>
       <r>   -12.0661     0.0000     0.0000 </r>
       <r>   -11.9871     0.0000     0.0000 </r>
       <r>   -11.9082     0.0026     0.0002 </r>
       <r>   -11.8292     1.2307     0.0974 </r>
       <r>   -11.7503     9.2220     0.8256 </r>
       <r>   -11.6713     2.1996     0.9992 </r>
       <r>   -11.5923     0.0096     1.0000 </r>
       <r>   -11.5134     0.0000     1.0000 </r>
       <r>   -11.4344     0.0000     1.0000 </r>
       <r>   -11.3555     0.0000     1.0000 </r>
       <r>   -11.2765     0.0000     1.0000 </r>
       <r>   -11.1975     0.0000     1.0000 </r>
       <r>   -11.1186     0.0000     1.0000 </r>
       <r>   -11.0396     0.0000     1.0000 </r>
       <r>   -10.9606     0.0000     1.0000 </r>
       <r>   -10.8817     0.0000     1.0000 </r>
       <r>   -10.8027     0.0000     1.0000 </r>
       <r>   -10.7238     0.0000     1.0000 </r>
       <r>   -10.6448     0.0000     1.0000 </r>
       <r>   -10.5658     0.0000     1.0000 </r>
       <r>   -10.4869     0.0000     1.0000 </r>
       <r>   -10.4079     0.0000     1.0000 </r>
       <r>   -10.3290     0.0000     1.0000 </r>
       <r>   -10.2500     0.0000     1.0000 </r>
       <r>   -10.1710     0.0000     1.0000 </r>
       <r>   -10.0921     0.0000     1.0000 </r>
       <r>   -10.0131     0.0000     1.0000 </r>
       <r>    -9.9342     0.0000     1.0000 </r>
       <r>    -9.8552     0.0000     1.0000 </r>
       <r>    -9.7762     0.0000     1.0000 </r>
       <r>    -9.6973     0.0000     1.0000 </r>
       <r>    -9.6183     0.0000     1.0000 </r>
       <r>    -9.5394     0.0000     1.0000 </r>
       <r>    -9.4604     0.0000     1.0000 </r>
       <r>    -9.3814     0.0000     1.0000 </r>
       <r>    -9.3025     0.0000     1.0000 </r>
       <r>    -9.2235     0.0000     1.0000 </r>
       <r>    -9.1446     0.0000     1.0000 </r>
       <r>    -9.0656     0.0000     1.0000 </r>
       <r>    -8.9866     0.0000     1.0000 </r>
       <r>    -8.9077     0.0000     1.0000 </r>
       <r>    -8.8287     0.0000     1.0000 </r>
       <r>    -8.7498     0.0000     1.0000 </r>
       <r>    -8.6708     0.0000     1.0000 </r>
       <r>    -8.5918     0.0000     1.0000 </r>
       <r>    -8.5129     0.0000     1.0000 </r>
       <r>    -8.4339     0.0000     1.0000 </r>
       <r>    -8.3549     0.0000     1.0000 </r>
       <r>    -8.2760     0.0000     1.0000 </r>
       <r>    -8.1970     0.0000     1.0000 </r>
       <r>    -8.1181     0.0000     1.0000 </r>
       <r>    -8.0391     0.0000     1.0000 </r>
       <r>    -7.9601     0.0000     1.0000 </r>
       <r>    -7.8812     0.0000     1.0000 </r>
       <r>    -7.8022     0.0000     1.0000 </r>
       <r>    -7.7233     0.0000     1.0000 </r>
       <r>    -7.6443     0.0000     1.0000 </r>
       <r>    -7.5653     0.0000     1.0000 </r>
       <r>    -7.4864     0.0000     1.0000 </r>
       <r>    -7.4074     0.0000     1.0000 </r>
       <r>    -7.3285     0.0000     1.0000 </r>
       <r>    -7.2495     0.0000     1.0000 </r>
       <r>    -7.1705     0.0000     1.0000 </r>
       <r>    -7.0916     0.0000     1.0000 </r>
       <r>    -7.0126     0.0000     1.0000 </r>
       <r>    -6.9337     0.0000     1.0000 </r>
       <r>    -6.8547     0.0000     1.0000 </r>
       <r>    -6.7757     0.0000     1.0000 </r>
       <r>    -6.6968     0.0000     1.0000 </r>
       <r>    -6.6178     0.0000     1.0000 </r>
       <r>    -6.5389     0.0000     1.0000 </r>
       <r>    -6.4599     0.0000     1.0000 </r>
       <r>    -6.3809     0.0000     1.0000 </r>
       <r>    -6.3020     0.0000     1.0000 </r>
       <r>    -6.2230     0.0000     1.0000 </r>
       <r>    -6.1441     0.0000     1.0000 </r>
       <r>    -6.0651     0.0000     1.0000 </r>
       <r>    -5.9861     0.0000     1.0000 </r>
       <r>    -5.9072     0.0000     1.0000 </r>
       <r>    -5.8282     0.0000     1.0000 </r>
       <r>    -5.7492     0.0000     1.0000 </r>
       <r>    -5.6703     0.0000     1.0000 </r>
       <r>    -5.5913     0.0000     1.0000 </r>
       <r>    -5.5124     0.0000     1.0000 </r>
       <r>    -5.4334     0.0000     1.0000 </r>
       <r>    -5.3544     0.0000     1.0000 </r>
       <r>    -5.2755     0.0000     1.0000 </r>
       <r>    -5.1965     0.0000     1.0000 </r>
       <r>    -5.1176     0.0000     1.0000 </r>
       <r>    -5.0386     0.0000     1.0000 </r>
       <r>    -4.9596     0.0000     1.0000 </r>
       <r>    -4.8807     0.0000     1.0000 </r>
       <r>    -4.8017     0.0000     1.0000 </r>
       <r>    -4.7228     0.0000     1.0000 </r>
       <r>    -4.6438     0.0000     1.0000 </r>
       <r>    -4.5648     0.0000     1.0000 </r>
       <r>    -4.4859     0.0000     1.0000 </r>
       <r>    -4.4069     0.0000     1.0000 </r>
       <r>    -4.3280     0.0000     1.0000 </r>
       <r>    -4.2490     0.0000     1.0000 </r>
       <r>    -4.1700     0.0000     1.0000 </r>
       <r>    -4.0911     0.0000     1.0000 </r>
       <r>    -4.0121     0.0000     1.0000 </r>
       <r>    -3.9332     0.0000     1.0000 </r>
       <r>    -3.8542     0.0000     1.0000 </r>
       <r>    -3.7752     0.0000     1.0000 </r>
       <r>    -3.6963     0.0000     1.0000 </r>
       <r>    -3.6173     0.0423     1.0033 </r>
       <r>    -3.5384     7.7356     1.6142 </r>
       <r>    -3.4594    27.1953     3.7615 </r>
       <r>    -3.3804     3.0153     3.9996 </r>
       <r>    -3.3015     0.0051     4.0000 </r>
       <r>    -3.2225     0.0000     4.0000 </r>
       <r>    -3.1435     0.0000     4.0000 </r>
       <r>    -3.0646     0.0000     4.0000 </r>
       <r>    -2.9856     0.0000     4.0000 </r>
       <r>    -2.9067     0.0000     4.0000 </r>
       <r>    -2.8277     0.0000     4.0000 </r>
       <r>    -2.7487     0.0000     4.0000 </r>
       <r>    -2.6698     0.0000     4.0000 </r>
       <r>    -2.5908     0.0000     4.0000 </r>
       <r>    -2.5119     0.0000     4.0000 </r>
       <r>    -2.4329     0.0000     4.0000 </r>
       <r>    -2.3539     0.0000     4.0000 </r>
       <r>    -2.2750     0.0000     4.0000 </r>
       <r>    -2.1960     0.0000     4.0000 </r>
       <r>    -2.1171     0.0000     4.0000 </r>
       <r>    -2.0381     0.0000     4.0000 </r>
       <r>    -1.9591     0.0000     4.0000 </r>
       <r>    -1.8802     0.0000     4.0000 </r>
       <r>    -1.8012     0.0000     4.0000 </r>
       <r>    -1.7223     0.0000     4.0000 </r>
       <r>    -1.6433     0.0000     4.0000 </r>
       <r>    -1.5643     0.0000     4.0000 </r>
       <r>    -1.4854     0.0000     4.0000 </r>
       <r>    -1.4064     0.0000     4.0000 </r>
       <r>    -1.3275     0.0000     4.0000 </r>
       <r>    -1.2485     0.0000     4.0000 </r>
       <r>    -1.1695     0.0000     4.0000 </r>
       <r>    -1.0906     0.0000     4.0000 </r>
       <r>    -1.0116     0.0000     4.0000 </r>
       <r>    -0.9327     0.0000     4.0000 </r>
       <r>    -0.8537     0.0000     4.0000 </r>
       <r>    -0.7747     0.0000     4.0000 </r>
       <r>    -0.6958     0.0000     4.0000 </r>
       <r>    -0.6168     0.0000     4.0000 </r>
       <r>    -0.5378     0.0000     4.0000 </r>
       <r>    -0.4589     0.0000     4.0000 </r>
       <r>    -0.3799     0.0000     4.0000 </r>
       <r>    -0.3010     0.0000     4.0000 </r>
       <r>    -0.2220     0.0001     4.0000 </r>
       <r>    -0.1430     0.1712     4.0135 </r>
       <r>    -0.0641     6.2749     4.5090 </r>
       <r>     0.0149     6.0658     4.9880 </r>
       <r>     0.0938     0.1524     5.0000 </r>
       <r>     0.1728     0.0000     5.0000 </r>
       <r>     0.2518     0.0000     5.0000 </r>
       <r>     0.3307     0.0000     5.0000 </r>
       <r>     0.4097     0.0000     5.0000 </r>
       <r>     0.4886     0.0000     5.0000 </r>
       <r>     0.5676     0.0000     5.0000 </r>
       <r>     0.6466     0.0000     5.0000 </r>
       <r>     0.7255     0.0000     5.0000 </r>
       <r>     0.8045     0.0000     5.0000 </r>
       <r>     0.8834     0.0000     5.0000 </r>
       <r>     0.9624     0.0000     5.0000 </r>
       <r>     1.0414     0.0000     5.0000 </r>
       <r>     1.1203     0.0000     5.0000 </r>
       <r>     1.1993     0.0000     5.0000 </r>
       <r>     1.2782     0.0000     5.0000 </r>
       <r>     1.3572     0.1009     5.0080 </r>
       <r>     1.4362    13.2673     6.0556 </r>
       <r>     1.5151    51.9360    10.1565 </r>
       <r>     1.5941    10.6045    10.9938 </r>
       <r>     1.6730     0.0785    11.0000 </r>
       <r>     1.7520     0.0000    11.0000 </r>
       <r>     1.8310     0.0000    11.0000 </r>
       <r>     1.9099     0.0000    11.0000 </r>
       <r>     1.9889     0.0000    11.0000 </r>
       <r>     2.0679     0.0000    11.0000 </r>
       <r>     2.1468     0.0000    11.0000 </r>
       <r>     2.2258     0.0000    11.0000 </r>
       <r>     2.3047     0.0000    11.0000 </r>
       <r>     2.3837     0.0000    11.0000 </r>
       <r>     2.4627     0.0000    11.0000 </r>
       <r>     2.5416     0.0000    11.0000 </r>
       <r>     2.6206     0.0001    11.0000 </r>
       <r>     2.6995     0.3954    11.0312 </r>
       <r>     2.7785    17.4212    12.4068 </r>
       <r>     2.8575    19.8552    13.9746 </r>
       <r>     2.9364    19.6173    15.5236 </r>
       <r>     3.0154    67.7824    20.8757 </r>
       <r>     3.0943    14.1619    21.9940 </r>
       <r>     3.1733     0.1298    22.0042 </r>
       <r>     3.2523     4.3054    22.3442 </r>
       <r>     3.3312     7.8820    22.9665 </r>
       <r>     3.4102     0.4234    23.0000 </r>
       <r>     3.4891     0.0003    23.0000 </r>
       <r>     3.5681     0.0000    23.0000 </r>
       <r>     3.6471     0.0000    23.0000 </r>
       <r>     3.7260     0.0000    23.0000 </r>
       <r>     3.8050     0.0000    23.0000 </r>
       <r>     3.8839     0.0000    23.0000 </r>
       <r>     3.9629     0.0000    23.0000 </r>
       <r>     4.0419     0.0000    23.0000 </r>
       <r>     4.1208     0.0000    23.0000 </r>
       <r>     4.1998     0.2578    23.0204 </r>
       <r>     4.2787    15.2093    24.2213 </r>
       <r>     4.3577    22.4594    25.9947 </r>
       <r>     4.4367    10.3128    26.8090 </r>
       <r>     4.5156    20.9397    28.4624 </r>
       <r>     4.5946    18.7356    29.9418 </r>
       <r>     4.6736     2.0533    30.1039 </r>
       <r>     4.7525     9.2586    30.8350 </r>
       <r>     4.8315     2.0813    30.9993 </r>
       <r>     4.9104     0.0085    31.0000 </r>
       <r>     4.9894     0.0000    31.0000 </r>
       <r>     5.0684     0.0000    31.0000 </r>
       <r>     5.1473     0.0000    31.0000 </r>
       <r>     5.2263     0.0000    31.0000 </r>
       <r>     5.3052     0.0000    31.0000 </r>
       <r>     5.3842     0.0037    31.0003 </r>
       <r>     5.4632     1.9306    31.1527 </r>
       <r>     5.5421    17.6946    32.5499 </r>
       <r>     5.6211     5.6591    32.9968 </r>
       <r>     5.7000     0.0411    33.0000 </r>
       <r>     5.7790     0.0000    33.0000 </r>
       <r>     5.8580     0.0000    33.0000 </r>
       <r>     5.9369     0.0370    33.0029 </r>
       <r>     6.0159     3.7667    33.3003 </r>
       <r>     6.0948     8.3083    33.9564 </r>
       <r>     6.1738     0.8062    34.0200 </r>
       <r>     6.2528     6.9881    34.5718 </r>
       <r>     6.3317     5.3230    34.9921 </r>
       <r>     6.4107     0.0998    35.0000 </r>
       <r>     6.4896     0.0000    35.0000 </r>
       <r>     6.5686     0.0000    35.0000 </r>
       <r>     6.6476     0.0000    35.0000 </r>
       <r>     6.7265     0.0000    35.0000 </r>
       <r>     6.8055     0.0000    35.0000 </r>
       <r>     6.8844     0.0147    35.0012 </r>
       <r>     6.9634     2.6241    35.2084 </r>
       <r>     7.0424     9.0427    35.9224 </r>
       <r>     7.1213     0.9815    35.9999 </r>
       <r>     7.2003     0.0016    36.0000 </r>
       <r>     7.2793     0.0000    36.0000 </r>
       <r>     7.3582     0.0000    36.0000 </r>
       <r>     7.4372     0.0000    36.0000 </r>
       <r>     7.5161     0.0000    36.0000 </r>
       <r>     7.5951     0.0000    36.0000 </r>
       <r>     7.6741     0.0000    36.0000 </r>
       <r>     7.7530     0.0000    36.0000 </r>
       <r>     7.8320     0.0000    36.0000 </r>
       <r>     7.9109     0.0000    36.0000 </r>
       <r>     7.9899     0.0000    36.0000 </r>
       <r>     8.0689     0.0000    36.0000 </r>
      </set>
     </set>
    </array>
   </total>
   <partial>
    <array>
     <dimension dim="1">gridpoints</dimension>
     <dimension dim="2">spin</dimension>
     <dimension dim="3">ion</dimension>
     <field>energy</field>
     <field>    s</field>
     <field>   py</field>
     <field>   pz</field>
     <field>   px</field>
     <field>  dxy</field>
     <field>  dyz</field>
     <field>  dz2</field>
     <field>  dxz</field>
     <field>x2-y2</field>
     <set>
      <set comment="ion 1">
       <set comment="spin 1">
        <r>   -15.6193     0.0000     0.0000     0.0000     0.0000     0.0000     0.0000     0.0000     0.0000     0.0000 </r>
        <r>   -15.5404     0.0000     0.0000     0.0000     0.0000     0.0000     0.0000     0.0000     0.0000     0.0000 </r>
        <r>   -15.4614     0.0000     0.0000     0.0000     0.0000     0.0000     0.0000     0.0000     0.0000     0.0000 </r>
        <r>   -15.3824     0.0000     0.0000     0.0000     0.0000     0.0000     0.0000     0.0000     0.0000     0.0000 </r>
        <r>   -15.3035     0.0000     0.0000     0.0000     0.0000     0.0000     0.0000     0.0000     0.0000     0.0000 </r>
        <r>   -15.2245     0.0000     0.0000     0.0000     0.0000     0.0000     0.0000     0.0000     0.0000     0.0000 </r>
        <r>   -15.1456     0.0000     0.0000     0.0000     0.0000     0.0000     0.0000     0.0000     0.0000     0.0000 </r>
        <r>   -15.0666     0.0000     0.0000     0.0000     0.0000     0.0000     0.0000     0.0000     0.0000     0.0000 </r>
        <r>   -14.9876     0.0000     0.0000     0.0000     0.0000     0.0000     0.0000     0.0000     0.0000     0.0000 </r>
        <r>   -14.9087     0.0000     0.0000     0.0000     0.0000     0.0000     0.0000     0.0000     0.0000     0.0000 </r>
        <r>   -14.8297     0.0000     0.0000     0.0000     0.0000     0.0000     0.0000     0.0000     0.0000     0.0000 </r>
        <r>   -14.7508     0.0000     0.0000     0.0000     0.0000     0.0000     0.0000     0.0000     0.0000     0.0000 </r>
        <r>   -14.6718     0.0009     0.0000     0.0000     0.0000     0.0000     0.0000     0.0000     0.0000     0.0000 </r>
        <r>   -14.5928     0.5309     0.0000     0.0000     0.0000     0.0000     0.0000     0.0000     0.0000     0.0000 </r>
        <r>   -14.5139     4.8910     0.0000     0.0000     0.0000     0.0000     0.0000     0.0000     0.0000     0.0000 </r>
        <r>   -14.4349     1.4193     0.0000     0.0000     0.0000     0.0000     0.0000     0.0000     0.0000     0.0000 </r>
        <r>   -14.3560     0.0080     0.0000     0.0000     0.0000     0.0000     0.0000     0.0000     0.0000     0.0000 </r>
        <r>   -14.2770     0.0000     0.0000     0.0000     0.0000     0.0000     0.0000     0.0000     0.0000     0.0000 </r>
        <r>   -14.1980     0.0000     0.0000     0.0000     0.0000     0.0000     0.0000     0.0000     0.0000     0.0000 </r>
        <r>   -14.1191     0.0000     0.0000     0.0000     0.0000     0.0000     0.0000     0.0000     0.0000     0.0000 </r>
        <r>   -14.0401     0.0000     0.0000     0.0000     0.0000     0.0000     0.0000     0.0000     0.0000     0.0000 </r>
        <r>   -13.9612     0.0000     0.0000     0.0000     0.0000     0.0000     0.0000     0.0000     0.0000     0.0000 </r>
        <r>   -13.8822     0.0000     0.0000     0.0000     0.0000     0.0000     0.0000     0.0000     0.0000     0.0000 </r>
        <r>   -13.8032     0.0000     0.0000     0.0000     0.0000     0.0000     0.0000     0.0000     0.0000     0.0000 </r>
        <r>   -13.7243     0.0000     0.0000     0.0000     0.0000     0.0000     0.0000     0.0000     0.0000     0.0000 </r>
        <r>   -13.6453     0.0000     0.0000     0.0000     0.0000     0.0000     0.0000     0.0000     0.0000     0.0000 </r>
        <r>   -13.5663     0.0000     0.0000     0.0000     0.0000     0.0000     0.0000     0.0000     0.0000     0.0000 </r>
        <r>   -13.4874     0.0000     0.0000     0.0000     0.0000     0.0000     0.0000     0.0000     0.0000     0.0000 </r>
        <r>   -13.4084     0.0000     0.0000     0.0000     0.0000     0.0000     0.0000     0.0000     0.0000     0.0000 </r>
        <r>   -13.3295     0.0000     0.0000     0.0000     0.0000     0.0000     0.0000     0.0000     0.0000     0.0000 </r>
        <r>   -13.2505     0.0000     0.0000     0.0000     0.0000     0.0000     0.0000     0.0000     0.0000     0.0000 </r>
        <r>   -13.1715     0.0000     0.0000     0.0000     0.0000     0.0000     0.0000     0.0000     0.0000     0.0000 </r>
        <r>   -13.0926     0.0000     0.0000     0.0000     0.0000     0.0000     0.0000     0.0000     0.0000     0.0000 </r>
        <r>   -13.0136     0.0000     0.0000     0.0000     0.0000     0.0000     0.0000     0.0000     0.0000     0.0000 </r>
        <r>   -12.9347     0.0000     0.0000     0.0000     0.0000     0.0000     0.0000     0.0000     0.0000     0.0000 </r>
        <r>   -12.8557     0.0000     0.0000     0.0000     0.0000     0.0000     0.0000     0.0000     0.0000     0.0000 </r>
        <r>   -12.7767     0.0000     0.0000     0.0000     0.0000     0.0000     0.0000     0.0000     0.0000     0.0000 </r>
        <r>   -12.6978     0.0000     0.0000     0.0000     0.0000     0.0000     0.0000     0.0000     0.0000     0.0000 </r>
        <r>   -12.6188     0.0000     0.0000     0.0000     0.0000     0.0000     0.0000     0.0000     0.0000     0.0000 </r>
        <r>   -12.5399     0.0000     0.0000     0.0000     0.0000     0.0000     0.0000     0.0000     0.0000     0.0000 </r>
        <r>   -12.4609     0.0000     0.0000     0.0000     0.0000     0.0000     0.0000     0.0000     0.0000     0.0000 </r>
        <r>   -12.3819     0.0000     0.0000     0.0000     0.0000     0.0000     0.0000     0.0000     0.0000     0.0000 </r>
        <r>   -12.3030     0.0000     0.0000     0.0000     0.0000     0.0000     0.0000     0.0000     0.0000     0.0000 </r>
        <r>   -12.2240     0.0000     0.0000     0.0000     0.0000     0.0000     0.0000     0.0000     0.0000     0.0000 </r>
        <r>   -12.1451     0.0000     0.0000     0.0000     0.0000     0.0000     0.0000     0.0000     0.0000     0.0000 </r>
        <r>   -12.0661     0.0000     0.0000     0.0000     0.0000     0.0000     0.0000     0.0000     0.0000     0.0000 </r>
        <r>   -11.9871     0.0000     0.0000     0.0000     0.0000     0.0000     0.0000     0.0000     0.0000     0.0000 </r>
        <r>   -11.9082     0.0000     0.0000     0.0000     0.0000     0.0000     0.0000     0.0000     0.0000     0.0000 </r>
        <r>   -11.8292     0.0000     0.0000     0.0000     0.0000     0.0000     0.0000     0.0000     0.0000     0.0000 </r>
        <r>   -11.7503     0.0000     0.0000     0.0000     0.0000     0.0000     0.0000     0.0000     0.0000     0.0000 </r>
        <r>   -11.6713     0.0000     0.0000     0.0000     0.0000     0.0000     0.0000     0.0000     0.0000     0.0000 </r>
        <r>   -11.5923     0.0000     0.0000     0.0000     0.0000     0.0000     0.0000     0.0000     0.0000     0.0000 </r>
        <r>   -11.5134     0.0000     0.0000     0.0000     0.0000     0.0000     0.0000     0.0000     0.0000     0.0000 </r>
        <r>   -11.4344     0.0000     0.0000     0.0000     0.0000     0.0000     0.0000     0.0000     0.0000     0.0000 </r>
        <r>   -11.3555     0.0000     0.0000     0.0000     0.0000     0.0000     0.0000     0.0000     0.0000     0.0000 </r>
        <r>   -11.2765     0.0000     0.0000     0.0000     0.0000     0.0000     0.0000     0.0000     0.0000     0.0000 </r>
        <r>   -11.1975     0.0000     0.0000     0.0000     0.0000     0.0000     0.0000     0.0000     0.0000     0.0000 </r>
        <r>   -11.1186     0.0000     0.0000     0.0000     0.0000     0.0000     0.0000     0.0000     0.0000     0.0000 </r>
        <r>   -11.0396     0.0000     0.0000     0.0000     0.0000     0.0000     0.0000     0.0000     0.0000     0.0000 </r>
        <r>   -10.9606     0.0000     0.0000     0.0000     0.0000     0.0000     0.0000     0.0000     0.0000     0.0000 </r>
        <r>   -10.8817     0.0000     0.0000     0.0000     0.0000     0.0000     0.0000     0.0000     0.0000     0.0000 </r>
        <r>   -10.8027     0.0000     0.0000     0.0000     0.0000     0.0000     0.0000     0.0000     0.0000     0.0000 </r>
        <r>   -10.7238     0.0000     0.0000     0.0000     0.0000     0.0000     0.0000     0.0000     0.0000     0.0000 </r>
        <r>   -10.6448     0.0000     0.0000     0.0000     0.0000     0.0000     0.0000     0.0000     0.0000     0.0000 </r>
        <r>   -10.5658     0.0000     0.0000     0.0000     0.0000     0.0000     0.0000     0.0000     0.0000     0.0000 </r>
        <r>   -10.4869     0.0000     0.0000     0.0000     0.0000     0.0000     0.0000     0.0000     0.0000     0.0000 </r>
        <r>   -10.4079     0.0000     0.0000     0.0000     0.0000     0.0000     0.0000     0.0000     0.0000     0.0000 </r>
        <r>   -10.3290     0.0000     0.0000     0.0000     0.0000     0.0000     0.0000     0.0000     0.0000     0.0000 </r>
        <r>   -10.2500     0.0000     0.0000     0.0000     0.0000     0.0000     0.0000     0.0000     0.0000     0.0000 </r>
        <r>   -10.1710     0.0000     0.0000     0.0000     0.0000     0.0000     0.0000     0.0000     0.0000     0.0000 </r>
        <r>   -10.0921     0.0000     0.0000     0.0000     0.0000     0.0000     0.0000     0.0000     0.0000     0.0000 </r>
        <r>   -10.0131     0.0000     0.0000     0.0000     0.0000     0.0000     0.0000     0.0000     0.0000     0.0000 </r>
        <r>    -9.9342     0.0000     0.0000     0.0000     0.0000     0.0000     0.0000     0.0000     0.0000     0.0000 </r>
        <r>    -9.8552     0.0000     0.0000     0.0000     0.0000     0.0000     0.0000     0.0000     0.0000     0.0000 </r>
        <r>    -9.7762     0.0000     0.0000     0.0000     0.0000     0.0000     0.0000     0.0000     0.0000     0.0000 </r>
        <r>    -9.6973     0.0000     0.0000     0.0000     0.0000     0.0000     0.0000     0.0000     0.0000     0.0000 </r>
        <r>    -9.6183     0.0000     0.0000     0.0000     0.0000     0.0000     0.0000     0.0000     0.0000     0.0000 </r>
        <r>    -9.5394     0.0000     0.0000     0.0000     0.0000     0.0000     0.0000     0.0000     0.0000     0.0000 </r>
        <r>    -9.4604     0.0000     0.0000     0.0000     0.0000     0.0000     0.0000     0.0000     0.0000     0.0000 </r>
        <r>    -9.3814     0.0000     0.0000     0.0000     0.0000     0.0000     0.0000     0.0000     0.0000     0.0000 </r>
        <r>    -9.3025     0.0000     0.0000     0.0000     0.0000     0.0000     0.0000     0.0000     0.0000     0.0000 </r>
        <r>    -9.2235     0.0000     0.0000     0.0000     0.0000     0.0000     0.0000     0.0000     0.0000     0.0000 </r>
        <r>    -9.1446     0.0000     0.0000     0.0000     0.0000     0.0000     0.0000     0.0000     0.0000     0.0000 </r>
        <r>    -9.0656     0.0000     0.0000     0.0000     0.0000     0.0000     0.0000     0.0000     0.0000     0.0000 </r>
        <r>    -8.9866     0.0000     0.0000     0.0000     0.0000     0.0000     0.0000     0.0000     0.0000     0.0000 </r>
        <r>    -8.9077     0.0000     0.0000     0.0000     0.0000     0.0000     0.0000     0.0000     0.0000     0.0000 </r>
        <r>    -8.8287     0.0000     0.0000     0.0000     0.0000     0.0000     0.0000     0.0000     0.0000     0.0000 </r>
        <r>    -8.7498     0.0000     0.0000     0.0000     0.0000     0.0000     0.0000     0.0000     0.0000     0.0000 </r>
        <r>    -8.6708     0.0000     0.0000     0.0000     0.0000     0.0000     0.0000     0.0000     0.0000     0.0000 </r>
        <r>    -8.5918     0.0000     0.0000     0.0000     0.0000     0.0000     0.0000     0.0000     0.0000     0.0000 </r>
        <r>    -8.5129     0.0000     0.0000     0.0000     0.0000     0.0000     0.0000     0.0000     0.0000     0.0000 </r>
        <r>    -8.4339     0.0000     0.0000     0.0000     0.0000     0.0000     0.0000     0.0000     0.0000     0.0000 </r>
        <r>    -8.3549     0.0000     0.0000     0.0000     0.0000     0.0000     0.0000     0.0000     0.0000     0.0000 </r>
        <r>    -8.2760     0.0000     0.0000     0.0000     0.0000     0.0000     0.0000     0.0000     0.0000     0.0000 </r>
        <r>    -8.1970     0.0000     0.0000     0.0000     0.0000     0.0000     0.0000     0.0000     0.0000     0.0000 </r>
        <r>    -8.1181     0.0000     0.0000     0.0000     0.0000     0.0000     0.0000     0.0000     0.0000     0.0000 </r>
        <r>    -8.0391     0.0000     0.0000     0.0000     0.0000     0.0000     0.0000     0.0000     0.0000     0.0000 </r>
        <r>    -7.9601     0.0000     0.0000     0.0000     0.0000     0.0000     0.0000     0.0000     0.0000     0.0000 </r>
        <r>    -7.8812     0.0000     0.0000     0.0000     0.0000     0.0000     0.0000     0.0000     0.0000     0.0000 </r>
        <r>    -7.8022     0.0000     0.0000     0.0000     0.0000     0.0000     0.0000     0.0000     0.0000     0.0000 </r>
        <r>    -7.7233     0.0000     0.0000     0.0000     0.0000     0.0000     0.0000     0.0000     0.0000     0.0000 </r>
        <r>    -7.6443     0.0000     0.0000     0.0000     0.0000     0.0000     0.0000     0.0000     0.0000     0.0000 </r>
        <r>    -7.5653     0.0000     0.0000     0.0000     0.0000     0.0000     0.0000     0.0000     0.0000     0.0000 </r>
        <r>    -7.4864     0.0000     0.0000     0.0000     0.0000     0.0000     0.0000     0.0000     0.0000     0.0000 </r>
        <r>    -7.4074     0.0000     0.0000     0.0000     0.0000     0.0000     0.0000     0.0000     0.0000     0.0000 </r>
        <r>    -7.3285     0.0000     0.0000     0.0000     0.0000     0.0000     0.0000     0.0000     0.0000     0.0000 </r>
        <r>    -7.2495     0.0000     0.0000     0.0000     0.0000     0.0000     0.0000     0.0000     0.0000     0.0000 </r>
        <r>    -7.1705     0.0000     0.0000     0.0000     0.0000     0.0000     0.0000     0.0000     0.0000     0.0000 </r>
        <r>    -7.0916     0.0000     0.0000     0.0000     0.0000     0.0000     0.0000     0.0000     0.0000     0.0000 </r>
        <r>    -7.0126     0.0000     0.0000     0.0000     0.0000     0.0000     0.0000     0.0000     0.0000     0.0000 </r>
        <r>    -6.9337     0.0000     0.0000     0.0000     0.0000     0.0000     0.0000     0.0000     0.0000     0.0000 </r>
        <r>    -6.8547     0.0000     0.0000     0.0000     0.0000     0.0000     0.0000     0.0000     0.0000     0.0000 </r>
        <r>    -6.7757     0.0000     0.0000     0.0000     0.0000     0.0000     0.0000     0.0000     0.0000     0.0000 </r>
        <r>    -6.6968     0.0000     0.0000     0.0000     0.0000     0.0000     0.0000     0.0000     0.0000     0.0000 </r>
        <r>    -6.6178     0.0000     0.0000     0.0000     0.0000     0.0000     0.0000     0.0000     0.0000     0.0000 </r>
        <r>    -6.5389     0.0000     0.0000     0.0000     0.0000     0.0000     0.0000     0.0000     0.0000     0.0000 </r>
        <r>    -6.4599     0.0000     0.0000     0.0000     0.0000     0.0000     0.0000     0.0000     0.0000     0.0000 </r>
        <r>    -6.3809     0.0000     0.0000     0.0000     0.0000     0.0000     0.0000     0.0000     0.0000     0.0000 </r>
        <r>    -6.3020     0.0000     0.0000     0.0000     0.0000     0.0000     0.0000     0.0000     0.0000     0.0000 </r>
        <r>    -6.2230     0.0000     0.0000     0.0000     0.0000     0.0000     0.0000     0.0000     0.0000     0.0000 </r>
        <r>    -6.1441     0.0000     0.0001     0.0001     0.0001     0.0000     0.0000     0.0000     0.0000     0.0000 </r>
        <r>    -6.0651     0.0000     0.1375     0.1375     0.1375     0.0000     0.0000     0.0000     0.0000     0.0000 </r>
        <r>    -5.9861     0.0000     3.4388     3.4389     3.4387     0.0000     0.0000     0.0000     0.0000     0.0000 </r>
        <r>    -5.9072     0.0000     2.4175     2.4175     2.4174     0.0000     0.0000     0.0000     0.0000     0.0000 </r>
        <r>    -5.8282     0.0000     0.0410     0.0410     0.0410     0.0000     0.0000     0.0000     0.0000     0.0000 </r>
        <r>    -5.7492     0.0000     0.0000     0.0000     0.0000     0.0000     0.0000     0.0000     0.0000     0.0000 </r>
        <r>    -5.6703     0.0000     0.0000     0.0000     0.0000     0.0000     0.0000     0.0000     0.0000     0.0000 </r>
        <r>    -5.5913     0.0000     0.0000     0.0000     0.0000     0.0000     0.0000     0.0000     0.0000     0.0000 </r>
        <r>    -5.5124     0.0000     0.0000     0.0000     0.0000     0.0000     0.0000     0.0000     0.0000     0.0000 </r>
        <r>    -5.4334     0.0000     0.0000     0.0000     0.0000     0.0000     0.0000     0.0000     0.0000     0.0000 </r>
        <r>    -5.3544     0.0000     0.0000     0.0000     0.0000     0.0000     0.0000     0.0000     0.0000     0.0000 </r>
        <r>    -5.2755     0.0000     0.0000     0.0000     0.0000     0.0000     0.0000     0.0000     0.0000     0.0000 </r>
        <r>    -5.1965     0.0000     0.0000     0.0000     0.0000     0.0000     0.0000     0.0000     0.0000     0.0000 </r>
        <r>    -5.1176     0.0000     0.0000     0.0000     0.0000     0.0000     0.0000     0.0000     0.0000     0.0000 </r>
        <r>    -5.0386     0.0000     0.0000     0.0000     0.0000     0.0000     0.0000     0.0000     0.0000     0.0000 </r>
        <r>    -4.9596     0.0000     0.0000     0.0000     0.0000     0.0000     0.0000     0.0000     0.0000     0.0000 </r>
        <r>    -4.8807     0.0000     0.0000     0.0000     0.0000     0.0000     0.0000     0.0000     0.0000     0.0000 </r>
        <r>    -4.8017     0.0000     0.0000     0.0000     0.0000     0.0000     0.0000     0.0000     0.0000     0.0000 </r>
        <r>    -4.7228     0.0000     0.0000     0.0000     0.0000     0.0000     0.0000     0.0000     0.0000     0.0000 </r>
        <r>    -4.6438     0.0000     0.0000     0.0000     0.0000     0.0000     0.0000     0.0000     0.0000     0.0000 </r>
        <r>    -4.5648     0.0000     0.0000     0.0000     0.0000     0.0000     0.0000     0.0000     0.0000     0.0000 </r>
        <r>    -4.4859     0.0000     0.0000     0.0000     0.0000     0.0000     0.0000     0.0000     0.0000     0.0000 </r>
        <r>    -4.4069     0.0000     0.0000     0.0000     0.0000     0.0000     0.0000     0.0000     0.0000     0.0000 </r>
        <r>    -4.3280     0.0000     0.0000     0.0000     0.0000     0.0000     0.0000     0.0000     0.0000     0.0000 </r>
        <r>    -4.2490     0.0000     0.0000     0.0000     0.0000     0.0000     0.0000     0.0000     0.0000     0.0000 </r>
        <r>    -4.1700     0.0000     0.0000     0.0000     0.0000     0.0000     0.0000     0.0000     0.0000     0.0000 </r>
        <r>    -4.0911     0.0000     0.0000     0.0000     0.0000     0.0000     0.0000     0.0000     0.0000     0.0000 </r>
        <r>    -4.0121     0.0000     0.0000     0.0000     0.0000     0.0000     0.0000     0.0000     0.0000     0.0000 </r>
        <r>    -3.9332     0.0000     0.0000     0.0000     0.0000     0.0000     0.0000     0.0000     0.0000     0.0000 </r>
        <r>    -3.8542     0.0000     0.0000     0.0000     0.0000     0.0000     0.0000     0.0000     0.0000     0.0000 </r>
        <r>    -3.7752     0.0000     0.0000     0.0000     0.0000     0.0000     0.0000     0.0000     0.0000     0.0000 </r>
        <r>    -3.6963     0.0000     0.0000     0.0000     0.0000     0.0000     0.0000     0.0000     0.0000     0.0000 </r>
        <r>    -3.6173     0.0000     0.0000     0.0000     0.0000     0.0000     0.0000     0.0000     0.0000     0.0000 </r>
        <r>    -3.5384     0.0000     0.0000     0.0000     0.0000     0.0000     0.0000     0.0000     0.0000     0.0000 </r>
        <r>    -3.4594     0.0000     0.0000     0.0000     0.0000     0.0000     0.0000     0.0000     0.0000     0.0000 </r>
        <r>    -3.3804     0.0000     0.0000     0.0000     0.0000     0.0000     0.0000     0.0000     0.0000     0.0000 </r>
        <r>    -3.3015     0.0000     0.0000     0.0000     0.0000     0.0000     0.0000     0.0000     0.0000     0.0000 </r>
        <r>    -3.2225     0.0000     0.0000     0.0000     0.0000     0.0000     0.0000     0.0000     0.0000     0.0000 </r>
        <r>    -3.1435     0.0000     0.0000     0.0000     0.0000     0.0000     0.0000     0.0000     0.0000     0.0000 </r>
        <r>    -3.0646     0.0000     0.0000     0.0000     0.0000     0.0000     0.0000     0.0000     0.0000     0.0000 </r>
        <r>    -2.9856     0.0000     0.0000     0.0000     0.0000     0.0000     0.0000     0.0000     0.0000     0.0000 </r>
        <r>    -2.9067     0.0000     0.0000     0.0000     0.0000     0.0000     0.0000     0.0000     0.0000     0.0000 </r>
        <r>    -2.8277     0.0000     0.0000     0.0000     0.0000     0.0000     0.0000     0.0000     0.0000     0.0000 </r>
        <r>    -2.7487     0.0000     0.0000     0.0000     0.0000     0.0000     0.0000     0.0000     0.0000     0.0000 </r>
        <r>    -2.6698     0.0000     0.0000     0.0000     0.0000     0.0000     0.0000     0.0000     0.0000     0.0000 </r>
        <r>    -2.5908     0.0000     0.0000     0.0000     0.0000     0.0000     0.0000     0.0000     0.0000     0.0000 </r>
        <r>    -2.5119     0.0000     0.0000     0.0000     0.0000     0.0000     0.0000     0.0000     0.0000     0.0000 </r>
[...]
        <r>     4.5156     0.0068     0.0961     0.0674     0.0904     0.0000     0.0000     0.0000     0.0000     0.0000 </r>
        <r>     4.5946     0.0103     0.0705     0.0896     0.0958     0.0000     0.0000     0.0000     0.0000     0.0000 </r>
        <r>     4.6736     0.0135     0.0019     0.0066     0.0041     0.0000     0.0000     0.0000     0.0000     0.0000 </r>
        <r>     4.7525     0.0919     0.0030     0.0148     0.0006     0.0000     0.0000     0.0000     0.0000     0.0000 </r>
        <r>     4.8315     0.0207     0.0007     0.0033     0.0001     0.0000     0.0000     0.0000     0.0000     0.0000 </r>
        <r>     4.9104     0.0001     0.0000     0.0000     0.0000     0.0000     0.0000     0.0000     0.0000     0.0000 </r>
        <r>     4.9894     0.0000     0.0000     0.0000     0.0000     0.0000     0.0000     0.0000     0.0000     0.0000 </r>
        <r>     5.0684     0.0000     0.0000     0.0000     0.0000     0.0000     0.0000     0.0000     0.0000     0.0000 </r>
        <r>     5.1473     0.0000     0.0000     0.0000     0.0000     0.0000     0.0000     0.0000     0.0000     0.0000 </r>
        <r>     5.2263     0.0000     0.0000     0.0000     0.0000     0.0000     0.0000     0.0000     0.0000     0.0000 </r>
        <r>     5.3052     0.0000     0.0000     0.0000     0.0000     0.0000     0.0000     0.0000     0.0000     0.0000 </r>
        <r>     5.3842     0.0000     0.0000     0.0000     0.0000     0.0000     0.0000     0.0000     0.0000     0.0000 </r>
        <r>     5.4632     0.0001     0.0000     0.0002     0.0000     0.0000     0.0000     0.0000     0.0000     0.0000 </r>
        <r>     5.5421     0.0019     0.0000     0.0027     0.0001     0.0000     0.0000     0.0000     0.0000     0.0000 </r>
        <r>     5.6211     0.0008     0.0000     0.0011     0.0000     0.0000     0.0000     0.0000     0.0000     0.0000 </r>
        <r>     5.7000     0.0000     0.0000     0.0000     0.0000     0.0000     0.0000     0.0000     0.0000     0.0000 </r>
        <r>     5.7790     0.0000     0.0000     0.0000     0.0000     0.0000     0.0000     0.0000     0.0000     0.0000 </r>
        <r>     5.8580     0.0000     0.0000     0.0000     0.0000     0.0000     0.0000     0.0000     0.0000     0.0000 </r>
        <r>     5.9369     0.0000     0.0000     0.0000     0.0003     0.0000     0.0000     0.0000     0.0000     0.0000 </r>
        <r>     6.0159     0.0020     0.0014     0.0043     0.0293     0.0000     0.0000     0.0000     0.0000     0.0000 </r>
        <r>     6.0948     0.0044     0.0031     0.0096     0.0647     0.0000     0.0000     0.0000     0.0000     0.0000 </r>
        <r>     6.1738     0.0011     0.0004     0.0012     0.0045     0.0000     0.0000     0.0000     0.0000     0.0000 </r>
        <r>     6.2528     0.0218     0.0043     0.0157     0.0047     0.0000     0.0000     0.0000     0.0000     0.0000 </r>
        <r>     6.3317     0.0166     0.0033     0.0119     0.0036     0.0000     0.0000     0.0000     0.0000     0.0000 </r>
        <r>     6.4107     0.0003     0.0001     0.0002     0.0001     0.0000     0.0000     0.0000     0.0000     0.0000 </r>
        <r>     6.4896     0.0000     0.0000     0.0000     0.0000     0.0000     0.0000     0.0000     0.0000     0.0000 </r>
        <r>     6.5686     0.0000     0.0000     0.0000     0.0000     0.0000     0.0000     0.0000     0.0000     0.0000 </r>
        <r>     6.6476     0.0000     0.0000     0.0000     0.0000     0.0000     0.0000     0.0000     0.0000     0.0000 </r>
        <r>     6.7265     0.0000     0.0000     0.0000     0.0000     0.0000     0.0000     0.0000     0.0000     0.0000 </r>
        <r>     6.8055     0.0000     0.0000     0.0000     0.0000     0.0000     0.0000     0.0000     0.0000     0.0000 </r>
        <r>     6.8844     0.0000     0.0000     0.0000     0.0000     0.0000     0.0000     0.0000     0.0000     0.0000 </r>
        <r>     6.9634     0.0006     0.0004     0.0010     0.0007     0.0000     0.0000     0.0000     0.0000     0.0000 </r>
        <r>     7.0424     0.0019     0.0013     0.0034     0.0024     0.0000     0.0000     0.0000     0.0000     0.0000 </r>
        <r>     7.1213     0.0002     0.0001     0.0004     0.0003     0.0000     0.0000     0.0000     0.0000     0.0000 </r>
        <r>     7.2003     0.0000     0.0000     0.0000     0.0000     0.0000     0.0000     0.0000     0.0000     0.0000 </r>
        <r>     7.2793     0.0000     0.0000     0.0000     0.0000     0.0000     0.0000     0.0000     0.0000     0.0000 </r>
        <r>     7.3582     0.0000     0.0000     0.0000     0.0000     0.0000     0.0000     0.0000     0.0000     0.0000 </r>
        <r>     7.4372     0.0000     0.0000     0.0000     0.0000     0.0000     0.0000     0.0000     0.0000     0.0000 </r>
        <r>     7.5161     0.0000     0.0000     0.0000     0.0000     0.0000     0.0000     0.0000     0.0000     0.0000 </r>
        <r>     7.5951     0.0000     0.0000     0.0000     0.0000     0.0000     0.0000     0.0000     0.0000     0.0000 </r>
        <r>     7.6741     0.0000     0.0000     0.0000     0.0000     0.0000     0.0000     0.0000     0.0000     0.0000 </r>
        <r>     7.7530     0.0000     0.0000     0.0000     0.0000     0.0000     0.0000     0.0000     0.0000     0.0000 </r>
        <r>     7.8320     0.0000     0.0000     0.0000     0.0000     0.0000     0.0000     0.0000     0.0000     0.0000 </r>
        <r>     7.9109     0.0000     0.0000     0.0000     0.0000     0.0000     0.0000     0.0000     0.0000     0.0000 </r>
        <r>     7.9899     0.0000     0.0000     0.0000     0.0000     0.0000     0.0000     0.0000     0.0000     0.0000 </r>
        <r>     8.0689     0.0000     0.0000     0.0000     0.0000     0.0000     0.0000     0.0000     0.0000     0.0000 </r>
       </set>
      </set>
     </set>
    </array>
   </partial>
  </dos>
  <projected>
   <eigenvalues>
    <array>
     <dimension dim="1">band</dimension>
     <dimension dim="2">kpoint</dimension>
     <dimension dim="3">spin</dimension>
     <field>eigene</field>
     <field>occ</field>
     <set>
      <set comment="spin 1">
       <set comment="kpoint 1">
        <r>  -14.5426    1.0000 </r>
        <r>   -5.9944    0.6667 </r>
        <r>   -5.9944    0.6667 </r>
        <r>   -5.9944    0.6667 </r>
        <r>   -0.4849    0.0000 </r>
        <r>    1.0138    0.0000 </r>
        <r>    1.0138    0.0000 </r>
        <r>    1.0141    0.0000 </r>
        <r>    1.1388    0.0000 </r>
        <r>    1.1701    0.0000 </r>
        <r>    1.1701    0.0000 </r>
        <r>    2.3218    0.0000 </r>
        <r>    2.3220    0.0000 </r>
        <r>    2.3224    0.0000 </r>
        <r>    2.5462    0.0000 </r>
        <r>    2.5490    0.0000 </r>
        <r>    2.5501    0.0000 </r>
        <r>    2.7100    0.0000 </r>
        <r>    2.7110    0.0000 </r>
        <r>    2.7448    0.0000 </r>
        <r>    2.7491    0.0000 </r>
        <r>    2.7504    0.0000 </r>
        <r>    2.9500    0.0000 </r>
        <r>    3.9930    0.0000 </r>
        <r>    3.9931    0.0000 </r>
        <r>    3.9932    0.0000 </r>
        <r>    4.0494    0.0000 </r>
        <r>    4.2215    0.0000 </r>
        <r>    4.2286    0.0000 </r>
        <r>    4.2322    0.0000 </r>
        <r>    4.4853    0.0000 </r>
        <r>    4.9838    0.0000 </r>
        <r>    4.9883    0.0000 </r>
        <r>    6.0365    0.0000 </r>
        <r>    6.2906    0.0000 </r>
        <r>    6.8286    0.0000 </r>
       </set>
      </set>
      <set comment="spin 2">
       <set comment="kpoint 1">
        <r>  -11.7834    1.0000 </r>
        <r>   -3.5092    0.0000 </r>
        <r>   -3.5092    0.0000 </r>
        <r>   -3.5092    0.0000 </r>
        <r>   -0.0649    0.0000 </r>
        <r>    1.4529    0.0000 </r>
        <r>    1.4529    0.0000 </r>
        <r>    1.4758    0.0000 </r>
        <r>    1.4760    0.0000 </r>
        <r>    1.4761    0.0000 </r>
        <r>    1.5027    0.0000 </r>
        <r>    2.7811    0.0000 </r>
        <r>    2.7811    0.0000 </r>
        <r>    2.7815    0.0000 </r>
        <r>    2.9397    0.0000 </r>
        <r>    2.9400    0.0000 </r>
        <r>    2.9738    0.0000 </r>
        <r>    2.9780    0.0000 </r>
        <r>    2.9784    0.0000 </r>
        <r>    2.9825    0.0000 </r>
        <r>    2.9868    0.0000 </r>
        <r>    2.9960    0.0000 </r>
        <r>    3.2664    0.0000 </r>
        <r>    4.2869    0.0000 </r>
        <r>    4.2870    0.0000 </r>
        <r>    4.2873    0.0000 </r>
        <r>    4.4117    0.0000 </r>
        <r>    4.5013    0.0000 </r>
        <r>    4.5158    0.0000 </r>
        <r>    4.5332    0.0000 </r>
        <r>    4.7181    0.0000 </r>
        <r>    5.5074    0.0000 </r>
        <r>    5.5222    0.0000 </r>
        <r>    6.0344    0.0000 </r>
        <r>    6.2464    0.0000 </r>
        <r>    6.9921    0.0000 </r>
       </set>
      </set>
     </set>
    </array>
   </eigenvalues>
   <array>
    <dimension dim="1">ion</dimension>
    <dimension dim="2">band</dimension>
    <dimension dim="3">kpoint</dimension>
    <dimension dim="4">spin</dimension>
    <field>    s</field>
    <field>   py</field>
    <field>   pz</field>
    <field>   px</field>
    <field>  dxy</field>
    <field>  dyz</field>
    <field>  dz2</field>
    <field>  dxz</field>
    <field>x2-y2</field>
    <set>
     <set comment="spin1">
      <set comment="kpoint 1">
       <set comment="band 1">
        <r>  0.5409  0.0000  0.0000  0.0000  0.0000  0.0000  0.0000  0.0000  0.0000 </r>
       </set>
       <set comment="band 2">
        <r>  0.0000  0.0969  0.3690  0.0106  0.0000  0.0000  0.0000  0.0000  0.0000 </r>
       </set>
       <set comment="band 3">
        <r>  0.0000  0.3598  0.1058  0.0110  0.0000  0.0000  0.0000  0.0000  0.0000 </r>
       </set>
       <set comment="band 4">
        <r>  0.0000  0.0198  0.0018  0.4549  0.0000  0.0000  0.0000  0.0000  0.0000 </r>
       </set>
       <set comment="band 5">
        <r>  0.0133  0.0000  0.0000  0.0000  0.0000  0.0000  0.0000  0.0000  0.0000 </r>
       </set>
       <set comment="band 6">
        <r>  0.0000  0.0086  0.0122  0.0032  0.0000  0.0000  0.0000  0.0000  0.0000 </r>
       </set>
       <set comment="band 7">
        <r>  0.0000  0.0108  0.0010  0.0123  0.0000  0.0000  0.0000  0.0000  0.0000 </r>
       </set>
       <set comment="band 8">
        <r>  0.0000  0.0047  0.0109  0.0088  0.0000  0.0000  0.0000  0.0000  0.0000 </r>
       </set>
       <set comment="band 9">
        <r>  0.0173  0.0000  0.0000  0.0000  0.0000  0.0000  0.0000  0.0000  0.0000 </r>
       </set>
       <set comment="band 10">
        <r>  0.0000  0.0000  0.0000  0.0000  0.0000  0.0000  0.0000  0.0000  0.0000 </r>
       </set>
       <set comment="band 11">
        <r>  0.0000  0.0000  0.0000  0.0000  0.0000  0.0000  0.0000  0.0000  0.0000 </r>
       </set>
       <set comment="band 12">
        <r>  0.0000  0.0000  0.0000  0.0000  0.0000  0.0000  0.0000  0.0000  0.0000 </r>
       </set>
       <set comment="band 13">
        <r>  0.0000  0.0000  0.0000  0.0000  0.0000  0.0000  0.0000  0.0000  0.0000 </r>
       </set>
       <set comment="band 14">
        <r>  0.0000  0.0000  0.0000  0.0000  0.0000  0.0000  0.0000  0.0000  0.0000 </r>
       </set>
       <set comment="band 15">
        <r>  0.0000  0.0150  0.0093  0.0002  0.0000  0.0000  0.0000  0.0000  0.0000 </r>
       </set>
       <set comment="band 16">
        <r>  0.0000  0.0008  0.0001  0.0230  0.0000  0.0000  0.0000  0.0000  0.0000 </r>
       </set>
       <set comment="band 17">
        <r>  0.0000  0.0085  0.0149  0.0005  0.0000  0.0000  0.0000  0.0000  0.0000 </r>
       </set>
       <set comment="band 18">
        <r>  0.0000  0.0000  0.0000  0.0000  0.0000  0.0000  0.0000  0.0000  0.0000 </r>
       </set>
       <set comment="band 19">
        <r>  0.0000  0.0000  0.0000  0.0000  0.0000  0.0000  0.0000  0.0000  0.0000 </r>
       </set>
       <set comment="band 20">
        <r>  0.0001  0.0002  0.0001  0.0003  0.0000  0.0000  0.0000  0.0000  0.0000 </r>
       </set>
       <set comment="band 21">
        <r>  0.0000  0.0000  0.0000  0.0001  0.0000  0.0000  0.0000  0.0000  0.0000 </r>
       </set>
       <set comment="band 22">
        <r>  0.0000  0.0000  0.0001  0.0000  0.0000  0.0000  0.0000  0.0000  0.0000 </r>
       </set>
       <set comment="band 23">
        <r>  0.0183  0.0000  0.0000  0.0000  0.0000  0.0000  0.0000  0.0000  0.0000 </r>
       </set>
       <set comment="band 24">
        <r>  0.0000  0.0000  0.0000  0.0000  0.0000  0.0000  0.0000  0.0000  0.0000 </r>
       </set>
       <set comment="band 25">
        <r>  0.0000  0.0000  0.0000  0.0000  0.0000  0.0000  0.0000  0.0000  0.0000 </r>
       </set>
       <set comment="band 26">
        <r>  0.0000  0.0000  0.0000  0.0000  0.0000  0.0000  0.0000  0.0000  0.0000 </r>
       </set>
       <set comment="band 27">
        <r>  0.0000  0.0000  0.0000  0.0007  0.0000  0.0000  0.0000  0.0000  0.0000 </r>
       </set>
       <set comment="band 28">
        <r>  0.0001  0.0007  0.0027  0.0051  0.0000  0.0000  0.0000  0.0000  0.0000 </r>
       </set>
       <set comment="band 29">
        <r>  0.0001  0.0063  0.0024  0.0001  0.0000  0.0000  0.0000  0.0000  0.0000 </r>
       </set>
       <set comment="band 30">
        <r>  0.0000  0.0019  0.0039  0.0033  0.0000  0.0000  0.0000  0.0000  0.0000 </r>
       </set>
       <set comment="band 31">
        <r>  0.0077  0.0000  0.0001  0.0000  0.0000  0.0000  0.0000  0.0000  0.0000 </r>
       </set>
       <set comment="band 32">
        <r>  0.0000  0.0000  0.0001  0.0000  0.0000  0.0000  0.0000  0.0000  0.0000 </r>
       </set>
       <set comment="band 33">
        <r>  0.0000  0.0000  0.0000  0.0000  0.0000  0.0000  0.0000  0.0000  0.0000 </r>
       </set>
       <set comment="band 34">
        <r>  0.0025  0.0003  0.0003  0.0021  0.0000  0.0000  0.0000  0.0000  0.0000 </r>
       </set>
       <set comment="band 35">
        <r>  0.0003  0.0010  0.0001  0.0001  0.0000  0.0000  0.0000  0.0000  0.0000 </r>
       </set>
       <set comment="band 36">
        <r>  0.0001  0.0009  0.0005  0.0000  0.0000  0.0000  0.0000  0.0000  0.0000 </r>
       </set>
      </set>
     </set>
     <set comment="spin2">
      <set comment="kpoint 1">
       <set comment="band 1">
        <r>  0.5057  0.0000  0.0000  0.0000  0.0000  0.0000  0.0000  0.0000  0.0000 </r>
       </set>
       <set comment="band 2">
        <r>  0.0000  0.0036  0.2001  0.2200  0.0000  0.0000  0.0000  0.0000  0.0000 </r>
       </set>
       <set comment="band 3">
        <r>  0.0000  0.1056  0.1832  0.1347  0.0000  0.0000  0.0000  0.0000  0.0000 </r>
       </set>
       <set comment="band 4">
        <r>  0.0000  0.3143  0.0402  0.0689  0.0000  0.0000  0.0000  0.0000  0.0000 </r>
       </set>
       <set comment="band 5">
        <r>  0.0083  0.0000  0.0000  0.0000  0.0000  0.0000  0.0000  0.0000  0.0000 </r>
       </set>
       <set comment="band 6">
        <r>  0.0000  0.0000  0.0000  0.0000  0.0000  0.0000  0.0000  0.0000  0.0000 </r>
       </set>
       <set comment="band 7">
        <r>  0.0000  0.0000  0.0000  0.0000  0.0000  0.0000  0.0000  0.0000  0.0000 </r>
       </set>
       <set comment="band 8">
        <r>  0.0000  0.0002  0.0108  0.0095  0.0000  0.0000  0.0000  0.0000  0.0000 </r>
       </set>
       <set comment="band 9">
        <r>  0.0001  0.0154  0.0031  0.0020  0.0000  0.0000  0.0000  0.0000  0.0000 </r>
       </set>
       <set comment="band 10">
        <r>  0.0001  0.0051  0.0063  0.0089  0.0000  0.0000  0.0000  0.0000  0.0000 </r>
       </set>
       <set comment="band 11">
        <r>  0.0171  0.0000  0.0001  0.0001  0.0000  0.0000  0.0000  0.0000  0.0000 </r>
       </set>
       <set comment="band 12">
        <r>  0.0000  0.0000  0.0000  0.0000  0.0000  0.0000  0.0000  0.0000  0.0000 </r>
       </set>
       <set comment="band 13">
        <r>  0.0000  0.0000  0.0000  0.0000  0.0000  0.0000  0.0000  0.0000  0.0000 </r>
       </set>
       <set comment="band 14">
        <r>  0.0000  0.0000  0.0000  0.0000  0.0000  0.0000  0.0000  0.0000  0.0000 </r>
       </set>
       <set comment="band 15">
        <r>  0.0000  0.0000  0.0000  0.0000  0.0000  0.0000  0.0000  0.0000  0.0000 </r>
       </set>
       <set comment="band 16">
        <r>  0.0000  0.0002  0.0000  0.0000  0.0000  0.0000  0.0000  0.0000  0.0000 </r>
       </set>
       <set comment="band 17">
        <r>  0.0000  0.0028  0.0202  0.0043  0.0000  0.0000  0.0000  0.0000  0.0000 </r>
       </set>
       <set comment="band 18">
        <r>  0.0000  0.0082  0.0012  0.0128  0.0000  0.0000  0.0000  0.0000  0.0000 </r>
       </set>
       <set comment="band 19">
        <r>  0.0000  0.0215  0.0001  0.0004  0.0000  0.0000  0.0000  0.0000  0.0000 </r>
       </set>
       <set comment="band 20">
        <r>  0.0000  0.0002  0.0082  0.0086  0.0000  0.0000  0.0000  0.0000  0.0000 </r>
       </set>
       <set comment="band 21">
        <r>  0.0000  0.0011  0.0038  0.0068  0.0000  0.0000  0.0000  0.0000  0.0000 </r>
       </set>
       <set comment="band 22">
        <r>  0.0000  0.0000  0.0005  0.0008  0.0000  0.0000  0.0000  0.0000  0.0000 </r>
       </set>
       <set comment="band 23">
        <r>  0.0207  0.0000  0.0000  0.0000  0.0000  0.0000  0.0000  0.0000  0.0000 </r>
       </set>
       <set comment="band 24">
        <r>  0.0000  0.0000  0.0000  0.0000  0.0000  0.0000  0.0000  0.0000  0.0000 </r>
       </set>
       <set comment="band 25">
        <r>  0.0000  0.0000  0.0000  0.0000  0.0000  0.0000  0.0000  0.0000  0.0000 </r>
       </set>
       <set comment="band 26">
        <r>  0.0000  0.0000  0.0000  0.0000  0.0000  0.0000  0.0000  0.0000  0.0000 </r>
       </set>
       <set comment="band 27">
        <r>  0.0000  0.0011  0.0004  0.0002  0.0000  0.0000  0.0000  0.0000  0.0000 </r>
       </set>
       <set comment="band 28">
        <r>  0.0000  0.0063  0.0024  0.0057  0.0000  0.0000  0.0000  0.0000  0.0000 </r>
       </set>
       <set comment="band 29">
        <r>  0.0006  0.0069  0.0031  0.0034  0.0000  0.0000  0.0000  0.0000  0.0000 </r>
       </set>
       <set comment="band 30">
        <r>  0.0008  0.0000  0.0073  0.0061  0.0000  0.0000  0.0000  0.0000  0.0000 </r>
       </set>
       <set comment="band 31">
        <r>  0.0099  0.0003  0.0016  0.0001  0.0000  0.0000  0.0000  0.0000  0.0000 </r>
       </set>
       <set comment="band 32">
        <r>  0.0000  0.0000  0.0000  0.0000  0.0000  0.0000  0.0000  0.0000  0.0000 </r>
       </set>
       <set comment="band 33">
        <r>  0.0002  0.0000  0.0003  0.0000  0.0000  0.0000  0.0000  0.0000  0.0000 </r>
       </set>
       <set comment="band 34">
        <r>  0.0005  0.0004  0.0012  0.0078  0.0000  0.0000  0.0000  0.0000  0.0000 </r>
       </set>
       <set comment="band 35">
        <r>  0.0031  0.0006  0.0022  0.0007  0.0000  0.0000  0.0000  0.0000  0.0000 </r>
       </set>
       <set comment="band 36">
        <r>  0.0002  0.0001  0.0004  0.0003  0.0000  0.0000  0.0000  0.0000  0.0000 </r>
       </set>
      </set>
     </set>
    </set>
   </array>
  </projected>
 </calculation>
 <structure name="finalpos" >
  <crystal>
   <varray name="basis" >
    <v>      10.00000000       0.00000000       0.00000000 </v>
    <v>       0.00000000      10.00000000       0.00000000 </v>
    <v>       0.00000000       0.00000000      10.00000000 </v>
   </varray>
   <i name="volume">   1000.00000000 </i>
   <varray name="rec_basis" >
    <v>       0.10000000       0.00000000       0.00000000 </v>
    <v>       0.00000000       0.10000000       0.00000000 </v>
    <v>       0.00000000       0.00000000       0.10000000 </v>
   </varray>
  </crystal>
  <varray name="positions" >
   <v>       0.50000000       0.50000000       0.50000000 </v>
  </varray>
 </structure>
</modeling>
