       N       E                     dE             d eps       ncg     rms          ort
DAV:   1     0.437277790416E+02    0.43728E+02   -0.18253E+03    36   0.129E+02
DAV:   2     0.298822444517E+02   -0.13846E+02   -0.13812E+02    36   0.186E+01
DAV:   3     0.223308528524E+02   -0.75514E+01   -0.73698E+01    36   0.566E+00
DAV:   4     0.905824560917E+01   -0.13273E+02   -0.12463E+02    36   0.143E+01
DAV:   5     0.298834931798E+01   -0.60699E+01   -0.60675E+01    36   0.987E+00
SDA:   6     0.359941088210E+01    0.61106E+00   -0.54223E+01    36   0.136E+02 0.000E+00
DMP:   7     0.577481894142E+00   -0.30219E+01   -0.75328E+00    36   0.121E+01 0.175E+01
DMP:   8     0.310779467410E+00   -0.26670E+00   -0.35435E+00    36   0.118E+01-0.776E+00
DMP:   9     0.747638546438E-01   -0.23602E+00   -0.19267E+00    36   0.394E+00 0.229E+00
DMP:  10    -0.109135585865E-01   -0.85677E-01   -0.22509E-01    36   0.821E-01-0.676E-01
DMP:  11    -0.175001281139E-01   -0.65866E-02   -0.31979E-01    36   0.912E-01-0.294E-01
DMP:  12    -0.405311398578E-01   -0.23031E-01   -0.15592E-01    36   0.260E-01 0.341E-01
DMP:  13    -0.498309919799E-01   -0.92999E-02   -0.44516E-02    36   0.790E-02 0.844E-02
DMP:  14    -0.552611181412E-01   -0.54301E-02   -0.10929E-01    36   0.196E-01 0.203E-01
DMP:  15    -0.831878529942E-01   -0.27927E-01   -0.11238E+00    36   0.226E+00 0.143E+00
DMP:  16    -0.443664605597E+00   -0.36048E+00   -0.18949E+01    36   0.418E+01 0.147E+01
DMP:  17    -0.880923751151E+00   -0.43726E+00   -0.95598E-02    36   0.173E-01 0.172E-01
DMP:  18    -0.888800054565E+00   -0.78763E-02   -0.58757E-02    36   0.876E-02 0.155E-01
DMP:  19    -0.897505902149E+00   -0.87058E-02   -0.98638E-02    36   0.813E-02 0.433E-01
DMP:  20    -0.906515301946E+00   -0.90094E-02   -0.32315E-02    36   0.291E-02 0.135E-01
DMP:  21    -0.908347980900E+00   -0.18327E-02   -0.68458E-03    36   0.136E-02 0.918E-03
DMP:  22    -0.908736564941E+00   -0.38858E-03   -0.43923E-03    36   0.101E-02 0.235E-03
DMP:  23    -0.909092227797E+00   -0.35566E-03   -0.38942E-03    36   0.714E-03 0.680E-03
DMP:  24    -0.909429713264E+00   -0.33749E-03   -0.28614E-03    36   0.443E-03 0.713E-03
DMP:  25    -0.909676995882E+00   -0.24728E-03   -0.17828E-03    36   0.247E-03 0.520E-03
DMP:  26    -0.909829273140E+00   -0.15228E-03   -0.98771E-04    36   0.127E-03 0.315E-03
DMP:  27    -0.909912671154E+00   -0.83398E-04   -0.50122E-04    36   0.606E-04 0.169E-03
DMP:  28    -0.909954586262E+00   -0.41915E-04   -0.23746E-04    36   0.274E-04 0.838E-04
   1 F= -.90995459E+00 E0= -.89067791E+00  d E =-.909955E+00  mag=    -2.0000
