       N       E                     dE             d eps       ncg     rms          ort
DAV:   1     0.183125805893E+03    0.18313E+03   -0.31848E+03    36   0.240E+02
DAV:   2     0.498786960508E+02   -0.13325E+03   -0.13324E+03    36   0.279E+01
DAV:   3     0.219717053452E+01   -0.47682E+02   -0.47655E+02    36   0.579E+01
DAV:   4    -0.134324131241E+01   -0.35404E+01   -0.35404E+01    36   0.166E+01
DAV:   5    -0.190750629806E+01   -0.56426E+00   -0.56328E+00    36   0.514E+00
SDA:   6    -0.133316990730E+01    0.57434E+00   -0.90316E+00    36   0.226E+01 0.000E+00
DMP:   7    -0.184320604481E+01   -0.51004E+00   -0.38474E+00    36   0.867E+00 0.247E+00
DMP:   8    -0.202412643383E+01   -0.18092E+00   -0.13325E+00    36   0.371E+00-0.996E-01
DMP:   9    -0.207414277193E+01   -0.50016E-01   -0.10715E+00    36   0.306E+00-0.100E+00
DMP:  10    -0.210882907582E+01   -0.34686E-01   -0.68097E-01    36   0.208E+00-0.980E-01
DMP:  11    -0.213320420250E+01   -0.24375E-01   -0.25710E-01    36   0.832E-01-0.495E-01
DMP:  12    -0.214603894317E+01   -0.12835E-01   -0.82463E-02    36   0.208E-01-0.600E-03
DMP:  13    -0.215232777201E+01   -0.62888E-02   -0.51400E-02    36   0.880E-02 0.106E-01
DMP:  14    -0.215624437929E+01   -0.39166E-02   -0.33989E-02    36   0.597E-02 0.661E-02
DMP:  15    -0.215909402801E+01   -0.28496E-02   -0.20313E-02    36   0.291E-02 0.568E-02
DMP:  16    -0.216099384449E+01   -0.18998E-02   -0.15740E-02    36   0.222E-02 0.448E-02
DMP:  17    -0.216285956774E+01   -0.18657E-02   -0.20819E-02    36   0.288E-02 0.609E-02
DMP:  18    -0.216631859321E+01   -0.34590E-02   -0.43595E-02    36   0.575E-02 0.135E-01
DMP:  19    -0.217266018439E+01   -0.63416E-02   -0.64039E-02    36   0.795E-02 0.211E-01
DMP:  20    -0.218005974829E+01   -0.73996E-02   -0.58241E-02    36   0.686E-02 0.202E-01
DMP:  21    -0.218578855880E+01   -0.57288E-02   -0.37364E-02    36   0.420E-02 0.134E-01
DMP:  22    -0.218913500662E+01   -0.33464E-02   -0.19251E-02    36   0.208E-02 0.715E-02
DMP:  23    -0.219077191145E+01   -0.16369E-02   -0.86656E-03    36   0.903E-03 0.331E-02
DMP:  24    -0.219148727667E+01   -0.71537E-03   -0.35712E-03    36   0.360E-03 0.140E-02
DMP:  25    -0.219177663167E+01   -0.28935E-03   -0.13789E-03    36   0.134E-03 0.551E-03
DMP:  26    -0.219188681851E+01   -0.11019E-03   -0.50402E-04    36   0.474E-04 0.206E-03
DMP:  27    -0.219192659786E+01   -0.39779E-04   -0.17486E-04    36   0.158E-04 0.730E-04
   1 F= -.21919266E+01 E0= -.21778244E+01  d E =-.219193E+01  mag=     1.0000
