<?xml version="1.0" encoding="ISO-8859-1"?>
<modeling>
 <generator>
  <i name="program" type="string">vasp </i>
  <i name="version" type="string">5.4.4.18Apr17-6-g9f103f2a35  </i>
  <i name="subversion" type="string">(build Nov 08 2019 15:19:53) gamma-only         parallel </i>
  <i name="platform" type="string">LinuxIFC </i>
  <i name="date" type="string">2020 11 30 </i>
  <i name="time" type="string">09:31:19 </i>
 </generator>
 <incar>
  <i type="string" name="PREC">accurate</i>
  <i type="string" name="ALGO"> D</i>
  <i type="int" name="ISPIN">     2</i>
  <i type="int" name="NELM">   300</i>
  <i type="int" name="IBRION">     2</i>
  <i name="EDIFF">      0.00005000</i>
  <i type="int" name="NSW">    99</i>
  <i type="int" name="ISIF">     2</i>
  <i name="ENCUT">    520.00000000</i>
  <v name="MAGMOM">      0.60000000</v>
  <i type="string" name="LREAL"> Auto</i>
  <i type="int" name="ISMEAR">     0</i>
  <i name="SIGMA">      0.05000000</i>
  <i type="logical" name="LWAVE"> F  </i>
  <i type="int" name="LORBIT">    11</i>
  <i type="logical" name="LASPH"> T  </i>
  <v type="int" name="KPOINT_BSE">    -1     0     0     0</v>
  <i type="int" name="NELM">   300</i>
  <i type="logical" name="LASPH"> T  </i>
 </incar>
 <structure name="primitive_cell" >
  <crystal>
   <varray name="basis" >
    <v>      10.00000000       0.00000000       0.00000000 </v>
    <v>       0.00000000      10.00000000       0.00000000 </v>
    <v>       0.00000000       0.00000000      10.00000000 </v>
   </varray>
   <i name="volume">   1000.00000000 </i>
   <varray name="rec_basis" >
    <v>       0.10000000       0.00000000       0.00000000 </v>
    <v>       0.00000000       0.10000000       0.00000000 </v>
    <v>       0.00000000       0.00000000       0.10000000 </v>
   </varray>
  </crystal>
  <varray name="positions" >
   <v>      -0.50000000      -0.50000000      -0.50000000 </v>
  </varray>
 </structure>
 <varray name="primitive_index" >
  <v type="int" >        1 </v>
 </varray>
 <kpoints>
  <generation param="Gamma">
   <v type="int" name="divisions">       1        1        1 </v>
   <v name="usershift">      0.00000000       0.00000000       0.00000000 </v>
   <v name="genvec1">      1.00000000       0.00000000       0.00000000 </v>
   <v name="genvec2">      0.00000000       1.00000000       0.00000000 </v>
   <v name="genvec3">      0.00000000       0.00000000       1.00000000 </v>
   <v name="shift">      0.00000000       0.00000000       0.00000000 </v>
  </generation>
  <varray name="kpointlist" >
   <v>       0.00000000       0.00000000       0.00000000 </v>
  </varray>
  <varray name="weights" >
   <v>       1.00000000 </v>
  </varray>
 </kpoints>
 <parameters>
  <separator name="general" >
   <i type="string" name="SYSTEM">unknown system</i>
   <i type="logical" name="LCOMPAT"> F  </i>
  </separator>
  <separator name="electronic" >
   <i type="string" name="PREC">accura</i>
   <i name="ENMAX">    520.00000000</i>
   <i name="ENAUG">    470.88900000</i>
   <i name="EDIFF">      0.00005000</i>
   <i type="int" name="IALGO">    53</i>
   <i type="int" name="IWAVPR">    11</i>
   <i type="int" name="NBANDS">    36</i>
   <i name="NELECT">     11.00000000</i>
   <i type="int" name="TURBO">     0</i>
   <i type="int" name="IRESTART">     0</i>
   <i type="int" name="NREBOOT">     0</i>
   <i type="int" name="NMIN">     0</i>
   <i name="EREF">      0.00000000</i>
   <separator name="electronic smearing" >
    <i type="int" name="ISMEAR">     0</i>
    <i name="SIGMA">      0.05000000</i>
    <i name="KSPACING">      0.50000000</i>
    <i type="logical" name="KGAMMA"> T  </i>
   </separator>
   <separator name="electronic projectors" >
    <i type="logical" name="LREAL"> T  </i>
    <v name="ROPT">     -0.00025000</v>
    <i type="int" name="LMAXPAW">  -100</i>
    <i type="int" name="LMAXMIX">     2</i>
    <i type="logical" name="NLSPLINE"> F  </i>
   </separator>
   <separator name="electronic startup" >
    <i type="int" name="ISTART">     0</i>
    <i type="int" name="ICHARG">     2</i>
    <i type="int" name="INIWAV">     1</i>
   </separator>
   <separator name="electronic spin" >
    <i type="int" name="ISPIN">     2</i>
    <i type="logical" name="LNONCOLLINEAR"> F  </i>
    <v name="MAGMOM">      0.60000000</v>
    <i name="NUPDOWN">     -1.00000000</i>
    <i type="logical" name="LSORBIT"> F  </i>
    <v name="SAXIS">      0.00000000      0.00000000      1.00000000</v>
    <i type="logical" name="LSPIRAL"> F  </i>
    <v name="QSPIRAL">      0.00000000      0.00000000      0.00000000</v>
    <i type="logical" name="LZEROZ"> F  </i>
   </separator>
   <separator name="electronic exchange-correlation" >
    <i type="logical" name="LASPH"> T  </i>
    <i type="logical" name="LMETAGGA"> F  </i>
   </separator>
   <separator name="electronic convergence" >
    <i type="int" name="NELM">   300</i>
    <i type="int" name="NELMDL">    -5</i>
    <i type="int" name="NELMIN">     2</i>
    <i name="ENINI">    520.00000000</i>
    <separator name="electronic convergence detail" >
     <i type="logical" name="LDIAG"> T  </i>
     <i type="logical" name="LSUBROT"> F  </i>
     <i name="WEIMIN">      0.00100000</i>
     <i name="EBREAK">      0.00000035</i>
     <i name="DEPER">      0.30000000</i>
     <i type="int" name="NRMM">     4</i>
     <i name="TIME">      0.40000000</i>
    </separator>
   </separator>
   <separator name="electronic mixer" >
    <i name="AMIX">      0.40000000</i>
    <i name="BMIX">      1.00000000</i>
    <i name="AMIN">      0.10000000</i>
    <i name="AMIX_MAG">      1.60000000</i>
    <i name="BMIX_MAG">      1.00000000</i>
    <separator name="electronic mixer details" >
     <i type="int" name="IMIX">     4</i>
     <i type="logical" name="MIXFIRST"> F  </i>
     <i type="int" name="MAXMIX">   -45</i>
     <i name="WC">    100.00000000</i>
     <i type="int" name="INIMIX">     1</i>
     <i type="int" name="MIXPRE">     1</i>
     <i type="int" name="MREMOVE">     5</i>
    </separator>
   </separator>
   <separator name="electronic dipolcorrection" >
    <i type="logical" name="LDIPOL"> F  </i>
    <i type="logical" name="LMONO"> F  </i>
    <i type="int" name="IDIPOL">     0</i>
    <i name="EPSILON">      1.00000000</i>
    <v name="DIPOL">   -100.00000000   -100.00000000   -100.00000000</v>
    <i name="EFIELD">      0.00000000</i>
   </separator>
  </separator>
  <separator name="grids" >
   <i type="int" name="NGX">    80</i>
   <i type="int" name="NGY">    80</i>
   <i type="int" name="NGZ">    80</i>
   <i type="int" name="NGXF">   160</i>
   <i type="int" name="NGYF">   160</i>
   <i type="int" name="NGZF">   160</i>
   <i type="logical" name="ADDGRID"> F  </i>
  </separator>
  <separator name="ionic" >
   <i type="int" name="NSW">    99</i>
   <i type="int" name="IBRION">     2</i>
   <i type="int" name="MDALGO">     0</i>
   <i type="int" name="ISIF">     2</i>
   <i name="PSTRESS">      0.00000000</i>
   <i name="EDIFFG">      0.00050000</i>
   <i type="int" name="NFREE">     1</i>
   <i name="POTIM">      0.50000000</i>
   <i name="SMASS">     -3.00000000</i>
   <i name="SCALEE">      1.00000000</i>
  </separator>
  <separator name="ionic md" >
   <i name="TEBEG">      0.00010000</i>
   <i name="TEEND">      0.00010000</i>
   <i type="int" name="NBLOCK">     1</i>
   <i type="int" name="KBLOCK">    99</i>
   <i type="int" name="NPACO">   256</i>
   <i name="APACO">     16.00000000</i>
  </separator>
  <separator name="symmetry" >
   <i type="int" name="ISYM">     2</i>
   <i name="SYMPREC">      0.00001000</i>
  </separator>
  <separator name="dos" >
   <i type="int" name="LORBIT">    11</i>
   <v name="RWIGS">     -1.00000000</v>
   <i type="int" name="NEDOS">   301</i>
   <i name="EMIN">     10.00000000</i>
   <i name="EMAX">    -10.00000000</i>
   <i name="EFERMI">      0.00000000</i>
  </separator>
  <separator name="writing" >
   <i type="int" name="NWRITE">     2</i>
   <i type="logical" name="LWAVE"> F  </i>
   <i type="logical" name="LDOWNSAMPLE"> F  </i>
   <i type="logical" name="LCHARG"> T  </i>
   <i type="logical" name="LPARD"> F  </i>
   <i type="logical" name="LVTOT"> F  </i>
   <i type="logical" name="LVHAR"> F  </i>
   <i type="logical" name="LELF"> F  </i>
   <i type="logical" name="LOPTICS"> F  </i>
   <v name="STM">      0.00000000      0.00000000      0.00000000      0.00000000      0.00000000      0.00000000      0.00000000</v>
  </separator>
  <separator name="performance" >
   <i type="int" name="NPAR">    36</i>
   <i type="int" name="NSIM">     4</i>
   <i type="int" name="NBLK">    -1</i>
   <i type="logical" name="LPLANE"> T  </i>
   <i type="logical" name="LSCALAPACK"> T  </i>
   <i type="logical" name="LSCAAWARE"> F  </i>
   <i type="logical" name="LSCALU"> F  </i>
   <i type="logical" name="LASYNC"> F  </i>
   <i type="logical" name="LORBITALREAL"> F  </i>
  </separator>
  <separator name="miscellaneous" >
   <i type="int" name="IDIOT">     3</i>
   <i type="int" name="ISPECIAL">     0</i>
   <i type="logical" name="LMUSIC"> F  </i>
   <v name="POMASS">     88.90600000</v>
   <v name="DARWINR">      0.00000000</v>
   <v name="DARWINV">      1.00000000</v>
   <i type="logical" name="LCORR"> T  </i>
  </separator>
  <i type="logical" name="GGA_COMPAT"> T  </i>
  <i type="logical" name="LBERRY"> F  </i>
  <i type="int" name="ICORELEVEL">     0</i>
  <i type="logical" name="LDAU"> F  </i>
  <i type="int" name="I_CONSTRAINED_M">     0</i>
  <separator name="electronic exchange-correlation" >
   <i type="string" name="GGA">--</i>
   <i type="int" name="VOSKOWN">     0</i>
   <i type="logical" name="LHFCALC"> F  </i>
   <i type="string" name="PRECFOCK"></i>
   <i type="logical" name="LSYMGRAD"> F  </i>
   <i type="logical" name="LHFONE"> F  </i>
   <i type="logical" name="LRHFCALC"> F  </i>
   <i type="logical" name="LTHOMAS"> F  </i>
   <i type="logical" name="LMODELHF"> F  </i>
   <i name="ENCUT4O">     -1.00000000</i>
   <i type="int" name="EXXOEP">     0</i>
   <i type="int" name="FOURORBIT">     0</i>
   <i name="AEXX">      0.00000000</i>
   <i name="HFALPHA">      0.00000000</i>
   <i name="MCALPHA">      0.00000000</i>
   <i name="ALDAX">      1.00000000</i>
   <i name="AGGAX">      1.00000000</i>
   <i name="ALDAC">      1.00000000</i>
   <i name="AGGAC">      1.00000000</i>
   <i type="int" name="NKREDX">     1</i>
   <i type="int" name="NKREDY">     1</i>
   <i type="int" name="NKREDZ">     1</i>
   <i type="logical" name="SHIFTRED"> F  </i>
   <i type="logical" name="ODDONLY"> F  </i>
   <i type="logical" name="EVENONLY"> F  </i>
   <i type="int" name="LMAXFOCK">     0</i>
   <i type="int" name="NMAXFOCKAE">     0</i>
   <i type="logical" name="LFOCKAEDFT"> F  </i>
   <i name="HFSCREEN">      0.00000000</i>
   <i name="HFSCREENC">      0.00000000</i>
   <i type="int" name="NBANDSGWLOW">     0</i>
  </separator>
  <separator name="vdW DFT" >
   <i type="logical" name="LUSE_VDW"> F  </i>
   <i name="Zab_VDW">     -0.84910000</i>
   <i name="PARAM1">      0.12340000</i>
   <i name="PARAM2">      1.00000000</i>
   <i name="PARAM3">      0.00000000</i>
  </separator>
  <separator name="model GW" >
   <i type="int" name="MODEL_GW">     0</i>
   <i name="MODEL_EPS0">    600.00000000</i>
   <i name="MODEL_ALPHA">      1.00000000</i>
  </separator>
  <separator name="linear response parameters" >
   <i type="logical" name="LEPSILON"> F  </i>
   <i type="logical" name="LRPA"> F  </i>
   <i type="logical" name="LNABLA"> F  </i>
   <i type="logical" name="LVEL"> F  </i>
   <i type="int" name="KINTER">     0</i>
   <i name="CSHIFT">      0.10000000</i>
   <i name="OMEGAMAX">     -1.00000000</i>
   <i name="DEG_THRESHOLD">      0.00200000</i>
   <i name="RTIME">     -0.10000000</i>
   <i name="WPLASMAI">      0.00000000</i>
   <v name="DFIELD">      0.00000000      0.00000000      0.00000000</v>
   <v name="WPLASMA">      0.00000000      0.00000000      0.00000000      0.00000000      0.00000000      0.00000000      0.00000000      0.00000000      0.00000000</v>
  </separator>
  <separator name="orbital magnetization" >
   <i type="logical" name="NUCIND"> F  </i>
   <v name="MAGPOS">      0.00000000      0.00000000      0.00000000</v>
   <i type="logical" name="LNICSALL"> T  </i>
   <i type="logical" name="ORBITALMAG"> F  </i>
   <i type="logical" name="LMAGBLOCH"> F  </i>
   <i type="logical" name="LCHIMAG"> F  </i>
   <i type="logical" name="LGAUGE"> T  </i>
   <i type="int" name="MAGATOM">     0</i>
   <v name="MAGDIPOL">      0.00000000      0.00000000      0.00000000</v>
   <v name="AVECCONST">      0.00000000      0.00000000      0.00000000</v>
  </separator>
  <separator name="response functions" >
   <i type="logical" name="LADDER"> F  </i>
   <i type="logical" name="LRPAFORCE"> F  </i>
   <i type="logical" name="LFXC"> F  </i>
   <i type="logical" name="LHARTREE"> T  </i>
   <i type="int" name="IBSE">     0</i>
   <v type="int" name="KPOINT">    -1     0     0     0</v>
   <i type="logical" name="LTCTE"> F  </i>
   <i type="logical" name="LTETE"> F  </i>
   <i type="logical" name="LTRIPLET"> F  </i>
   <i type="logical" name="LFXCEPS"> F  </i>
   <i type="logical" name="LFXHEG"> F  </i>
   <i type="int" name="NATURALO">     2</i>
   <i type="logical" name="L2ORDER"> F  </i>
   <i type="logical" name="LMP2LT"> F  </i>
   <i type="logical" name="LUSEW"> F  </i>
   <i name="ENCUTGW">     -2.00000000</i>
   <i name="ENCUTGWSOFT">     -2.00000000</i>
   <i name="ENCUTLF">     -1.00000000</i>
   <i type="int" name="LMAXMP2">    -1</i>
   <i name="SCISSOR">      0.00000000</i>
   <i type="int" name="NOMEGA">     0</i>
   <i type="int" name="NOMEGAR">     0</i>
   <i type="int" name="NBANDSGW">    -1</i>
   <i type="int" name="NBANDSO">    -1</i>
   <i type="int" name="NBANDSV">    -1</i>
   <i type="int" name="NELM">   300</i>
   <i type="int" name="NELMHF">     1</i>
   <i type="int" name="DIM">     3</i>
   <i type="int" name="ANTIRES">     0</i>
   <i name="OMEGAMAX">    -30.00000000</i>
   <i name="OMEGAMIN">    -30.00000000</i>
   <i name="OMEGATL">   -200.00000000</i>
   <i type="int" name="OMEGAGRID">   140</i>
   <i name="CSHIFT">     -0.10000000</i>
   <i type="logical" name="SELFENERGY"> F  </i>
   <i type="logical" name="LSPECTRAL"> F  </i>
   <i type="logical" name="LSPECTRALGW"> F  </i>
   <i type="logical" name="LSINGLES"> F  </i>
   <i type="logical" name="LFERMIGW"> F  </i>
   <i type="logical" name="ODDONLYGW"> F  </i>
   <i type="logical" name="EVENONLYGW"> F  </i>
   <i type="int" name="NKREDLFX">     1</i>
   <i type="int" name="NKREDLFY">     1</i>
   <i type="int" name="NKREDLFZ">     1</i>
   <i type="int" name="MAXMEM">  2800</i>
   <i type="int" name="TELESCOPE">     0</i>
   <i type="int" name="TAUPAR">     1</i>
   <i type="int" name="OMEGAPAR">    -1</i>
   <i name="LAMBDA">      1.00000000</i>
  </separator>
  <separator name="External order field" >
   <i name="OFIELD_KAPPA">      0.00000000</i>
   <v name="OFIELD_K">      0.00000000      0.00000000      0.00000000</v>
   <i name="OFIELD_Q6_NEAR">      0.00000000</i>
   <i name="OFIELD_Q6_FAR">      0.00000000</i>
   <i name="OFIELD_A">      0.00000000</i>
  </separator>
 </parameters>
 <atominfo>
  <atoms>       1 </atoms>
  <types>       1 </types>
  <array name="atoms" >
   <dimension dim="1">ion</dimension>
   <field type="string">element</field>
   <field type="int">atomtype</field>
   <set>
    <rc><c>Y </c><c>   1</c></rc>
   </set>
  </array>
  <array name="atomtypes" >
   <dimension dim="1">type</dimension>
   <field type="int">atomspertype</field>
   <field type="string">element</field>
   <field>mass</field>
   <field>valence</field>
   <field type="string">pseudopotential</field>
   <set>
    <rc><c>   1</c><c>Y </c><c>     88.90600000</c><c>     11.00000000</c><c>  PAW_PBE Y_sv 25May2007                </c></rc>
   </set>
  </array>
 </atominfo>
 <structure name="initialpos" >
  <crystal>
   <varray name="basis" >
    <v>      10.00000000       0.00000000       0.00000000 </v>
    <v>       0.00000000      10.00000000       0.00000000 </v>
    <v>       0.00000000       0.00000000      10.00000000 </v>
   </varray>
   <i name="volume">   1000.00000000 </i>
   <varray name="rec_basis" >
    <v>       0.10000000       0.00000000       0.00000000 </v>
    <v>       0.00000000       0.10000000       0.00000000 </v>
    <v>       0.00000000       0.00000000       0.10000000 </v>
   </varray>
  </crystal>
  <varray name="positions" >
   <v>       0.50000000       0.50000000       0.50000000 </v>
  </varray>
 </structure>
 <calculation>
  <scstep>
   <time name="total">    1.26    1.26</time>
   <energy>
    <i name="alphaZ">      2.26080239 </i>
    <i name="ewald">   -247.18170407 </i>
    <i name="hartreedc">   -601.10935969 </i>
    <i name="XCdc">     40.07157076 </i>
    <i name="pawpsdc">    802.23278785 </i>
    <i name="pawaedc">   -788.78324958 </i>
    <i name="eentropy">     -0.00000000 </i>
    <i name="bandstr">    -71.27819340 </i>
    <i name="atom">   1046.91315164 </i>
    <i name="e_fr_energy">    183.12580589 </i>
    <i name="e_wo_entrp">    183.12580589 </i>
    <i name="e_0_energy">    183.12580589 </i>
   </energy>
  </scstep>
  <scstep>
   <time name="total">    0.34    0.34</time>
   <energy>
    <i name="e_fr_energy">     49.87869605 </i>
    <i name="e_wo_entrp">     49.89905376 </i>
    <i name="e_0_energy">     49.88887491 </i>
   </energy>
  </scstep>
  <scstep>
   <time name="total">    0.33    0.33</time>
   <energy>
    <i name="e_fr_energy">      2.19717053 </i>
    <i name="e_wo_entrp">      2.19731037 </i>
    <i name="e_0_energy">      2.19724045 </i>
   </energy>
  </scstep>
  <scstep>
   <time name="total">    0.34    0.34</time>
   <energy>
    <i name="e_fr_energy">     -1.34324131 </i>
    <i name="e_wo_entrp">     -1.34274540 </i>
    <i name="e_0_energy">     -1.34299336 </i>
   </energy>
  </scstep>
  <scstep>
   <time name="total">    0.53    0.54</time>
   <energy>
    <i name="e_fr_energy">     -1.90750630 </i>
    <i name="e_wo_entrp">     -1.90114927 </i>
    <i name="e_0_energy">     -1.90432778 </i>
   </energy>
  </scstep>
  <scstep>
   <time name="total">    1.34    1.35</time>
   <energy>
    <i name="e_fr_energy">     -1.33316991 </i>
    <i name="e_wo_entrp">     -1.33062783 </i>
    <i name="e_0_energy">     -1.33189887 </i>
   </energy>
  </scstep>
  <scstep>
   <time name="total">    1.31    1.32</time>
   <energy>
    <i name="e_fr_energy">     -1.84320604 </i>
    <i name="e_wo_entrp">     -1.84245993 </i>
    <i name="e_0_energy">     -1.84283299 </i>
   </energy>
  </scstep>
  <scstep>
   <time name="total">    1.32    1.32</time>
   <energy>
    <i name="e_fr_energy">     -2.02412643 </i>
    <i name="e_wo_entrp">     -2.02391912 </i>
    <i name="e_0_energy">     -2.02402278 </i>
   </energy>
  </scstep>
  <scstep>
   <time name="total">    1.31    1.31</time>
   <energy>
    <i name="e_fr_energy">     -2.07414277 </i>
    <i name="e_wo_entrp">     -2.07408972 </i>
    <i name="e_0_energy">     -2.07411625 </i>
   </energy>
  </scstep>
  <scstep>
   <time name="total">    1.32    1.32</time>
   <energy>
    <i name="e_fr_energy">     -2.10882908 </i>
    <i name="e_wo_entrp">     -2.10881472 </i>
    <i name="e_0_energy">     -2.10882190 </i>
   </energy>
  </scstep>
  <scstep>
   <time name="total">    1.31    1.32</time>
   <energy>
    <i name="e_fr_energy">     -2.13320420 </i>
    <i name="e_wo_entrp">     -2.13319895 </i>
    <i name="e_0_energy">     -2.13320158 </i>
   </energy>
  </scstep>
  <scstep>
   <time name="total">    1.31    1.31</time>
   <energy>
    <i name="e_fr_energy">     -2.14603894 </i>
    <i name="e_wo_entrp">     -2.14603556 </i>
    <i name="e_0_energy">     -2.14603725 </i>
   </energy>
  </scstep>
  <scstep>
   <time name="total">    1.30    1.30</time>
   <energy>
    <i name="e_fr_energy">     -2.15232777 </i>
    <i name="e_wo_entrp">     -2.15232251 </i>
    <i name="e_0_energy">     -2.15232514 </i>
   </energy>
  </scstep>
  <scstep>
   <time name="total">    1.31    1.31</time>
   <energy>
    <i name="e_fr_energy">     -2.15624438 </i>
    <i name="e_wo_entrp">     -2.15622224 </i>
    <i name="e_0_energy">     -2.15623331 </i>
   </energy>
  </scstep>
  <scstep>
   <time name="total">    1.31    1.31</time>
   <energy>
    <i name="e_fr_energy">     -2.15909403 </i>
    <i name="e_wo_entrp">     -2.15893656 </i>
    <i name="e_0_energy">     -2.15901529 </i>
   </energy>
  </scstep>
  <scstep>
   <time name="total">    1.30    1.30</time>
   <energy>
    <i name="e_fr_energy">     -2.16099384 </i>
    <i name="e_wo_entrp">     -2.16001724 </i>
    <i name="e_0_energy">     -2.16050554 </i>
   </energy>
  </scstep>
  <scstep>
   <time name="total">    1.30    1.30</time>
   <energy>
    <i name="e_fr_energy">     -2.16285957 </i>
    <i name="e_wo_entrp">     -2.15888571 </i>
    <i name="e_0_energy">     -2.16087264 </i>
   </energy>
  </scstep>
  <scstep>
   <time name="total">    1.31    1.31</time>
   <energy>
    <i name="e_fr_energy">     -2.16631859 </i>
    <i name="e_wo_entrp">     -2.15624766 </i>
    <i name="e_0_energy">     -2.16128313 </i>
   </energy>
  </scstep>
  <scstep>
   <time name="total">    1.30    1.31</time>
   <energy>
    <i name="e_fr_energy">     -2.17266018 </i>
    <i name="e_wo_entrp">     -2.15549190 </i>
    <i name="e_0_energy">     -2.16407604 </i>
   </energy>
  </scstep>
  <scstep>
   <time name="total">    1.31    1.31</time>
   <energy>
    <i name="e_fr_energy">     -2.18005975 </i>
    <i name="e_wo_entrp">     -2.15748905 </i>
    <i name="e_0_energy">     -2.16877440 </i>
   </energy>
  </scstep>
  <scstep>
   <time name="total">    1.31    1.31</time>
   <energy>
    <i name="e_fr_energy">     -2.18578856 </i>
    <i name="e_wo_entrp">     -2.16011693 </i>
    <i name="e_0_energy">     -2.17295274 </i>
   </energy>
  </scstep>
  <scstep>
   <time name="total">    1.30    1.30</time>
   <energy>
    <i name="e_fr_energy">     -2.18913501 </i>
    <i name="e_wo_entrp">     -2.16197097 </i>
    <i name="e_0_energy">     -2.17555299 </i>
   </energy>
  </scstep>
  <scstep>
   <time name="total">    1.30    1.30</time>
   <energy>
    <i name="e_fr_energy">     -2.19077191 </i>
    <i name="e_wo_entrp">     -2.16296535 </i>
    <i name="e_0_energy">     -2.17686863 </i>
   </energy>
  </scstep>
  <scstep>
   <time name="total">    1.30    1.30</time>
   <energy>
    <i name="e_fr_energy">     -2.19148728 </i>
    <i name="e_wo_entrp">     -2.16342455 </i>
    <i name="e_0_energy">     -2.17745591 </i>
   </energy>
  </scstep>
  <scstep>
   <time name="total">    1.30    1.30</time>
   <energy>
    <i name="e_fr_energy">     -2.19177663 </i>
    <i name="e_wo_entrp">     -2.16361779 </i>
    <i name="e_0_energy">     -2.17769721 </i>
   </energy>
  </scstep>
  <scstep>
   <time name="total">    1.34    1.34</time>
   <energy>
    <i name="e_fr_energy">     -2.19188682 </i>
    <i name="e_wo_entrp">     -2.16369384 </i>
    <i name="e_0_energy">     -2.17779033 </i>
   </energy>
  </scstep>
  <scstep>
   <time name="total">    1.36    1.36</time>
   <energy>
    <i name="alphaZ">      2.26080239 </i>
    <i name="ewald">   -247.18170407 </i>
    <i name="hartreedc">   -597.89487608 </i>
    <i name="XCdc">     40.07792574 </i>
    <i name="pawpsdc">    803.36889187 </i>
    <i name="pawaedc">   -778.46146506 </i>
    <i name="eentropy">     -0.02820445 </i>
    <i name="bandstr">   -271.24646004 </i>
    <i name="atom">   1046.91315164 </i>
    <i name="e_fr_energy">     -2.19192660 </i>
    <i name="e_wo_entrp">     -2.16372215 </i>
    <i name="e_0_energy">     -2.17782438 </i>
   </energy>
  </scstep>
  <structure>
   <crystal>
    <varray name="basis" >
     <v>      10.00000000       0.00000000       0.00000000 </v>
     <v>       0.00000000      10.00000000       0.00000000 </v>
     <v>       0.00000000       0.00000000      10.00000000 </v>
    </varray>
    <i name="volume">   1000.00000000 </i>
    <varray name="rec_basis" >
     <v>       0.10000000       0.00000000       0.00000000 </v>
     <v>       0.00000000       0.10000000       0.00000000 </v>
     <v>       0.00000000       0.00000000       0.10000000 </v>
    </varray>
   </crystal>
   <varray name="positions" >
    <v>       0.50000000       0.50000000       0.50000000 </v>
   </varray>
  </structure>
  <varray name="forces" >
   <v>       0.00000000       0.00000000       0.00000000 </v>
  </varray>
  <varray name="stress" >
   <v>      -0.20348630       0.00000000      -0.00000000 </v>
   <v>       0.00000000      -0.20348630       0.00000000 </v>
   <v>       0.00000000       0.00000000      -0.20348630 </v>
  </varray>
  <energy>
   <i name="e_fr_energy">     -2.19192660 </i>
   <i name="e_wo_entrp">     -2.17782438 </i>
   <i name="e_0_energy">     -0.02820445 </i>
  </energy>
  <time name="totalsc">   40.02   40.20</time>
  <eigenvalues>
   <array>
    <dimension dim="1">band</dimension>
    <dimension dim="2">kpoint</dimension>
    <dimension dim="3">spin</dimension>
    <field>eigene</field>
    <field>occ</field>
    <set>
     <set comment="spin 1">
      <set comment="kpoint 1">
       <r>  -47.8779    1.0000 </r>
       <r>  -27.8144    1.0000 </r>
       <r>  -27.8144    1.0000 </r>
       <r>  -27.8144    1.0000 </r>
       <r>   -3.9874    1.0000 </r>
       <r>   -2.6853    0.5075 </r>
       <r>   -2.6853    0.4925 </r>
       <r>   -2.2463    0.0000 </r>
       <r>   -2.2462    0.0000 </r>
       <r>   -2.2462    0.0000 </r>
       <r>   -1.1339    0.0000 </r>
       <r>   -1.1338    0.0000 </r>
       <r>   -1.1335    0.0000 </r>
       <r>   -0.2325    0.0000 </r>
       <r>    0.6891    0.0000 </r>
       <r>    0.6891    0.0000 </r>
       <r>    1.4893    0.0000 </r>
       <r>    1.4893    0.0000 </r>
       <r>    1.4915    0.0000 </r>
       <r>    1.7862    0.0000 </r>
       <r>    1.9965    0.0000 </r>
       <r>    1.9974    0.0000 </r>
       <r>    1.9975    0.0000 </r>
       <r>    2.1137    0.0000 </r>
       <r>    2.1160    0.0000 </r>
       <r>    2.1171    0.0000 </r>
       <r>    2.3307    0.0000 </r>
       <r>    2.3335    0.0000 </r>
       <r>    3.3348    0.0000 </r>
       <r>    3.6587    0.0000 </r>
       <r>    3.6680    0.0000 </r>
       <r>    3.6687    0.0000 </r>
       <r>    3.7432    0.0000 </r>
       <r>    3.7592    0.0000 </r>
       <r>    3.8610    0.0000 </r>
       <r>    4.1561    0.0000 </r>
      </set>
     </set>
     <set comment="spin 2">
      <set comment="kpoint 1">
       <r>  -47.5066    1.0000 </r>
       <r>  -27.3656    1.0000 </r>
       <r>  -27.3656    1.0000 </r>
       <r>  -27.3656    1.0000 </r>
       <r>   -3.6495    1.0000 </r>
       <r>   -2.0239    0.0000 </r>
       <r>   -2.0234    0.0000 </r>
       <r>   -2.0233    0.0000 </r>
       <r>   -1.7967    0.0000 </r>
       <r>   -1.7965    0.0000 </r>
       <r>   -0.9225    0.0000 </r>
       <r>   -0.9225    0.0000 </r>
       <r>   -0.9224    0.0000 </r>
       <r>   -0.1897    0.0000 </r>
       <r>    0.8088    0.0000 </r>
       <r>    0.8088    0.0000 </r>
       <r>    1.5386    0.0000 </r>
       <r>    1.5387    0.0000 </r>
       <r>    1.5389    0.0000 </r>
       <r>    1.8239    0.0000 </r>
       <r>    2.0296    0.0000 </r>
       <r>    2.0298    0.0000 </r>
       <r>    2.0306    0.0000 </r>
       <r>    2.1521    0.0000 </r>
       <r>    2.1531    0.0000 </r>
       <r>    2.1538    0.0000 </r>
       <r>    2.3911    0.0000 </r>
       <r>    2.3913    0.0000 </r>
       <r>    3.3202    0.0000 </r>
       <r>    3.6177    0.0000 </r>
       <r>    3.6880    0.0000 </r>
       <r>    3.6906    0.0000 </r>
       <r>    3.6908    0.0000 </r>
       <r>    3.7149    0.0000 </r>
       <r>    3.7267    0.0000 </r>
       <r>    4.1304    0.0000 </r>
      </set>
     </set>
    </set>
   </array>
  </eigenvalues>
  <separator name="orbital magnetization" >
   <v name="MAGDIPOLOUT">      0.00000000      0.00000000      0.00000000</v>
  </separator>
  <dos>
   <i name="efermi">     -2.68528448 </i>
   <total>
    <array>
     <dimension dim="1">gridpoints</dimension>
     <dimension dim="2">spin</dimension>
     <field>energy</field>
     <field>total</field>
     <field>integrated</field>
     <set>
      <set comment="spin 1">
       <r>   -50.4796     0.0000     0.0000 </r>
       <r>   -50.2888     0.0000     0.0000 </r>
       <r>   -50.0980     0.0000     0.0000 </r>
       <r>   -49.9073     0.0000     0.0000 </r>
       <r>   -49.7165     0.0000     0.0000 </r>
       <r>   -49.5257     0.0000     0.0000 </r>
       <r>   -49.3349     0.0000     0.0000 </r>
       <r>   -49.1441     0.0000     0.0000 </r>
       <r>   -48.9533     0.0000     0.0000 </r>
       <r>   -48.7625     0.0000     0.0000 </r>
       <r>   -48.5717     0.0000     0.0000 </r>
       <r>   -48.3809     0.0000     0.0000 </r>
       <r>   -48.1901     0.0000     0.0000 </r>
       <r>   -47.9993     0.0016     0.0003 </r>
       <r>   -47.8085     5.1095     0.9751 </r>
       <r>   -47.6178     0.1303     1.0000 </r>
       <r>   -47.4270     0.0000     1.0000 </r>
       <r>   -47.2362     0.0000     1.0000 </r>
       <r>   -47.0454     0.0000     1.0000 </r>
       <r>   -46.8546     0.0000     1.0000 </r>
       <r>   -46.6638     0.0000     1.0000 </r>
       <r>   -46.4730     0.0000     1.0000 </r>
       <r>   -46.2822     0.0000     1.0000 </r>
       <r>   -46.0914     0.0000     1.0000 </r>
       <r>   -45.9006     0.0000     1.0000 </r>
       <r>   -45.7098     0.0000     1.0000 </r>
       <r>   -45.5191     0.0000     1.0000 </r>
       <r>   -45.3283     0.0000     1.0000 </r>
       <r>   -45.1375     0.0000     1.0000 </r>
       <r>   -44.9467     0.0000     1.0000 </r>
       <r>   -44.7559     0.0000     1.0000 </r>
       <r>   -44.5651     0.0000     1.0000 </r>
       <r>   -44.3743     0.0000     1.0000 </r>
       <r>   -44.1835     0.0000     1.0000 </r>
       <r>   -43.9927     0.0000     1.0000 </r>
       <r>   -43.8019     0.0000     1.0000 </r>
       <r>   -43.6111     0.0000     1.0000 </r>
       <r>   -43.4203     0.0000     1.0000 </r>
       <r>   -43.2296     0.0000     1.0000 </r>
       <r>   -43.0388     0.0000     1.0000 </r>
       <r>   -42.8480     0.0000     1.0000 </r>
       <r>   -42.6572     0.0000     1.0000 </r>
       <r>   -42.4664     0.0000     1.0000 </r>
       <r>   -42.2756     0.0000     1.0000 </r>
       <r>   -42.0848     0.0000     1.0000 </r>
       <r>   -41.8940     0.0000     1.0000 </r>
       <r>   -41.7032     0.0000     1.0000 </r>
       <r>   -41.5124     0.0000     1.0000 </r>
       <r>   -41.3216     0.0000     1.0000 </r>
       <r>   -41.1309     0.0000     1.0000 </r>
       <r>   -40.9401     0.0000     1.0000 </r>
       <r>   -40.7493     0.0000     1.0000 </r>
       <r>   -40.5585     0.0000     1.0000 </r>
       <r>   -40.3677     0.0000     1.0000 </r>
       <r>   -40.1769     0.0000     1.0000 </r>
       <r>   -39.9861     0.0000     1.0000 </r>
       <r>   -39.7953     0.0000     1.0000 </r>
       <r>   -39.6045     0.0000     1.0000 </r>
       <r>   -39.4137     0.0000     1.0000 </r>
       <r>   -39.2229     0.0000     1.0000 </r>
       <r>   -39.0321     0.0000     1.0000 </r>
       <r>   -38.8414     0.0000     1.0000 </r>
       <r>   -38.6506     0.0000     1.0000 </r>
       <r>   -38.4598     0.0000     1.0000 </r>
       <r>   -38.2690     0.0000     1.0000 </r>
       <r>   -38.0782     0.0000     1.0000 </r>
       <r>   -37.8874     0.0000     1.0000 </r>
       <r>   -37.6966     0.0000     1.0000 </r>
       <r>   -37.5058     0.0000     1.0000 </r>
       <r>   -37.3150     0.0000     1.0000 </r>
       <r>   -37.1242     0.0000     1.0000 </r>
       <r>   -36.9334     0.0000     1.0000 </r>
       <r>   -36.7427     0.0000     1.0000 </r>
       <r>   -36.5519     0.0000     1.0000 </r>
       <r>   -36.3611     0.0000     1.0000 </r>
       <r>   -36.1703     0.0000     1.0000 </r>
       <r>   -35.9795     0.0000     1.0000 </r>
       <r>   -35.7887     0.0000     1.0000 </r>
       <r>   -35.5979     0.0000     1.0000 </r>
       <r>   -35.4071     0.0000     1.0000 </r>
       <r>   -35.2163     0.0000     1.0000 </r>
       <r>   -35.0255     0.0000     1.0000 </r>
       <r>   -34.8347     0.0000     1.0000 </r>
       <r>   -34.6439     0.0000     1.0000 </r>
       <r>   -34.4532     0.0000     1.0000 </r>
       <r>   -34.2624     0.0000     1.0000 </r>
       <r>   -34.0716     0.0000     1.0000 </r>
       <r>   -33.8808     0.0000     1.0000 </r>
       <r>   -33.6900     0.0000     1.0000 </r>
       <r>   -33.4992     0.0000     1.0000 </r>
       <r>   -33.3084     0.0000     1.0000 </r>
       <r>   -33.1176     0.0000     1.0000 </r>
       <r>   -32.9268     0.0000     1.0000 </r>
       <r>   -32.7360     0.0000     1.0000 </r>
       <r>   -32.5452     0.0000     1.0000 </r>
       <r>   -32.3545     0.0000     1.0000 </r>
       <r>   -32.1637     0.0000     1.0000 </r>
       <r>   -31.9729     0.0000     1.0000 </r>
       <r>   -31.7821     0.0000     1.0000 </r>
       <r>   -31.5913     0.0000     1.0000 </r>
       <r>   -31.4005     0.0000     1.0000 </r>
       <r>   -31.2097     0.0000     1.0000 </r>
       <r>   -31.0189     0.0000     1.0000 </r>
       <r>   -30.8281     0.0000     1.0000 </r>
       <r>   -30.6373     0.0000     1.0000 </r>
       <r>   -30.4465     0.0000     1.0000 </r>
       <r>   -30.2557     0.0000     1.0000 </r>
       <r>   -30.0650     0.0000     1.0000 </r>
       <r>   -29.8742     0.0000     1.0000 </r>
       <r>   -29.6834     0.0000     1.0000 </r>
       <r>   -29.4926     0.0000     1.0000 </r>
       <r>   -29.3018     0.0000     1.0000 </r>
       <r>   -29.1110     0.0000     1.0000 </r>
       <r>   -28.9202     0.0000     1.0000 </r>
       <r>   -28.7294     0.0000     1.0000 </r>
       <r>   -28.5386     0.0000     1.0000 </r>
       <r>   -28.3478     0.0000     1.0000 </r>
       <r>   -28.1570     0.0000     1.0000 </r>
       <r>   -27.9662     0.0001     1.0000 </r>
       <r>   -27.7755    13.5915     3.5932 </r>
       <r>   -27.5847     2.1323     4.0000 </r>
       <r>   -27.3939     0.0000     4.0000 </r>
       <r>   -27.2031     0.0000     4.0000 </r>
       <r>   -27.0123     0.0000     4.0000 </r>
       <r>   -26.8215     0.0000     4.0000 </r>
       <r>   -26.6307     0.0000     4.0000 </r>
       <r>   -26.4399     0.0000     4.0000 </r>
       <r>   -26.2491     0.0000     4.0000 </r>
       <r>   -26.0583     0.0000     4.0000 </r>
       <r>   -25.8675     0.0000     4.0000 </r>
       <r>   -25.6768     0.0000     4.0000 </r>
       <r>   -25.4860     0.0000     4.0000 </r>
       <r>   -25.2952     0.0000     4.0000 </r>
       <r>   -25.1044     0.0000     4.0000 </r>
       <r>   -24.9136     0.0000     4.0000 </r>
       <r>   -24.7228     0.0000     4.0000 </r>
       <r>   -24.5320     0.0000     4.0000 </r>
       <r>   -24.3412     0.0000     4.0000 </r>
       <r>   -24.1504     0.0000     4.0000 </r>
       <r>   -23.9596     0.0000     4.0000 </r>
       <r>   -23.7688     0.0000     4.0000 </r>
       <r>   -23.5780     0.0000     4.0000 </r>
       <r>   -23.3873     0.0000     4.0000 </r>
       <r>   -23.1965     0.0000     4.0000 </r>
       <r>   -23.0057     0.0000     4.0000 </r>
       <r>   -22.8149     0.0000     4.0000 </r>
       <r>   -22.6241     0.0000     4.0000 </r>
       <r>   -22.4333     0.0000     4.0000 </r>
       <r>   -22.2425     0.0000     4.0000 </r>
       <r>   -22.0517     0.0000     4.0000 </r>
       <r>   -21.8609     0.0000     4.0000 </r>
       <r>   -21.6701     0.0000     4.0000 </r>
       <r>   -21.4793     0.0000     4.0000 </r>
       <r>   -21.2886     0.0000     4.0000 </r>
       <r>   -21.0978     0.0000     4.0000 </r>
       <r>   -20.9070     0.0000     4.0000 </r>
       <r>   -20.7162     0.0000     4.0000 </r>
       <r>   -20.5254     0.0000     4.0000 </r>
       <r>   -20.3346     0.0000     4.0000 </r>
       <r>   -20.1438     0.0000     4.0000 </r>
       <r>   -19.9530     0.0000     4.0000 </r>
       <r>   -19.7622     0.0000     4.0000 </r>
       <r>   -19.5714     0.0000     4.0000 </r>
       <r>   -19.3806     0.0000     4.0000 </r>
       <r>   -19.1898     0.0000     4.0000 </r>
       <r>   -18.9991     0.0000     4.0000 </r>
       <r>   -18.8083     0.0000     4.0000 </r>
       <r>   -18.6175     0.0000     4.0000 </r>
       <r>   -18.4267     0.0000     4.0000 </r>
       <r>   -18.2359     0.0000     4.0000 </r>
       <r>   -18.0451     0.0000     4.0000 </r>
       <r>   -17.8543     0.0000     4.0000 </r>
       <r>   -17.6635     0.0000     4.0000 </r>
       <r>   -17.4727     0.0000     4.0000 </r>
       <r>   -17.2819     0.0000     4.0000 </r>
       <r>   -17.0911     0.0000     4.0000 </r>
       <r>   -16.9004     0.0000     4.0000 </r>
       <r>   -16.7096     0.0000     4.0000 </r>
       <r>   -16.5188     0.0000     4.0000 </r>
       <r>   -16.3280     0.0000     4.0000 </r>
       <r>   -16.1372     0.0000     4.0000 </r>
       <r>   -15.9464     0.0000     4.0000 </r>
       <r>   -15.7556     0.0000     4.0000 </r>
       <r>   -15.5648     0.0000     4.0000 </r>
       <r>   -15.3740     0.0000     4.0000 </r>
       <r>   -15.1832     0.0000     4.0000 </r>
       <r>   -14.9924     0.0000     4.0000 </r>
       <r>   -14.8016     0.0000     4.0000 </r>
       <r>   -14.6109     0.0000     4.0000 </r>
       <r>   -14.4201     0.0000     4.0000 </r>
       <r>   -14.2293     0.0000     4.0000 </r>
       <r>   -14.0385     0.0000     4.0000 </r>
       <r>   -13.8477     0.0000     4.0000 </r>
       <r>   -13.6569     0.0000     4.0000 </r>
       <r>   -13.4661     0.0000     4.0000 </r>
       <r>   -13.2753     0.0000     4.0000 </r>
       <r>   -13.0845     0.0000     4.0000 </r>
       <r>   -12.8937     0.0000     4.0000 </r>
       <r>   -12.7029     0.0000     4.0000 </r>
       <r>   -12.5121     0.0000     4.0000 </r>
       <r>   -12.3214     0.0000     4.0000 </r>
       <r>   -12.1306     0.0000     4.0000 </r>
       <r>   -11.9398     0.0000     4.0000 </r>
       <r>   -11.7490     0.0000     4.0000 </r>
       <r>   -11.5582     0.0000     4.0000 </r>
       <r>   -11.3674     0.0000     4.0000 </r>
       <r>   -11.1766     0.0000     4.0000 </r>
       <r>   -10.9858     0.0000     4.0000 </r>
       <r>   -10.7950     0.0000     4.0000 </r>
       <r>   -10.6042     0.0000     4.0000 </r>
       <r>   -10.4134     0.0000     4.0000 </r>
       <r>   -10.2227     0.0000     4.0000 </r>
       <r>   -10.0319     0.0000     4.0000 </r>
       <r>    -9.8411     0.0000     4.0000 </r>
       <r>    -9.6503     0.0000     4.0000 </r>
       <r>    -9.4595     0.0000     4.0000 </r>
       <r>    -9.2687     0.0000     4.0000 </r>
       <r>    -9.0779     0.0000     4.0000 </r>
       <r>    -8.8871     0.0000     4.0000 </r>
       <r>    -8.6963     0.0000     4.0000 </r>
       <r>    -8.5055     0.0000     4.0000 </r>
       <r>    -8.3147     0.0000     4.0000 </r>
       <r>    -8.1239     0.0000     4.0000 </r>
       <r>    -7.9332     0.0000     4.0000 </r>
       <r>    -7.7424     0.0000     4.0000 </r>
       <r>    -7.5516     0.0000     4.0000 </r>
       <r>    -7.3608     0.0000     4.0000 </r>
       <r>    -7.1700     0.0000     4.0000 </r>
       <r>    -6.9792     0.0000     4.0000 </r>
       <r>    -6.7884     0.0000     4.0000 </r>
       <r>    -6.5976     0.0000     4.0000 </r>
       <r>    -6.4068     0.0000     4.0000 </r>
       <r>    -6.2160     0.0000     4.0000 </r>
       <r>    -6.0252     0.0000     4.0000 </r>
       <r>    -5.8345     0.0000     4.0000 </r>
       <r>    -5.6437     0.0000     4.0000 </r>
       <r>    -5.4529     0.0000     4.0000 </r>
       <r>    -5.2621     0.0000     4.0000 </r>
       <r>    -5.0713     0.0000     4.0000 </r>
       <r>    -4.8805     0.0000     4.0000 </r>
       <r>    -4.6897     0.0000     4.0000 </r>
       <r>    -4.4989     0.0000     4.0000 </r>
       <r>    -4.3081     0.0000     4.0000 </r>
       <r>    -4.1173     0.0006     4.0001 </r>
       <r>    -3.9265     5.0174     4.9574 </r>
       <r>    -3.7357     0.2233     5.0000 </r>
       <r>    -3.5450     0.0000     5.0000 </r>
       <r>    -3.3542     0.0000     5.0000 </r>
       <r>    -3.1634     0.0000     5.0000 </r>
       <r>    -2.9726     0.0000     5.0000 </r>
       <r>    -2.7818     0.0332     5.0063 </r>
       <r>    -2.5910    10.4093     6.9923 </r>
       <r>    -2.4002     0.0402     7.0000 </r>
       <r>    -2.2094    13.3823     9.5532 </r>
       <r>    -2.0186     2.3416    10.0000 </r>
       <r>    -1.8278     0.0000    10.0000 </r>
       <r>    -1.6370     0.0000    10.0000 </r>
       <r>    -1.4463     0.0000    10.0000 </r>
       <r>    -1.2555     0.0045    10.0009 </r>
       <r>    -1.0647    15.3206    12.9239 </r>
       <r>    -0.8739     0.3989    13.0000 </r>
       <r>    -0.6831     0.0000    13.0000 </r>
       <r>    -0.4923     0.0000    13.0000 </r>
       <r>    -0.3015     0.1332    13.0254 </r>
       <r>    -0.1107     5.1067    13.9997 </r>
       <r>     0.0801     0.0015    14.0000 </r>
       <r>     0.2709     0.0000    14.0000 </r>
       <r>     0.4617     0.0000    14.0000 </r>
       <r>     0.6525     1.5724    14.3000 </r>
       <r>     0.8432     8.9102    16.0000 </r>
       <r>     1.0340     0.0001    16.0000 </r>
       <r>     1.2248     0.0000    16.0000 </r>
       <r>     1.4156     0.2781    16.0531 </r>
       <r>     1.6064    15.4380    18.9985 </r>
       <r>     1.7972     3.2667    19.6217 </r>
       <r>     1.9880     8.2380    21.1935 </r>
       <r>     2.1788    24.6096    25.8888 </r>
       <r>     2.3696     9.5496    27.7108 </r>
       <r>     2.5604     1.5159    28.0000 </r>
       <r>     2.7512     0.0000    28.0000 </r>
       <r>     2.9420     0.0000    28.0000 </r>
       <r>     3.1327     0.0000    28.0000 </r>
       <r>     3.3235     1.9680    28.3755 </r>
       <r>     3.5143     3.2735    29.0000 </r>
       <r>     3.7051    14.7330    31.8110 </r>
       <r>     3.8959    15.8654    34.8379 </r>
       <r>     4.0867     0.9797    35.0249 </r>
       <r>     4.2775     5.1095    35.9997 </r>
       <r>     4.4683     0.0016    36.0000 </r>
       <r>     4.6591     0.0000    36.0000 </r>
       <r>     4.8499     0.0000    36.0000 </r>
       <r>     5.0407     0.0000    36.0000 </r>
       <r>     5.2314     0.0000    36.0000 </r>
       <r>     5.4222     0.0000    36.0000 </r>
       <r>     5.6130     0.0000    36.0000 </r>
       <r>     5.8038     0.0000    36.0000 </r>
       <r>     5.9946     0.0000    36.0000 </r>
       <r>     6.1854     0.0000    36.0000 </r>
       <r>     6.3762     0.0000    36.0000 </r>
       <r>     6.5670     0.0000    36.0000 </r>
       <r>     6.7578     0.0000    36.0000 </r>
      </set>
      <set comment="spin 2">
       <r>   -50.4796     0.0000     0.0000 </r>
       <r>   -50.2888     0.0000     0.0000 </r>
       <r>   -50.0980     0.0000     0.0000 </r>
       <r>   -49.9073     0.0000     0.0000 </r>
       <r>   -49.7165     0.0000     0.0000 </r>
       <r>   -49.5257     0.0000     0.0000 </r>
       <r>   -49.3349     0.0000     0.0000 </r>
       <r>   -49.1441     0.0000     0.0000 </r>
       <r>   -48.9533     0.0000     0.0000 </r>
       <r>   -48.7625     0.0000     0.0000 </r>
       <r>   -48.5717     0.0000     0.0000 </r>
       <r>   -48.3809     0.0000     0.0000 </r>
       <r>   -48.1901     0.0000     0.0000 </r>
       <r>   -47.9993     0.0000     0.0000 </r>
       <r>   -47.8085     0.0000     0.0000 </r>
       <r>   -47.6178     0.0044     0.0008 </r>
       <r>   -47.4270     5.1732     0.9878 </r>
       <r>   -47.2362     0.0638     1.0000 </r>
       <r>   -47.0454     0.0000     1.0000 </r>
       <r>   -46.8546     0.0000     1.0000 </r>
       <r>   -46.6638     0.0000     1.0000 </r>
       <r>   -46.4730     0.0000     1.0000 </r>
       <r>   -46.2822     0.0000     1.0000 </r>
       <r>   -46.0914     0.0000     1.0000 </r>
       <r>   -45.9006     0.0000     1.0000 </r>
       <r>   -45.7098     0.0000     1.0000 </r>
       <r>   -45.5191     0.0000     1.0000 </r>
       <r>   -45.3283     0.0000     1.0000 </r>
       <r>   -45.1375     0.0000     1.0000 </r>
       <r>   -44.9467     0.0000     1.0000 </r>
       <r>   -44.7559     0.0000     1.0000 </r>
       <r>   -44.5651     0.0000     1.0000 </r>
       <r>   -44.3743     0.0000     1.0000 </r>
       <r>   -44.1835     0.0000     1.0000 </r>
       <r>   -43.9927     0.0000     1.0000 </r>
       <r>   -43.8019     0.0000     1.0000 </r>
       <r>   -43.6111     0.0000     1.0000 </r>
       <r>   -43.4203     0.0000     1.0000 </r>
       <r>   -43.2296     0.0000     1.0000 </r>
       <r>   -43.0388     0.0000     1.0000 </r>
       <r>   -42.8480     0.0000     1.0000 </r>
       <r>   -42.6572     0.0000     1.0000 </r>
       <r>   -42.4664     0.0000     1.0000 </r>
       <r>   -42.2756     0.0000     1.0000 </r>
       <r>   -42.0848     0.0000     1.0000 </r>
       <r>   -41.8940     0.0000     1.0000 </r>
       <r>   -41.7032     0.0000     1.0000 </r>
       <r>   -41.5124     0.0000     1.0000 </r>
       <r>   -41.3216     0.0000     1.0000 </r>
       <r>   -41.1309     0.0000     1.0000 </r>
       <r>   -40.9401     0.0000     1.0000 </r>
       <r>   -40.7493     0.0000     1.0000 </r>
       <r>   -40.5585     0.0000     1.0000 </r>
       <r>   -40.3677     0.0000     1.0000 </r>
       <r>   -40.1769     0.0000     1.0000 </r>
       <r>   -39.9861     0.0000     1.0000 </r>
       <r>   -39.7953     0.0000     1.0000 </r>
       <r>   -39.6045     0.0000     1.0000 </r>
       <r>   -39.4137     0.0000     1.0000 </r>
       <r>   -39.2229     0.0000     1.0000 </r>
       <r>   -39.0321     0.0000     1.0000 </r>
       <r>   -38.8414     0.0000     1.0000 </r>
       <r>   -38.6506     0.0000     1.0000 </r>
       <r>   -38.4598     0.0000     1.0000 </r>
       <r>   -38.2690     0.0000     1.0000 </r>
       <r>   -38.0782     0.0000     1.0000 </r>
       <r>   -37.8874     0.0000     1.0000 </r>
       <r>   -37.6966     0.0000     1.0000 </r>
       <r>   -37.5058     0.0000     1.0000 </r>
       <r>   -37.3150     0.0000     1.0000 </r>
       <r>   -37.1242     0.0000     1.0000 </r>
       <r>   -36.9334     0.0000     1.0000 </r>
       <r>   -36.7427     0.0000     1.0000 </r>
       <r>   -36.5519     0.0000     1.0000 </r>
       <r>   -36.3611     0.0000     1.0000 </r>
       <r>   -36.1703     0.0000     1.0000 </r>
       <r>   -35.9795     0.0000     1.0000 </r>
       <r>   -35.7887     0.0000     1.0000 </r>
       <r>   -35.5979     0.0000     1.0000 </r>
       <r>   -35.4071     0.0000     1.0000 </r>
       <r>   -35.2163     0.0000     1.0000 </r>
       <r>   -35.0255     0.0000     1.0000 </r>
       <r>   -34.8347     0.0000     1.0000 </r>
       <r>   -34.6439     0.0000     1.0000 </r>
       <r>   -34.4532     0.0000     1.0000 </r>
       <r>   -34.2624     0.0000     1.0000 </r>
       <r>   -34.0716     0.0000     1.0000 </r>
       <r>   -33.8808     0.0000     1.0000 </r>
       <r>   -33.6900     0.0000     1.0000 </r>
       <r>   -33.4992     0.0000     1.0000 </r>
       <r>   -33.3084     0.0000     1.0000 </r>
       <r>   -33.1176     0.0000     1.0000 </r>
       <r>   -32.9268     0.0000     1.0000 </r>
       <r>   -32.7360     0.0000     1.0000 </r>
       <r>   -32.5452     0.0000     1.0000 </r>
       <r>   -32.3545     0.0000     1.0000 </r>
       <r>   -32.1637     0.0000     1.0000 </r>
       <r>   -31.9729     0.0000     1.0000 </r>
       <r>   -31.7821     0.0000     1.0000 </r>
       <r>   -31.5913     0.0000     1.0000 </r>
       <r>   -31.4005     0.0000     1.0000 </r>
       <r>   -31.2097     0.0000     1.0000 </r>
       <r>   -31.0189     0.0000     1.0000 </r>
       <r>   -30.8281     0.0000     1.0000 </r>
       <r>   -30.6373     0.0000     1.0000 </r>
       <r>   -30.4465     0.0000     1.0000 </r>
       <r>   -30.2557     0.0000     1.0000 </r>
       <r>   -30.0650     0.0000     1.0000 </r>
       <r>   -29.8742     0.0000     1.0000 </r>
       <r>   -29.6834     0.0000     1.0000 </r>
       <r>   -29.4926     0.0000     1.0000 </r>
       <r>   -29.3018     0.0000     1.0000 </r>
       <r>   -29.1110     0.0000     1.0000 </r>
       <r>   -28.9202     0.0000     1.0000 </r>
       <r>   -28.7294     0.0000     1.0000 </r>
       <r>   -28.5386     0.0000     1.0000 </r>
       <r>   -28.3478     0.0000     1.0000 </r>
       <r>   -28.1570     0.0000     1.0000 </r>
       <r>   -27.9662     0.0000     1.0000 </r>
       <r>   -27.7755     0.0000     1.0000 </r>
       <r>   -27.5847     0.0000     1.0000 </r>
       <r>   -27.3939     3.3261     1.6346 </r>
       <r>   -27.2031    12.3979     4.0000 </r>
       <r>   -27.0123     0.0000     4.0000 </r>
       <r>   -26.8215     0.0000     4.0000 </r>
       <r>   -26.6307     0.0000     4.0000 </r>
       <r>   -26.4399     0.0000     4.0000 </r>
       <r>   -26.2491     0.0000     4.0000 </r>
       <r>   -26.0583     0.0000     4.0000 </r>
       <r>   -25.8675     0.0000     4.0000 </r>
       <r>   -25.6768     0.0000     4.0000 </r>
       <r>   -25.4860     0.0000     4.0000 </r>
       <r>   -25.2952     0.0000     4.0000 </r>
       <r>   -25.1044     0.0000     4.0000 </r>
       <r>   -24.9136     0.0000     4.0000 </r>
       <r>   -24.7228     0.0000     4.0000 </r>
       <r>   -24.5320     0.0000     4.0000 </r>
       <r>   -24.3412     0.0000     4.0000 </r>
       <r>   -24.1504     0.0000     4.0000 </r>
       <r>   -23.9596     0.0000     4.0000 </r>
       <r>   -23.7688     0.0000     4.0000 </r>
       <r>   -23.5780     0.0000     4.0000 </r>
       <r>   -23.3873     0.0000     4.0000 </r>
       <r>   -23.1965     0.0000     4.0000 </r>
       <r>   -23.0057     0.0000     4.0000 </r>
       <r>   -22.8149     0.0000     4.0000 </r>
       <r>   -22.6241     0.0000     4.0000 </r>
       <r>   -22.4333     0.0000     4.0000 </r>
       <r>   -22.2425     0.0000     4.0000 </r>
       <r>   -22.0517     0.0000     4.0000 </r>
       <r>   -21.8609     0.0000     4.0000 </r>
       <r>   -21.6701     0.0000     4.0000 </r>
       <r>   -21.4793     0.0000     4.0000 </r>
       <r>   -21.2886     0.0000     4.0000 </r>
       <r>   -21.0978     0.0000     4.0000 </r>
       <r>   -20.9070     0.0000     4.0000 </r>
       <r>   -20.7162     0.0000     4.0000 </r>
       <r>   -20.5254     0.0000     4.0000 </r>
       <r>   -20.3346     0.0000     4.0000 </r>
       <r>   -20.1438     0.0000     4.0000 </r>
       <r>   -19.9530     0.0000     4.0000 </r>
       <r>   -19.7622     0.0000     4.0000 </r>
       <r>   -19.5714     0.0000     4.0000 </r>
       <r>   -19.3806     0.0000     4.0000 </r>
       <r>   -19.1898     0.0000     4.0000 </r>
       <r>   -18.9991     0.0000     4.0000 </r>
       <r>   -18.8083     0.0000     4.0000 </r>
       <r>   -18.6175     0.0000     4.0000 </r>
       <r>   -18.4267     0.0000     4.0000 </r>
       <r>   -18.2359     0.0000     4.0000 </r>
       <r>   -18.0451     0.0000     4.0000 </r>
       <r>   -17.8543     0.0000     4.0000 </r>
       <r>   -17.6635     0.0000     4.0000 </r>
       <r>   -17.4727     0.0000     4.0000 </r>
       <r>   -17.2819     0.0000     4.0000 </r>
       <r>   -17.0911     0.0000     4.0000 </r>
       <r>   -16.9004     0.0000     4.0000 </r>
       <r>   -16.7096     0.0000     4.0000 </r>
       <r>   -16.5188     0.0000     4.0000 </r>
       <r>   -16.3280     0.0000     4.0000 </r>
       <r>   -16.1372     0.0000     4.0000 </r>
       <r>   -15.9464     0.0000     4.0000 </r>
       <r>   -15.7556     0.0000     4.0000 </r>
       <r>   -15.5648     0.0000     4.0000 </r>
       <r>   -15.3740     0.0000     4.0000 </r>
       <r>   -15.1832     0.0000     4.0000 </r>
       <r>   -14.9924     0.0000     4.0000 </r>
       <r>   -14.8016     0.0000     4.0000 </r>
       <r>   -14.6109     0.0000     4.0000 </r>
       <r>   -14.4201     0.0000     4.0000 </r>
       <r>   -14.2293     0.0000     4.0000 </r>
       <r>   -14.0385     0.0000     4.0000 </r>
       <r>   -13.8477     0.0000     4.0000 </r>
       <r>   -13.6569     0.0000     4.0000 </r>
       <r>   -13.4661     0.0000     4.0000 </r>
       <r>   -13.2753     0.0000     4.0000 </r>
       <r>   -13.0845     0.0000     4.0000 </r>
       <r>   -12.8937     0.0000     4.0000 </r>
       <r>   -12.7029     0.0000     4.0000 </r>
       <r>   -12.5121     0.0000     4.0000 </r>
       <r>   -12.3214     0.0000     4.0000 </r>
       <r>   -12.1306     0.0000     4.0000 </r>
       <r>   -11.9398     0.0000     4.0000 </r>
       <r>   -11.7490     0.0000     4.0000 </r>
       <r>   -11.5582     0.0000     4.0000 </r>
       <r>   -11.3674     0.0000     4.0000 </r>
       <r>   -11.1766     0.0000     4.0000 </r>
       <r>   -10.9858     0.0000     4.0000 </r>
       <r>   -10.7950     0.0000     4.0000 </r>
       <r>   -10.6042     0.0000     4.0000 </r>
       <r>   -10.4134     0.0000     4.0000 </r>
       <r>   -10.2227     0.0000     4.0000 </r>
       <r>   -10.0319     0.0000     4.0000 </r>
       <r>    -9.8411     0.0000     4.0000 </r>
       <r>    -9.6503     0.0000     4.0000 </r>
       <r>    -9.4595     0.0000     4.0000 </r>
       <r>    -9.2687     0.0000     4.0000 </r>
       <r>    -9.0779     0.0000     4.0000 </r>
       <r>    -8.8871     0.0000     4.0000 </r>
       <r>    -8.6963     0.0000     4.0000 </r>
       <r>    -8.5055     0.0000     4.0000 </r>
       <r>    -8.3147     0.0000     4.0000 </r>
       <r>    -8.1239     0.0000     4.0000 </r>
       <r>    -7.9332     0.0000     4.0000 </r>
       <r>    -7.7424     0.0000     4.0000 </r>
       <r>    -7.5516     0.0000     4.0000 </r>
       <r>    -7.3608     0.0000     4.0000 </r>
       <r>    -7.1700     0.0000     4.0000 </r>
       <r>    -6.9792     0.0000     4.0000 </r>
       <r>    -6.7884     0.0000     4.0000 </r>
       <r>    -6.5976     0.0000     4.0000 </r>
       <r>    -6.4068     0.0000     4.0000 </r>
       <r>    -6.2160     0.0000     4.0000 </r>
       <r>    -6.0252     0.0000     4.0000 </r>
       <r>    -5.8345     0.0000     4.0000 </r>
       <r>    -5.6437     0.0000     4.0000 </r>
       <r>    -5.4529     0.0000     4.0000 </r>
       <r>    -5.2621     0.0000     4.0000 </r>
       <r>    -5.0713     0.0000     4.0000 </r>
       <r>    -4.8805     0.0000     4.0000 </r>
       <r>    -4.6897     0.0000     4.0000 </r>
       <r>    -4.4989     0.0000     4.0000 </r>
       <r>    -4.3081     0.0000     4.0000 </r>
       <r>    -4.1173     0.0000     4.0000 </r>
       <r>    -3.9265     0.0000     4.0000 </r>
       <r>    -3.7357     0.0387     4.0074 </r>
       <r>    -3.5450     5.1945     4.9985 </r>
       <r>    -3.3542     0.0081     5.0000 </r>
       <r>    -3.1634     0.0000     5.0000 </r>
       <r>    -2.9726     0.0000     5.0000 </r>
       <r>    -2.7818     0.0000     5.0000 </r>
       <r>    -2.5910     0.0000     5.0000 </r>
       <r>    -2.4002     0.0000     5.0000 </r>
       <r>    -2.2094     0.0000     5.0000 </r>
       <r>    -2.0186     8.7268     6.6650 </r>
       <r>    -1.8278     8.9723     8.3768 </r>
       <r>    -1.6370     8.5075    10.0000 </r>
       <r>    -1.4463     0.0000    10.0000 </r>
       <r>    -1.2555     0.0000    10.0000 </r>
       <r>    -1.0647     0.0005    10.0001 </r>
       <r>    -0.8739    14.3938    12.7463 </r>
       <r>    -0.6831     1.3297    13.0000 </r>
       <r>    -0.4923     0.0000    13.0000 </r>
       <r>    -0.3015     0.0041    13.0008 </r>
       <r>    -0.1107     5.1705    13.9873 </r>
       <r>     0.0801     0.0667    14.0000 </r>
       <r>     0.2709     0.0000    14.0000 </r>
       <r>     0.4617     0.0000    14.0000 </r>
       <r>     0.6525     0.0001    14.0000 </r>
       <r>     0.8432     8.7546    15.6703 </r>
       <r>     1.0340     1.7280    16.0000 </r>
       <r>     1.2248     0.0000    16.0000 </r>
       <r>     1.4156     0.0039    16.0007 </r>
       <r>     1.6064    15.2832    18.9167 </r>
       <r>     1.7972     1.6146    19.2247 </r>
       <r>     1.9880     5.9113    20.3525 </r>
       <r>     2.1788    25.9370    25.3011 </r>
       <r>     2.3696     6.4949    26.5402 </r>
       <r>     2.5604     7.6510    28.0000 </r>
       <r>     2.7512     0.0000    28.0000 </r>
       <r>     2.9420     0.0000    28.0000 </r>
       <r>     3.1327     0.0000    28.0000 </r>
       <r>     3.3235     2.8160    28.5373 </r>
       <r>     3.5143     2.4343    29.0017 </r>
       <r>     3.7051    19.1626    32.6578 </r>
       <r>     3.8959    12.2763    35.0000 </r>
       <r>     4.0867     0.5671    35.1082 </r>
       <r>     4.2775     4.6741    36.0000 </r>
       <r>     4.4683     0.0001    36.0000 </r>
       <r>     4.6591     0.0000    36.0000 </r>
       <r>     4.8499     0.0000    36.0000 </r>
       <r>     5.0407     0.0000    36.0000 </r>
       <r>     5.2314     0.0000    36.0000 </r>
       <r>     5.4222     0.0000    36.0000 </r>
       <r>     5.6130     0.0000    36.0000 </r>
       <r>     5.8038     0.0000    36.0000 </r>
       <r>     5.9946     0.0000    36.0000 </r>
       <r>     6.1854     0.0000    36.0000 </r>
       <r>     6.3762     0.0000    36.0000 </r>
       <r>     6.5670     0.0000    36.0000 </r>
       <r>     6.7578     0.0000    36.0000 </r>
      </set>
     </set>
    </array>
   </total>
   <partial>
    <array>
     <dimension dim="1">gridpoints</dimension>
     <dimension dim="2">spin</dimension>
     <dimension dim="3">ion</dimension>
     <field>energy</field>
     <field>    s</field>
     <field>   py</field>
     <field>   pz</field>
     <field>   px</field>
     <field>  dxy</field>
     <field>  dyz</field>
     <field>  dz2</field>
     <field>  dxz</field>
     <field>x2-y2</field>
     <field>fy3x2</field>
     <field> fxyz</field>
     <field> fyz2</field>
     <field>  fz3</field>
     <field> fxz2</field>
     <field> fzx2</field>
     <field>  fx3</field>
     <set>
      <set comment="ion 1">
       <set comment="spin 1">
        <r>   -50.4796     0.0000     0.0000     0.0000     0.0000     0.0000     0.0000     0.0000     0.0000     0.0000     0.0000     0.0000     0.0000     0.0000     0.0000     0.0000     0.0000 </r>
        <r>   -50.2888     0.0000     0.0000     0.0000     0.0000     0.0000     0.0000     0.0000     0.0000     0.0000     0.0000     0.0000     0.0000     0.0000     0.0000     0.0000     0.0000 </r>
        <r>   -50.0980     0.0000     0.0000     0.0000     0.0000     0.0000     0.0000     0.0000     0.0000     0.0000     0.0000     0.0000     0.0000     0.0000     0.0000     0.0000     0.0000 </r>
        <r>   -49.9073     0.0000     0.0000     0.0000     0.0000     0.0000     0.0000     0.0000     0.0000     0.0000     0.0000     0.0000     0.0000     0.0000     0.0000     0.0000     0.0000 </r>
        <r>   -49.7165     0.0000     0.0000     0.0000     0.0000     0.0000     0.0000     0.0000     0.0000     0.0000     0.0000     0.0000     0.0000     0.0000     0.0000     0.0000     0.0000 </r>
        <r>   -49.5257     0.0000     0.0000     0.0000     0.0000     0.0000     0.0000     0.0000     0.0000     0.0000     0.0000     0.0000     0.0000     0.0000     0.0000     0.0000     0.0000 </r>
        <r>   -49.3349     0.0000     0.0000     0.0000     0.0000     0.0000     0.0000     0.0000     0.0000     0.0000     0.0000     0.0000     0.0000     0.0000     0.0000     0.0000     0.0000 </r>
        <r>   -49.1441     0.0000     0.0000     0.0000     0.0000     0.0000     0.0000     0.0000     0.0000     0.0000     0.0000     0.0000     0.0000     0.0000     0.0000     0.0000     0.0000 </r>
        <r>   -48.9533     0.0000     0.0000     0.0000     0.0000     0.0000     0.0000     0.0000     0.0000     0.0000     0.0000     0.0000     0.0000     0.0000     0.0000     0.0000     0.0000 </r>
        <r>   -48.7625     0.0000     0.0000     0.0000     0.0000     0.0000     0.0000     0.0000     0.0000     0.0000     0.0000     0.0000     0.0000     0.0000     0.0000     0.0000     0.0000 </r>
        <r>   -48.5717     0.0000     0.0000     0.0000     0.0000     0.0000     0.0000     0.0000     0.0000     0.0000     0.0000     0.0000     0.0000     0.0000     0.0000     0.0000     0.0000 </r>
        <r>   -48.3809     0.0000     0.0000     0.0000     0.0000     0.0000     0.0000     0.0000     0.0000     0.0000     0.0000     0.0000     0.0000     0.0000     0.0000     0.0000     0.0000 </r>
        <r>   -48.1901     0.0000     0.0000     0.0000     0.0000     0.0000     0.0000     0.0000     0.0000     0.0000     0.0000     0.0000     0.0000     0.0000     0.0000     0.0000     0.0000 </r>
        <r>   -47.9993     0.0016     0.0000     0.0000     0.0000     0.0000     0.0000     0.0000     0.0000     0.0000     0.0000     0.0000     0.0000     0.0000     0.0000     0.0000     0.0000 </r>
        <r>   -47.8085     5.0976     0.0000     0.0000     0.0000     0.0000     0.0000     0.0000     0.0000     0.0000     0.0000     0.0000     0.0000     0.0000     0.0000     0.0000     0.0000 </r>
        <r>   -47.6178     0.1300     0.0000     0.0000     0.0000     0.0000     0.0000     0.0000     0.0000     0.0000     0.0000     0.0000     0.0000     0.0000     0.0000     0.0000     0.0000 </r>
        <r>   -47.4270     0.0000     0.0000     0.0000     0.0000     0.0000     0.0000     0.0000     0.0000     0.0000     0.0000     0.0000     0.0000     0.0000     0.0000     0.0000     0.0000 </r>
        <r>   -47.2362     0.0000     0.0000     0.0000     0.0000     0.0000     0.0000     0.0000     0.0000     0.0000     0.0000     0.0000     0.0000     0.0000     0.0000     0.0000     0.0000 </r>
        <r>   -47.0454     0.0000     0.0000     0.0000     0.0000     0.0000     0.0000     0.0000     0.0000     0.0000     0.0000     0.0000     0.0000     0.0000     0.0000     0.0000     0.0000 </r>
        <r>   -46.8546     0.0000     0.0000     0.0000     0.0000     0.0000     0.0000     0.0000     0.0000     0.0000     0.0000     0.0000     0.0000     0.0000     0.0000     0.0000     0.0000 </r>
        <r>   -46.6638     0.0000     0.0000     0.0000     0.0000     0.0000     0.0000     0.0000     0.0000     0.0000     0.0000     0.0000     0.0000     0.0000     0.0000     0.0000     0.0000 </r>
        <r>   -46.4730     0.0000     0.0000     0.0000     0.0000     0.0000     0.0000     0.0000     0.0000     0.0000     0.0000     0.0000     0.0000     0.0000     0.0000     0.0000     0.0000 </r>
        <r>   -46.2822     0.0000     0.0000     0.0000     0.0000     0.0000     0.0000     0.0000     0.0000     0.0000     0.0000     0.0000     0.0000     0.0000     0.0000     0.0000     0.0000 </r>
        <r>   -46.0914     0.0000     0.0000     0.0000     0.0000     0.0000     0.0000     0.0000     0.0000     0.0000     0.0000     0.0000     0.0000     0.0000     0.0000     0.0000     0.0000 </r>
        <r>   -45.9006     0.0000     0.0000     0.0000     0.0000     0.0000     0.0000     0.0000     0.0000     0.0000     0.0000     0.0000     0.0000     0.0000     0.0000     0.0000     0.0000 </r>
        <r>   -45.7098     0.0000     0.0000     0.0000     0.0000     0.0000     0.0000     0.0000     0.0000     0.0000     0.0000     0.0000     0.0000     0.0000     0.0000     0.0000     0.0000 </r>
        <r>   -45.5191     0.0000     0.0000     0.0000     0.0000     0.0000     0.0000     0.0000     0.0000     0.0000     0.0000     0.0000     0.0000     0.0000     0.0000     0.0000     0.0000 </r>
        <r>   -45.3283     0.0000     0.0000     0.0000     0.0000     0.0000     0.0000     0.0000     0.0000     0.0000     0.0000     0.0000     0.0000     0.0000     0.0000     0.0000     0.0000 </r>
        <r>   -45.1375     0.0000     0.0000     0.0000     0.0000     0.0000     0.0000     0.0000     0.0000     0.0000     0.0000     0.0000     0.0000     0.0000     0.0000     0.0000     0.0000 </r>
        <r>   -44.9467     0.0000     0.0000     0.0000     0.0000     0.0000     0.0000     0.0000     0.0000     0.0000     0.0000     0.0000     0.0000     0.0000     0.0000     0.0000     0.0000 </r>
        <r>   -44.7559     0.0000     0.0000     0.0000     0.0000     0.0000     0.0000     0.0000     0.0000     0.0000     0.0000     0.0000     0.0000     0.0000     0.0000     0.0000     0.0000 </r>
        <r>   -44.5651     0.0000     0.0000     0.0000     0.0000     0.0000     0.0000     0.0000     0.0000     0.0000     0.0000     0.0000     0.0000     0.0000     0.0000     0.0000     0.0000 </r>
        <r>   -44.3743     0.0000     0.0000     0.0000     0.0000     0.0000     0.0000     0.0000     0.0000     0.0000     0.0000     0.0000     0.0000     0.0000     0.0000     0.0000     0.0000 </r>
        <r>   -44.1835     0.0000     0.0000     0.0000     0.0000     0.0000     0.0000     0.0000     0.0000     0.0000     0.0000     0.0000     0.0000     0.0000     0.0000     0.0000     0.0000 </r>
        <r>   -43.9927     0.0000     0.0000     0.0000     0.0000     0.0000     0.0000     0.0000     0.0000     0.0000     0.0000     0.0000     0.0000     0.0000     0.0000     0.0000     0.0000 </r>
        <r>   -43.8019     0.0000     0.0000     0.0000     0.0000     0.0000     0.0000     0.0000     0.0000     0.0000     0.0000     0.0000     0.0000     0.0000     0.0000     0.0000     0.0000 </r>
        <r>   -43.6111     0.0000     0.0000     0.0000     0.0000     0.0000     0.0000     0.0000     0.0000     0.0000     0.0000     0.0000     0.0000     0.0000     0.0000     0.0000     0.0000 </r>
        <r>   -43.4203     0.0000     0.0000     0.0000     0.0000     0.0000     0.0000     0.0000     0.0000     0.0000     0.0000     0.0000     0.0000     0.0000     0.0000     0.0000     0.0000 </r>
        <r>   -43.2296     0.0000     0.0000     0.0000     0.0000     0.0000     0.0000     0.0000     0.0000     0.0000     0.0000     0.0000     0.0000     0.0000     0.0000     0.0000     0.0000 </r>
        <r>   -43.0388     0.0000     0.0000     0.0000     0.0000     0.0000     0.0000     0.0000     0.0000     0.0000     0.0000     0.0000     0.0000     0.0000     0.0000     0.0000     0.0000 </r>
        <r>   -42.8480     0.0000     0.0000     0.0000     0.0000     0.0000     0.0000     0.0000     0.0000     0.0000     0.0000     0.0000     0.0000     0.0000     0.0000     0.0000     0.0000 </r>
        <r>   -42.6572     0.0000     0.0000     0.0000     0.0000     0.0000     0.0000     0.0000     0.0000     0.0000     0.0000     0.0000     0.0000     0.0000     0.0000     0.0000     0.0000 </r>
        <r>   -42.4664     0.0000     0.0000     0.0000     0.0000     0.0000     0.0000     0.0000     0.0000     0.0000     0.0000     0.0000     0.0000     0.0000     0.0000     0.0000     0.0000 </r>
        <r>   -42.2756     0.0000     0.0000     0.0000     0.0000     0.0000     0.0000     0.0000     0.0000     0.0000     0.0000     0.0000     0.0000     0.0000     0.0000     0.0000     0.0000 </r>
        <r>   -42.0848     0.0000     0.0000     0.0000     0.0000     0.0000     0.0000     0.0000     0.0000     0.0000     0.0000     0.0000     0.0000     0.0000     0.0000     0.0000     0.0000 </r>
        <r>   -41.8940     0.0000     0.0000     0.0000     0.0000     0.0000     0.0000     0.0000     0.0000     0.0000     0.0000     0.0000     0.0000     0.0000     0.0000     0.0000     0.0000 </r>
        <r>   -41.7032     0.0000     0.0000     0.0000     0.0000     0.0000     0.0000     0.0000     0.0000     0.0000     0.0000     0.0000     0.0000     0.0000     0.0000     0.0000     0.0000 </r>
        <r>   -41.5124     0.0000     0.0000     0.0000     0.0000     0.0000     0.0000     0.0000     0.0000     0.0000     0.0000     0.0000     0.0000     0.0000     0.0000     0.0000     0.0000 </r>
        <r>   -41.3216     0.0000     0.0000     0.0000     0.0000     0.0000     0.0000     0.0000     0.0000     0.0000     0.0000     0.0000     0.0000     0.0000     0.0000     0.0000     0.0000 </r>
        <r>   -41.1309     0.0000     0.0000     0.0000     0.0000     0.0000     0.0000     0.0000     0.0000     0.0000     0.0000     0.0000     0.0000     0.0000     0.0000     0.0000     0.0000 </r>
        <r>   -40.9401     0.0000     0.0000     0.0000     0.0000     0.0000     0.0000     0.0000     0.0000     0.0000     0.0000     0.0000     0.0000     0.0000     0.0000     0.0000     0.0000 </r>
        <r>   -40.7493     0.0000     0.0000     0.0000     0.0000     0.0000     0.0000     0.0000     0.0000     0.0000     0.0000     0.0000     0.0000     0.0000     0.0000     0.0000     0.0000 </r>
        <r>   -40.5585     0.0000     0.0000     0.0000     0.0000     0.0000     0.0000     0.0000     0.0000     0.0000     0.0000     0.0000     0.0000     0.0000     0.0000     0.0000     0.0000 </r>
        <r>   -40.3677     0.0000     0.0000     0.0000     0.0000     0.0000     0.0000     0.0000     0.0000     0.0000     0.0000     0.0000     0.0000     0.0000     0.0000     0.0000     0.0000 </r>
        <r>   -40.1769     0.0000     0.0000     0.0000     0.0000     0.0000     0.0000     0.0000     0.0000     0.0000     0.0000     0.0000     0.0000     0.0000     0.0000     0.0000     0.0000 </r>
        <r>   -39.9861     0.0000     0.0000     0.0000     0.0000     0.0000     0.0000     0.0000     0.0000     0.0000     0.0000     0.0000     0.0000     0.0000     0.0000     0.0000     0.0000 </r>
        <r>   -39.7953     0.0000     0.0000     0.0000     0.0000     0.0000     0.0000     0.0000     0.0000     0.0000     0.0000     0.0000     0.0000     0.0000     0.0000     0.0000     0.0000 </r>
        <r>   -39.6045     0.0000     0.0000     0.0000     0.0000     0.0000     0.0000     0.0000     0.0000     0.0000     0.0000     0.0000     0.0000     0.0000     0.0000     0.0000     0.0000 </r>
        <r>   -39.4137     0.0000     0.0000     0.0000     0.0000     0.0000     0.0000     0.0000     0.0000     0.0000     0.0000     0.0000     0.0000     0.0000     0.0000     0.0000     0.0000 </r>
        <r>   -39.2229     0.0000     0.0000     0.0000     0.0000     0.0000     0.0000     0.0000     0.0000     0.0000     0.0000     0.0000     0.0000     0.0000     0.0000     0.0000     0.0000 </r>
        <r>   -39.0321     0.0000     0.0000     0.0000     0.0000     0.0000     0.0000     0.0000     0.0000     0.0000     0.0000     0.0000     0.0000     0.0000     0.0000     0.0000     0.0000 </r>
        <r>   -38.8414     0.0000     0.0000     0.0000     0.0000     0.0000     0.0000     0.0000     0.0000     0.0000     0.0000     0.0000     0.0000     0.0000     0.0000     0.0000     0.0000 </r>
        <r>   -38.6506     0.0000     0.0000     0.0000     0.0000     0.0000     0.0000     0.0000     0.0000     0.0000     0.0000     0.0000     0.0000     0.0000     0.0000     0.0000     0.0000 </r>
        <r>   -38.4598     0.0000     0.0000     0.0000     0.0000     0.0000     0.0000     0.0000     0.0000     0.0000     0.0000     0.0000     0.0000     0.0000     0.0000     0.0000     0.0000 </r>
        <r>   -38.2690     0.0000     0.0000     0.0000     0.0000     0.0000     0.0000     0.0000     0.0000     0.0000     0.0000     0.0000     0.0000     0.0000     0.0000     0.0000     0.0000 </r>
        <r>   -38.0782     0.0000     0.0000     0.0000     0.0000     0.0000     0.0000     0.0000     0.0000     0.0000     0.0000     0.0000     0.0000     0.0000     0.0000     0.0000     0.0000 </r>
        <r>   -37.8874     0.0000     0.0000     0.0000     0.0000     0.0000     0.0000     0.0000     0.0000     0.0000     0.0000     0.0000     0.0000     0.0000     0.0000     0.0000     0.0000 </r>
        <r>   -37.6966     0.0000     0.0000     0.0000     0.0000     0.0000     0.0000     0.0000     0.0000     0.0000     0.0000     0.0000     0.0000     0.0000     0.0000     0.0000     0.0000 </r>
        <r>   -37.5058     0.0000     0.0000     0.0000     0.0000     0.0000     0.0000     0.0000     0.0000     0.0000     0.0000     0.0000     0.0000     0.0000     0.0000     0.0000     0.0000 </r>
        <r>   -37.3150     0.0000     0.0000     0.0000     0.0000     0.0000     0.0000     0.0000     0.0000     0.0000     0.0000     0.0000     0.0000     0.0000     0.0000     0.0000     0.0000 </r>
        <r>   -37.1242     0.0000     0.0000     0.0000     0.0000     0.0000     0.0000     0.0000     0.0000     0.0000     0.0000     0.0000     0.0000     0.0000     0.0000     0.0000     0.0000 </r>
        <r>   -36.9334     0.0000     0.0000     0.0000     0.0000     0.0000     0.0000     0.0000     0.0000     0.0000     0.0000     0.0000     0.0000     0.0000     0.0000     0.0000     0.0000 </r>
        <r>   -36.7427     0.0000     0.0000     0.0000     0.0000     0.0000     0.0000     0.0000     0.0000     0.0000     0.0000     0.0000     0.0000     0.0000     0.0000     0.0000     0.0000 </r>
        <r>   -36.5519     0.0000     0.0000     0.0000     0.0000     0.0000     0.0000     0.0000     0.0000     0.0000     0.0000     0.0000     0.0000     0.0000     0.0000     0.0000     0.0000 </r>
        <r>   -36.3611     0.0000     0.0000     0.0000     0.0000     0.0000     0.0000     0.0000     0.0000     0.0000     0.0000     0.0000     0.0000     0.0000     0.0000     0.0000     0.0000 </r>
        <r>   -36.1703     0.0000     0.0000     0.0000     0.0000     0.0000     0.0000     0.0000     0.0000     0.0000     0.0000     0.0000     0.0000     0.0000     0.0000     0.0000     0.0000 </r>
        <r>   -35.9795     0.0000     0.0000     0.0000     0.0000     0.0000     0.0000     0.0000     0.0000     0.0000     0.0000     0.0000     0.0000     0.0000     0.0000     0.0000     0.0000 </r>
        <r>   -35.7887     0.0000     0.0000     0.0000     0.0000     0.0000     0.0000     0.0000     0.0000     0.0000     0.0000     0.0000     0.0000     0.0000     0.0000     0.0000     0.0000 </r>
        <r>   -35.5979     0.0000     0.0000     0.0000     0.0000     0.0000     0.0000     0.0000     0.0000     0.0000     0.0000     0.0000     0.0000     0.0000     0.0000     0.0000     0.0000 </r>
        <r>   -35.4071     0.0000     0.0000     0.0000     0.0000     0.0000     0.0000     0.0000     0.0000     0.0000     0.0000     0.0000     0.0000     0.0000     0.0000     0.0000     0.0000 </r>
        <r>   -35.2163     0.0000     0.0000     0.0000     0.0000     0.0000     0.0000     0.0000     0.0000     0.0000     0.0000     0.0000     0.0000     0.0000     0.0000     0.0000     0.0000 </r>
        <r>   -35.0255     0.0000     0.0000     0.0000     0.0000     0.0000     0.0000     0.0000     0.0000     0.0000     0.0000     0.0000     0.0000     0.0000     0.0000     0.0000     0.0000 </r>
        <r>   -34.8347     0.0000     0.0000     0.0000     0.0000     0.0000     0.0000     0.0000     0.0000     0.0000     0.0000     0.0000     0.0000     0.0000     0.0000     0.0000     0.0000 </r>
        <r>   -34.6439     0.0000     0.0000     0.0000     0.0000     0.0000     0.0000     0.0000     0.0000     0.0000     0.0000     0.0000     0.0000     0.0000     0.0000     0.0000     0.0000 </r>
        <r>   -34.4532     0.0000     0.0000     0.0000     0.0000     0.0000     0.0000     0.0000     0.0000     0.0000     0.0000     0.0000     0.0000     0.0000     0.0000     0.0000     0.0000 </r>
        <r>   -34.2624     0.0000     0.0000     0.0000     0.0000     0.0000     0.0000     0.0000     0.0000     0.0000     0.0000     0.0000     0.0000     0.0000     0.0000     0.0000     0.0000 </r>
        <r>   -34.0716     0.0000     0.0000     0.0000     0.0000     0.0000     0.0000     0.0000     0.0000     0.0000     0.0000     0.0000     0.0000     0.0000     0.0000     0.0000     0.0000 </r>
        <r>   -33.8808     0.0000     0.0000     0.0000     0.0000     0.0000     0.0000     0.0000     0.0000     0.0000     0.0000     0.0000     0.0000     0.0000     0.0000     0.0000     0.0000 </r>
        <r>   -33.6900     0.0000     0.0000     0.0000     0.0000     0.0000     0.0000     0.0000     0.0000     0.0000     0.0000     0.0000     0.0000     0.0000     0.0000     0.0000     0.0000 </r>
        <r>   -33.4992     0.0000     0.0000     0.0000     0.0000     0.0000     0.0000     0.0000     0.0000     0.0000     0.0000     0.0000     0.0000     0.0000     0.0000     0.0000     0.0000 </r>
        <r>   -33.3084     0.0000     0.0000     0.0000     0.0000     0.0000     0.0000     0.0000     0.0000     0.0000     0.0000     0.0000     0.0000     0.0000     0.0000     0.0000     0.0000 </r>
        <r>   -33.1176     0.0000     0.0000     0.0000     0.0000     0.0000     0.0000     0.0000     0.0000     0.0000     0.0000     0.0000     0.0000     0.0000     0.0000     0.0000     0.0000 </r>
        <r>   -32.9268     0.0000     0.0000     0.0000     0.0000     0.0000     0.0000     0.0000     0.0000     0.0000     0.0000     0.0000     0.0000     0.0000     0.0000     0.0000     0.0000 </r>
        <r>   -32.7360     0.0000     0.0000     0.0000     0.0000     0.0000     0.0000     0.0000     0.0000     0.0000     0.0000     0.0000     0.0000     0.0000     0.0000     0.0000     0.0000 </r>
        <r>   -32.5452     0.0000     0.0000     0.0000     0.0000     0.0000     0.0000     0.0000     0.0000     0.0000     0.0000     0.0000     0.0000     0.0000     0.0000     0.0000     0.0000 </r>
        <r>   -32.3545     0.0000     0.0000     0.0000     0.0000     0.0000     0.0000     0.0000     0.0000     0.0000     0.0000     0.0000     0.0000     0.0000     0.0000     0.0000     0.0000 </r>
        <r>   -32.1637     0.0000     0.0000     0.0000     0.0000     0.0000     0.0000     0.0000     0.0000     0.0000     0.0000     0.0000     0.0000     0.0000     0.0000     0.0000     0.0000 </r>
        <r>   -31.9729     0.0000     0.0000     0.0000     0.0000     0.0000     0.0000     0.0000     0.0000     0.0000     0.0000     0.0000     0.0000     0.0000     0.0000     0.0000     0.0000 </r>
        <r>   -31.7821     0.0000     0.0000     0.0000     0.0000     0.0000     0.0000     0.0000     0.0000     0.0000     0.0000     0.0000     0.0000     0.0000     0.0000     0.0000     0.0000 </r>
        <r>   -31.5913     0.0000     0.0000     0.0000     0.0000     0.0000     0.0000     0.0000     0.0000     0.0000     0.0000     0.0000     0.0000     0.0000     0.0000     0.0000     0.0000 </r>
        <r>   -31.4005     0.0000     0.0000     0.0000     0.0000     0.0000     0.0000     0.0000     0.0000     0.0000     0.0000     0.0000     0.0000     0.0000     0.0000     0.0000     0.0000 </r>
        <r>   -31.2097     0.0000     0.0000     0.0000     0.0000     0.0000     0.0000     0.0000     0.0000     0.0000     0.0000     0.0000     0.0000     0.0000     0.0000     0.0000     0.0000 </r>
        <r>   -31.0189     0.0000     0.0000     0.0000     0.0000     0.0000     0.0000     0.0000     0.0000     0.0000     0.0000     0.0000     0.0000     0.0000     0.0000     0.0000     0.0000 </r>
        <r>   -30.8281     0.0000     0.0000     0.0000     0.0000     0.0000     0.0000     0.0000     0.0000     0.0000     0.0000     0.0000     0.0000     0.0000     0.0000     0.0000     0.0000 </r>
[...]
        <r>     5.4222     0.0000     0.0000     0.0000     0.0000     0.0000     0.0000     0.0000     0.0000     0.0000     0.0000     0.0000     0.0000     0.0000     0.0000     0.0000     0.0000 </r>
        <r>     5.6130     0.0000     0.0000     0.0000     0.0000     0.0000     0.0000     0.0000     0.0000     0.0000     0.0000     0.0000     0.0000     0.0000     0.0000     0.0000     0.0000 </r>
        <r>     5.8038     0.0000     0.0000     0.0000     0.0000     0.0000     0.0000     0.0000     0.0000     0.0000     0.0000     0.0000     0.0000     0.0000     0.0000     0.0000     0.0000 </r>
        <r>     5.9946     0.0000     0.0000     0.0000     0.0000     0.0000     0.0000     0.0000     0.0000     0.0000     0.0000     0.0000     0.0000     0.0000     0.0000     0.0000     0.0000 </r>
        <r>     6.1854     0.0000     0.0000     0.0000     0.0000     0.0000     0.0000     0.0000     0.0000     0.0000     0.0000     0.0000     0.0000     0.0000     0.0000     0.0000     0.0000 </r>
        <r>     6.3762     0.0000     0.0000     0.0000     0.0000     0.0000     0.0000     0.0000     0.0000     0.0000     0.0000     0.0000     0.0000     0.0000     0.0000     0.0000     0.0000 </r>
        <r>     6.5670     0.0000     0.0000     0.0000     0.0000     0.0000     0.0000     0.0000     0.0000     0.0000     0.0000     0.0000     0.0000     0.0000     0.0000     0.0000     0.0000 </r>
        <r>     6.7578     0.0000     0.0000     0.0000     0.0000     0.0000     0.0000     0.0000     0.0000     0.0000     0.0000     0.0000     0.0000     0.0000     0.0000     0.0000     0.0000 </r>
       </set>
      </set>
     </set>
    </array>
   </partial>
  </dos>
  <projected>
   <eigenvalues>
    <array>
     <dimension dim="1">band</dimension>
     <dimension dim="2">kpoint</dimension>
     <dimension dim="3">spin</dimension>
     <field>eigene</field>
     <field>occ</field>
     <set>
      <set comment="spin 1">
       <set comment="kpoint 1">
        <r>  -47.8779    1.0000 </r>
        <r>  -27.8144    1.0000 </r>
        <r>  -27.8144    1.0000 </r>
        <r>  -27.8144    1.0000 </r>
        <r>   -3.9874    1.0000 </r>
        <r>   -2.6853    0.5000 </r>
        <r>   -2.6853    0.5000 </r>
        <r>   -2.2463    0.0000 </r>
        <r>   -2.2462    0.0000 </r>
        <r>   -2.2462    0.0000 </r>
        <r>   -1.1339    0.0000 </r>
        <r>   -1.1338    0.0000 </r>
        <r>   -1.1335    0.0000 </r>
        <r>   -0.2325    0.0000 </r>
        <r>    0.6891    0.0000 </r>
        <r>    0.6891    0.0000 </r>
        <r>    1.4893    0.0000 </r>
        <r>    1.4893    0.0000 </r>
        <r>    1.4915    0.0000 </r>
        <r>    1.7862    0.0000 </r>
        <r>    1.9965    0.0000 </r>
        <r>    1.9974    0.0000 </r>
        <r>    1.9975    0.0000 </r>
        <r>    2.1137    0.0000 </r>
        <r>    2.1160    0.0000 </r>
        <r>    2.1171    0.0000 </r>
        <r>    2.3307    0.0000 </r>
        <r>    2.3335    0.0000 </r>
        <r>    3.3348    0.0000 </r>
        <r>    3.6587    0.0000 </r>
        <r>    3.6680    0.0000 </r>
        <r>    3.6687    0.0000 </r>
        <r>    3.7432    0.0000 </r>
        <r>    3.7592    0.0000 </r>
        <r>    3.8610    0.0000 </r>
        <r>    4.1561    0.0000 </r>
       </set>
      </set>
      <set comment="spin 2">
       <set comment="kpoint 1">
        <r>  -47.5066    1.0000 </r>
        <r>  -27.3656    1.0000 </r>
        <r>  -27.3656    1.0000 </r>
        <r>  -27.3656    1.0000 </r>
        <r>   -3.6495    1.0000 </r>
        <r>   -2.0239    0.0000 </r>
        <r>   -2.0234    0.0000 </r>
        <r>   -2.0233    0.0000 </r>
        <r>   -1.7967    0.0000 </r>
        <r>   -1.7965    0.0000 </r>
        <r>   -0.9225    0.0000 </r>
        <r>   -0.9225    0.0000 </r>
        <r>   -0.9224    0.0000 </r>
        <r>   -0.1897    0.0000 </r>
        <r>    0.8088    0.0000 </r>
        <r>    0.8088    0.0000 </r>
        <r>    1.5386    0.0000 </r>
        <r>    1.5387    0.0000 </r>
        <r>    1.5389    0.0000 </r>
        <r>    1.8239    0.0000 </r>
        <r>    2.0296    0.0000 </r>
        <r>    2.0298    0.0000 </r>
        <r>    2.0306    0.0000 </r>
        <r>    2.1521    0.0000 </r>
        <r>    2.1531    0.0000 </r>
        <r>    2.1538    0.0000 </r>
        <r>    2.3911    0.0000 </r>
        <r>    2.3913    0.0000 </r>
        <r>    3.3202    0.0000 </r>
        <r>    3.6177    0.0000 </r>
        <r>    3.6880    0.0000 </r>
        <r>    3.6906    0.0000 </r>
        <r>    3.6908    0.0000 </r>
        <r>    3.7149    0.0000 </r>
        <r>    3.7267    0.0000 </r>
        <r>    4.1304    0.0000 </r>
       </set>
      </set>
     </set>
    </array>
   </eigenvalues>
   <array>
    <dimension dim="1">ion</dimension>
    <dimension dim="2">band</dimension>
    <dimension dim="3">kpoint</dimension>
    <dimension dim="4">spin</dimension>
    <field>    s</field>
    <field>   py</field>
    <field>   pz</field>
    <field>   px</field>
    <field>  dxy</field>
    <field>  dyz</field>
    <field>  dz2</field>
    <field>  dxz</field>
    <field>x2-y2</field>
    <field>fy3x2</field>
    <field> fxyz</field>
    <field> fyz2</field>
    <field>  fz3</field>
    <field> fxz2</field>
    <field> fzx2</field>
    <field>  fx3</field>
    <set>
     <set comment="spin1">
      <set comment="kpoint 1">
       <set comment="band 1">
        <r>  0.9977  0.0000  0.0000  0.0000  0.0000  0.0000  0.0000  0.0000  0.0000  0.0000  0.0000  0.0000  0.0000  0.0000  0.0000  0.0000 </r>
       </set>
       <set comment="band 2">
        <r>  0.0000  0.0000  0.9799  0.0000  0.0000  0.0000  0.0000  0.0000  0.0000  0.0000  0.0000  0.0000  0.0001  0.0000  0.0000  0.0000 </r>
       </set>
       <set comment="band 3">
        <r>  0.0000  0.0051  0.0000  0.9748  0.0000  0.0000  0.0000  0.0000  0.0000  0.0000  0.0000  0.0000  0.0000  0.0000  0.0000  0.0000 </r>
       </set>
       <set comment="band 4">
        <r>  0.0000  0.9748  0.0000  0.0051  0.0000  0.0000  0.0000  0.0000  0.0000  0.0000  0.0000  0.0000  0.0000  0.0000  0.0000  0.0000 </r>
       </set>
       <set comment="band 5">
        <r>  0.2389  0.0000  0.0000  0.0000  0.0000  0.0000  0.0000  0.0000  0.0000  0.0000  0.0000  0.0000  0.0000  0.0000  0.0000  0.0000 </r>
       </set>
       <set comment="band 6">
        <r>  0.0000  0.0000  0.0000  0.0000  0.0000  0.0000  0.1928  0.0000  0.4706  0.0000  0.0000  0.0000  0.0000  0.0000  0.0000  0.0000 </r>
       </set>
       <set comment="band 7">
        <r>  0.0000  0.0000  0.0000  0.0000  0.0000  0.0000  0.4705  0.0000  0.1928  0.0000  0.0000  0.0000  0.0000  0.0000  0.0000  0.0000 </r>
       </set>
       <set comment="band 8">
        <r>  0.0000  0.0000  0.0000  0.0000  0.3727  0.0501  0.0000  0.2369  0.0000  0.0000  0.0000  0.0000  0.0000  0.0000  0.0000  0.0000 </r>
       </set>
       <set comment="band 9">
        <r>  0.0000  0.0000  0.0000  0.0000  0.0004  0.5580  0.0000  0.1010  0.0000  0.0000  0.0000  0.0000  0.0000  0.0000  0.0000  0.0000 </r>
       </set>
       <set comment="band 10">
        <r>  0.0000  0.0000  0.0000  0.0000  0.2861  0.0513  0.0000  0.3211  0.0000  0.0000  0.0000  0.0000  0.0000  0.0000  0.0000  0.0000 </r>
       </set>
       <set comment="band 11">
        <r>  0.0000  0.0665  0.0152  0.1167  0.0000  0.0000  0.0000  0.0000  0.0000  0.0000  0.0000  0.0000  0.0000  0.0000  0.0000  0.0000 </r>
       </set>
       <set comment="band 12">
        <r>  0.0000  0.0758  0.0426  0.0795  0.0000  0.0000  0.0000  0.0000  0.0000  0.0000  0.0000  0.0000  0.0000  0.0000  0.0000  0.0000 </r>
       </set>
       <set comment="band 13">
        <r>  0.0000  0.0556  0.1392  0.0019  0.0000  0.0000  0.0000  0.0000  0.0000  0.0000  0.0000  0.0000  0.0000  0.0000  0.0000  0.0000 </r>
       </set>
       <set comment="band 14">
        <r>  0.0438  0.0000  0.0000  0.0000  0.0000  0.0000  0.0000  0.0000  0.0000  0.0000  0.0000  0.0000  0.0000  0.0000  0.0000  0.0000 </r>
       </set>
       <set comment="band 15">
        <r>  0.0000  0.0000  0.0000  0.0000  0.0000  0.0000  0.0001  0.0000  0.0522  0.0000  0.0000  0.0000  0.0000  0.0000  0.0000  0.0000 </r>
       </set>
       <set comment="band 16">
        <r>  0.0000  0.0000  0.0000  0.0000  0.0000  0.0000  0.0521  0.0000  0.0001  0.0000  0.0000  0.0000  0.0000  0.0000  0.0000  0.0000 </r>
       </set>
       <set comment="band 17">
        <r>  0.0000  0.0444  0.0056  0.0095  0.0000  0.0001  0.0000  0.0000  0.0000  0.0003  0.0000  0.0002  0.0001  0.0000  0.0000  0.0001 </r>
       </set>
       <set comment="band 18">
        <r>  0.0000  0.0041  0.0104  0.0452  0.0000  0.0000  0.0000  0.0000  0.0000  0.0000  0.0000  0.0000  0.0001  0.0002  0.0000  0.0003 </r>
       </set>
       <set comment="band 19">
        <r>  0.0000  0.0117  0.0452  0.0043  0.0000  0.0000  0.0000  0.0001  0.0000  0.0001  0.0000  0.0001  0.0005  0.0000  0.0000  0.0000 </r>
       </set>
       <set comment="band 20">
        <r>  0.0413  0.0000  0.0001  0.0000  0.0000  0.0000  0.0000  0.0000  0.0000  0.0000  0.0000  0.0000  0.0000  0.0000  0.0000  0.0000 </r>
       </set>
       <set comment="band 21">
        <r>  0.0000  0.0001  0.0001  0.0000  0.0082  0.0303  0.0000  0.0465  0.0000  0.0000  0.0000  0.0000  0.0000  0.0000  0.0000  0.0000 </r>
       </set>
       <set comment="band 22">
        <r>  0.0000  0.0000  0.0000  0.0000  0.0036  0.0545  0.0000  0.0271  0.0000  0.0000  0.0000  0.0000  0.0000  0.0000  0.0000  0.0000 </r>
       </set>
       <set comment="band 23">
        <r>  0.0000  0.0000  0.0000  0.0000  0.0735  0.0001  0.0000  0.0116  0.0000  0.0000  0.0000  0.0000  0.0000  0.0000  0.0000  0.0000 </r>
       </set>
       <set comment="band 24">
        <r>  0.0000  0.0000  0.0001  0.0003  0.0002  0.0001  0.0001  0.0000  0.0001  0.0005  0.0000  0.0008  0.0000  0.0004  0.0001  0.0003 </r>
       </set>
       <set comment="band 25">
        <r>  0.0000  0.0000  0.0000  0.0000  0.0001  0.0001  0.0000  0.0000  0.0000  0.0002  0.0000  0.0003  0.0000  0.0008  0.0001  0.0005 </r>
       </set>
       <set comment="band 26">
        <r>  0.0000  0.0000  0.0000  0.0000  0.0001  0.0001  0.0000  0.0000  0.0000  0.0001  0.0000  0.0001  0.0000  0.0000  0.0018  0.0000 </r>
       </set>
       <set comment="band 27">
        <r>  0.0000  0.0000  0.0001  0.0000  0.0000  0.0000  0.0159  0.0000  0.0023  0.0000  0.0000  0.0000  0.0000  0.0000  0.0000  0.0000 </r>
       </set>
       <set comment="band 28">
        <r>  0.0000  0.0000  0.0000  0.0000  0.0000  0.0000  0.0024  0.0000  0.0159  0.0000  0.0000  0.0000  0.0000  0.0000  0.0000  0.0000 </r>
       </set>
       <set comment="band 29">
        <r>  0.0000  0.0008  0.0005  0.0131  0.0000  0.0005  0.0000  0.0001  0.0000  0.0000  0.0043  0.0000  0.0000  0.0001  0.0000  0.0001 </r>
       </set>
       <set comment="band 30">
        <r>  0.0000  0.0001  0.0044  0.0035  0.0175  0.0083  0.0000  0.0000  0.0000  0.0000  0.0000  0.0000  0.0000  0.0000  0.0000  0.0000 </r>
       </set>
       <set comment="band 31">
        <r>  0.0000  0.0000  0.0003  0.0032  0.0106  0.0166  0.0000  0.0003  0.0000  0.0000  0.0000  0.0000  0.0000  0.0000  0.0000  0.0000 </r>
       </set>
       <set comment="band 32">
        <r>  0.0000  0.0021  0.0002  0.0005  0.0000  0.0001  0.0000  0.0278  0.0000  0.0000  0.0000  0.0000  0.0000  0.0000  0.0000  0.0000 </r>
       </set>
       <set comment="band 33">
        <r>  0.0112  0.0026  0.0002  0.0001  0.0002  0.0000  0.0025  0.0000  0.0000  0.0000  0.0002  0.0000  0.0028  0.0004  0.0000  0.0010 </r>
       </set>
       <set comment="band 34">
        <r>  0.0200  0.0000  0.0023  0.0006  0.0000  0.0000  0.0000  0.0000  0.0000  0.0000  0.0001  0.0000  0.0001  0.0000  0.0000  0.0001 </r>
       </set>
       <set comment="band 35">
        <r>  0.0000  0.0178  0.0066  0.0249  0.0004  0.0015  0.0122  0.0002  0.0018  0.0000  0.0001  0.0000  0.0022  0.0000  0.0000  0.0000 </r>
       </set>
       <set comment="band 36">
        <r>  0.0332  0.0008  0.0030  0.0087  0.0000  0.0004  0.0022  0.0006  0.0003  0.0007  0.0002  0.0004  0.0004  0.0000  0.0000  0.0000 </r>
       </set>
      </set>
     </set>
     <set comment="spin2">
      <set comment="kpoint 1">
       <set comment="band 1">
        <r>  0.9970  0.0000  0.0000  0.0000  0.0000  0.0000  0.0000  0.0000  0.0000  0.0000  0.0000  0.0000  0.0000  0.0000  0.0000  0.0000 </r>
       </set>
       <set comment="band 2">
        <r>  0.0000  0.0000  0.9762  0.0000  0.0000  0.0000  0.0000  0.0000  0.0000  0.0000  0.0000  0.0000  0.0001  0.0000  0.0000  0.0000 </r>
       </set>
       <set comment="band 3">
        <r>  0.0000  0.9064  0.0000  0.0698  0.0000  0.0000  0.0000  0.0000  0.0000  0.0000  0.0000  0.0000  0.0000  0.0000  0.0000  0.0000 </r>
       </set>
       <set comment="band 4">
        <r>  0.0000  0.0698  0.0000  0.9064  0.0000  0.0000  0.0000  0.0000  0.0000  0.0000  0.0000  0.0000  0.0000  0.0000  0.0000  0.0000 </r>
       </set>
       <set comment="band 5">
        <r>  0.2254  0.0000  0.0000  0.0000  0.0000  0.0000  0.0000  0.0000  0.0000  0.0000  0.0000  0.0000  0.0000  0.0000  0.0000  0.0000 </r>
       </set>
       <set comment="band 6">
        <r>  0.0000  0.0000  0.0000  0.0000  0.5284  0.1163  0.0000  0.0029  0.0001  0.0000  0.0000  0.0000  0.0000  0.0000  0.0000  0.0000 </r>
       </set>
       <set comment="band 7">
        <r>  0.0000  0.0000  0.0000  0.0000  0.0794  0.4323  0.0000  0.1334  0.0014  0.0000  0.0000  0.0000  0.0000  0.0000  0.0000  0.0000 </r>
       </set>
       <set comment="band 8">
        <r>  0.0000  0.0000  0.0000  0.0000  0.0397  0.0972  0.0007  0.5081  0.0002  0.0000  0.0000  0.0000  0.0000  0.0000  0.0000  0.0000 </r>
       </set>
       <set comment="band 9">
        <r>  0.0000  0.0000  0.0000  0.0000  0.0000  0.0002  0.3207  0.0012  0.3011  0.0000  0.0000  0.0000  0.0000  0.0000  0.0000  0.0000 </r>
       </set>
       <set comment="band 10">
        <r>  0.0000  0.0000  0.0000  0.0000  0.0001  0.0007  0.3018  0.0000  0.3205  0.0000  0.0000  0.0000  0.0000  0.0000  0.0000  0.0000 </r>
       </set>
       <set comment="band 11">
        <r>  0.0000  0.1638  0.0028  0.0118  0.0000  0.0000  0.0000  0.0001  0.0000  0.0000  0.0000  0.0000  0.0000  0.0000  0.0000  0.0000 </r>
       </set>
       <set comment="band 12">
        <r>  0.0000  0.0134  0.0760  0.0900  0.0000  0.0000  0.0000  0.0000  0.0000  0.0000  0.0000  0.0000  0.0000  0.0000  0.0000  0.0000 </r>
       </set>
       <set comment="band 13">
        <r>  0.0000  0.0011  0.1004  0.0778  0.0000  0.0000  0.0000  0.0000  0.0000  0.0000  0.0000  0.0000  0.0000  0.0000  0.0000  0.0000 </r>
       </set>
       <set comment="band 14">
        <r>  0.0434  0.0000  0.0000  0.0000  0.0000  0.0000  0.0000  0.0000  0.0000  0.0000  0.0000  0.0000  0.0000  0.0000  0.0000  0.0000 </r>
       </set>
       <set comment="band 15">
        <r>  0.0000  0.0000  0.0000  0.0000  0.0000  0.0000  0.0494  0.0000  0.0190  0.0000  0.0000  0.0000  0.0000  0.0000  0.0000  0.0000 </r>
       </set>
       <set comment="band 16">
        <r>  0.0000  0.0000  0.0000  0.0000  0.0000  0.0000  0.0190  0.0000  0.0493  0.0000  0.0000  0.0000  0.0000  0.0000  0.0000  0.0000 </r>
       </set>
       <set comment="band 17">
        <r>  0.0000  0.0034  0.0480  0.0102  0.0000  0.0000  0.0000  0.0000  0.0000  0.0000  0.0000  0.0000  0.0002  0.0000  0.0000  0.0000 </r>
       </set>
       <set comment="band 18">
        <r>  0.0000  0.0592  0.0035  0.0001  0.0000  0.0000  0.0000  0.0000  0.0000  0.0002  0.0000  0.0001  0.0000  0.0000  0.0000  0.0000 </r>
       </set>
       <set comment="band 19">
        <r>  0.0000  0.0002  0.0103  0.0509  0.0000  0.0000  0.0000  0.0000  0.0000  0.0000  0.0000  0.0000  0.0000  0.0001  0.0000  0.0001 </r>
       </set>
       <set comment="band 20">
        <r>  0.0414  0.0000  0.0000  0.0000  0.0000  0.0000  0.0000  0.0000  0.0000  0.0000  0.0000  0.0000  0.0000  0.0000  0.0000  0.0000 </r>
       </set>
       <set comment="band 21">
        <r>  0.0000  0.0000  0.0000  0.0000  0.0629  0.0237  0.0000  0.0011  0.0000  0.0000  0.0000  0.0000  0.0000  0.0000  0.0000  0.0000 </r>
       </set>
       <set comment="band 22">
        <r>  0.0000  0.0000  0.0000  0.0000  0.0224  0.0648  0.0000  0.0017  0.0000  0.0000  0.0000  0.0000  0.0000  0.0000  0.0000  0.0000 </r>
       </set>
       <set comment="band 23">
        <r>  0.0000  0.0000  0.0000  0.0000  0.0024  0.0003  0.0000  0.0857  0.0000  0.0000  0.0000  0.0000  0.0000  0.0000  0.0000  0.0000 </r>
       </set>
       <set comment="band 24">
        <r>  0.0000  0.0000  0.0000  0.0000  0.0002  0.0000  0.0000  0.0006  0.0000  0.0006  0.0000  0.0010  0.0000  0.0001  0.0000  0.0000 </r>
       </set>
       <set comment="band 25">
        <r>  0.0000  0.0000  0.0000  0.0000  0.0000  0.0002  0.0000  0.0001  0.0000  0.0000  0.0000  0.0000  0.0000  0.0000  0.0016  0.0000 </r>
       </set>
       <set comment="band 26">
        <r>  0.0000  0.0000  0.0000  0.0000  0.0002  0.0001  0.0000  0.0000  0.0000  0.0000  0.0000  0.0001  0.0000  0.0010  0.0001  0.0006 </r>
       </set>
       <set comment="band 27">
        <r>  0.0000  0.0000  0.0000  0.0000  0.0000  0.0000  0.0000  0.0000  0.0224  0.0000  0.0000  0.0000  0.0000  0.0000  0.0000  0.0000 </r>
       </set>
       <set comment="band 28">
        <r>  0.0000  0.0000  0.0000  0.0000  0.0000  0.0000  0.0224  0.0001  0.0000  0.0000  0.0000  0.0000  0.0000  0.0000  0.0000  0.0000 </r>
       </set>
       <set comment="band 29">
        <r>  0.0000  0.0012  0.0003  0.0001  0.0036  0.0001  0.0000  0.0015  0.0000  0.0000  0.0051  0.0000  0.0000  0.0000  0.0000  0.0000 </r>
       </set>
       <set comment="band 30">
        <r>  0.0028  0.0051  0.0057  0.0257  0.0031  0.0004  0.0000  0.0022  0.0000  0.0001  0.0003  0.0000  0.0002  0.0001  0.0000  0.0001 </r>
       </set>
       <set comment="band 31">
        <r>  0.0000  0.0016  0.0001  0.0000  0.0045  0.0210  0.0000  0.0056  0.0000  0.0000  0.0000  0.0000  0.0000  0.0000  0.0000  0.0000 </r>
       </set>
       <set comment="band 32">
        <r>  0.0000  0.0005  0.0000  0.0001  0.0057  0.0090  0.0000  0.0167  0.0000  0.0000  0.0000  0.0000  0.0000  0.0000  0.0000  0.0000 </r>
       </set>
       <set comment="band 33">
        <r>  0.0088  0.0049  0.0020  0.0096  0.0058  0.0000  0.0000  0.0024  0.0000  0.0001  0.0001  0.0000  0.0000  0.0000  0.0000  0.0000 </r>
       </set>
       <set comment="band 34">
        <r>  0.0146  0.0001  0.0001  0.0003  0.0084  0.0000  0.0000  0.0038  0.0000  0.0000  0.0005  0.0000  0.0001  0.0000  0.0000  0.0000 </r>
       </set>
       <set comment="band 35">
        <r>  0.0047  0.0077  0.0026  0.0096  0.0002  0.0009  0.0004  0.0000  0.0043  0.0005  0.0002  0.0003  0.0002  0.0001  0.0000  0.0001 </r>
       </set>
       <set comment="band 36">
        <r>  0.0219  0.0086  0.0228  0.0018  0.0000  0.0000  0.0000  0.0000  0.0117  0.0000  0.0000  0.0000  0.0000  0.0000  0.0000  0.0001 </r>
       </set>
      </set>
     </set>
    </set>
   </array>
  </projected>
 </calculation>
 <structure name="finalpos" >
  <crystal>
   <varray name="basis" >
    <v>      10.00000000       0.00000000       0.00000000 </v>
    <v>       0.00000000      10.00000000       0.00000000 </v>
    <v>       0.00000000       0.00000000      10.00000000 </v>
   </varray>
   <i name="volume">   1000.00000000 </i>
   <varray name="rec_basis" >
    <v>       0.10000000       0.00000000       0.00000000 </v>
    <v>       0.00000000       0.10000000       0.00000000 </v>
    <v>       0.00000000       0.00000000       0.10000000 </v>
   </varray>
  </crystal>
  <varray name="positions" >
   <v>       0.50000000       0.50000000       0.50000000 </v>
  </varray>
 </structure>
</modeling>
