       N       E                     dE             d eps       ncg     rms          ort
DAV:   1     0.821548551554E+02    0.82155E+02   -0.23045E+03    36   0.175E+02
DAV:   2     0.549082771430E+02   -0.27247E+02   -0.27199E+02    36   0.253E+01
DAV:   3     0.401513047137E+02   -0.14757E+02   -0.14464E+02    36   0.149E+01
DAV:   4     0.190966409241E+02   -0.21055E+02   -0.21055E+02    36   0.199E+01
DAV:   5     0.657481529858E+01   -0.12522E+02   -0.12522E+02    36   0.194E+01
SDA:   6     0.859916726961E+01    0.20244E+01   -0.14190E+02    36   0.355E+02 0.000E+00
DMP:   7     0.192666565525E+01   -0.66725E+01   -0.64709E+01    36   0.165E+02-0.725E+00
DMP:   8     0.899014296747E+01    0.70635E+01   -0.74886E+02    36   0.206E+03-0.503E+02
DMP:   9     0.760685076261E+02    0.67078E+02   -0.58825E+03    36   0.163E+04-0.410E+03
DMP:  10     0.100497112288E+03    0.24429E+02   -0.59021E+03    36   0.166E+04-0.488E+03
DMP:  11     0.702346126042E+02   -0.30262E+02   -0.44660E+03    36   0.133E+04-0.552E+03
DMP:  12     0.999083256550E+02    0.29674E+02   -0.58036E+03    36   0.166E+04-0.559E+03
DMP:  13     0.155110055120E+02   -0.84397E+02   -0.53944E+02    36   0.144E+03-0.241E+02
DMP:  14     0.115482377870E+02   -0.39628E+01   -0.53315E+02    36   0.142E+03-0.228E+02
DMP:  15     0.743703195732E+01   -0.41112E+01   -0.39279E+02    36   0.105E+03-0.187E+02
DMP:  16     0.459920670725E+01   -0.28378E+01   -0.21495E+02    36   0.596E+02-0.153E+02
DMP:  17     0.254010883716E+01   -0.20591E+01   -0.10114E+02    36   0.298E+02-0.117E+02
DMP:  18     0.978526119178E+00   -0.15616E+01   -0.29219E+01    36   0.915E+01-0.483E+01
DMP:  19     0.243730103064E+00   -0.73480E+00   -0.40955E+00    36   0.139E+01-0.962E+00
DMP:  20     0.718318206481E-01   -0.17190E+00   -0.64704E-01    36   0.140E+00 0.576E-01
DMP:  21     0.336337806630E-01   -0.38198E-01   -0.44852E-01    36   0.924E-01 0.517E-01
DMP:  22     0.106017396348E-01   -0.23032E-01   -0.15697E-01    36   0.356E-01 0.955E-02
DMP:  23    -0.845787278138E-03   -0.11448E-01   -0.69551E-02    36   0.102E-01 0.189E-01
DMP:  24    -0.559762506111E-02   -0.47518E-02   -0.38058E-02    36   0.712E-02 0.628E-02
DMP:  25    -0.841532403808E-02   -0.28177E-02   -0.16184E-02    36   0.228E-02 0.463E-02
DMP:  26    -0.970773753659E-02   -0.12924E-02   -0.91097E-03    36   0.136E-02 0.240E-02
DMP:  27    -0.104448348002E-01   -0.73710E-03   -0.46076E-03    36   0.634E-03 0.136E-02
DMP:  28    -0.108391512850E-01   -0.39432E-03   -0.27248E-03    36   0.371E-03 0.813E-03
DMP:  29    -0.110685924809E-01   -0.22944E-03   -0.16127E-03    36   0.222E-03 0.475E-03
DMP:  30    -0.112116198468E-01   -0.14303E-03   -0.10430E-03    36   0.144E-03 0.306E-03
DMP:  31    -0.113049657983E-01   -0.93346E-04   -0.68816E-04    36   0.963E-04 0.198E-03
DMP:  32    -0.113660358554E-01   -0.61070E-04   -0.46744E-04    36   0.659E-04 0.133E-03
DMP:  33    -0.114076009131E-01   -0.41565E-04   -0.31381E-04    36   0.441E-04 0.900E-04
   1 F= -.11407601E-01 E0= -.11407601E-01  d E =-.114076E-01  mag=    -0.0000
