<?xml version="1.0" encoding="ISO-8859-1"?>
<modeling>
 <generator>
  <i name="program" type="string">vasp </i>
  <i name="version" type="string">5.4.4.18Apr17-6-g9f103f2a35  </i>
  <i name="subversion" type="string">(build Nov 08 2019 15:19:53) gamma-only         parallel </i>
  <i name="platform" type="string">LinuxIFC </i>
  <i name="date" type="string">2020 11 30 </i>
  <i name="time" type="string">09:31:56 </i>
 </generator>
 <incar>
  <i type="string" name="PREC">accurate</i>
  <i type="string" name="ALGO"> D</i>
  <i type="int" name="ISPIN">     2</i>
  <i type="int" name="NELM">   300</i>
  <i type="int" name="IBRION">     2</i>
  <i name="EDIFF">      0.00005000</i>
  <i type="int" name="NSW">    99</i>
  <i type="int" name="ISIF">     2</i>
  <i name="ENCUT">    520.00000000</i>
  <v name="MAGMOM">      0.60000000</v>
  <i type="string" name="LREAL"> Auto</i>
  <i type="int" name="ISMEAR">     0</i>
  <i name="SIGMA">      0.05000000</i>
  <i type="logical" name="LWAVE"> F  </i>
  <i type="int" name="LORBIT">    11</i>
  <i type="logical" name="LASPH"> T  </i>
  <v type="int" name="KPOINT_BSE">    -1     0     0     0</v>
  <i type="int" name="NELM">   300</i>
  <i type="logical" name="LASPH"> T  </i>
 </incar>
 <structure name="primitive_cell" >
  <crystal>
   <varray name="basis" >
    <v>      10.00000000       0.00000000       0.00000000 </v>
    <v>       0.00000000      10.00000000       0.00000000 </v>
    <v>       0.00000000       0.00000000      10.00000000 </v>
   </varray>
   <i name="volume">   1000.00000000 </i>
   <varray name="rec_basis" >
    <v>       0.10000000       0.00000000       0.00000000 </v>
    <v>       0.00000000       0.10000000       0.00000000 </v>
    <v>       0.00000000       0.00000000       0.10000000 </v>
   </varray>
  </crystal>
  <varray name="positions" >
   <v>      -0.50000000      -0.50000000      -0.50000000 </v>
  </varray>
 </structure>
 <varray name="primitive_index" >
  <v type="int" >        1 </v>
 </varray>
 <kpoints>
  <generation param="Gamma">
   <v type="int" name="divisions">       1        1        1 </v>
   <v name="usershift">      0.00000000       0.00000000       0.00000000 </v>
   <v name="genvec1">      1.00000000       0.00000000       0.00000000 </v>
   <v name="genvec2">      0.00000000       1.00000000       0.00000000 </v>
   <v name="genvec3">      0.00000000       0.00000000       1.00000000 </v>
   <v name="shift">      0.00000000       0.00000000       0.00000000 </v>
  </generation>
  <varray name="kpointlist" >
   <v>       0.00000000       0.00000000       0.00000000 </v>
  </varray>
  <varray name="weights" >
   <v>       1.00000000 </v>
  </varray>
 </kpoints>
 <parameters>
  <separator name="general" >
   <i type="string" name="SYSTEM">unknown system</i>
   <i type="logical" name="LCOMPAT"> F  </i>
  </separator>
  <separator name="electronic" >
   <i type="string" name="PREC">accura</i>
   <i name="ENMAX">    520.00000000</i>
   <i name="ENAUG">    218.46900000</i>
   <i name="EDIFF">      0.00005000</i>
   <i type="int" name="IALGO">    53</i>
   <i type="int" name="IWAVPR">    11</i>
   <i type="int" name="NBANDS">    36</i>
   <i name="NELECT">      8.00000000</i>
   <i type="int" name="TURBO">     0</i>
   <i type="int" name="IRESTART">     0</i>
   <i type="int" name="NREBOOT">     0</i>
   <i type="int" name="NMIN">     0</i>
   <i name="EREF">      0.00000000</i>
   <separator name="electronic smearing" >
    <i type="int" name="ISMEAR">     0</i>
    <i name="SIGMA">      0.05000000</i>
    <i name="KSPACING">      0.50000000</i>
    <i type="logical" name="KGAMMA"> T  </i>
   </separator>
   <separator name="electronic projectors" >
    <i type="logical" name="LREAL"> T  </i>
    <v name="ROPT">     -0.00025000</v>
    <i type="int" name="LMAXPAW">  -100</i>
    <i type="int" name="LMAXMIX">     2</i>
    <i type="logical" name="NLSPLINE"> F  </i>
   </separator>
   <separator name="electronic startup" >
    <i type="int" name="ISTART">     0</i>
    <i type="int" name="ICHARG">     2</i>
    <i type="int" name="INIWAV">     1</i>
   </separator>
   <separator name="electronic spin" >
    <i type="int" name="ISPIN">     2</i>
    <i type="logical" name="LNONCOLLINEAR"> F  </i>
    <v name="MAGMOM">      0.60000000</v>
    <i name="NUPDOWN">     -1.00000000</i>
    <i type="logical" name="LSORBIT"> F  </i>
    <v name="SAXIS">      0.00000000      0.00000000      1.00000000</v>
    <i type="logical" name="LSPIRAL"> F  </i>
    <v name="QSPIRAL">      0.00000000      0.00000000      0.00000000</v>
    <i type="logical" name="LZEROZ"> F  </i>
   </separator>
   <separator name="electronic exchange-correlation" >
    <i type="logical" name="LASPH"> T  </i>
    <i type="logical" name="LMETAGGA"> F  </i>
   </separator>
   <separator name="electronic convergence" >
    <i type="int" name="NELM">   300</i>
    <i type="int" name="NELMDL">    -5</i>
    <i type="int" name="NELMIN">     2</i>
    <i name="ENINI">    520.00000000</i>
    <separator name="electronic convergence detail" >
     <i type="logical" name="LDIAG"> T  </i>
     <i type="logical" name="LSUBROT"> F  </i>
     <i name="WEIMIN">      0.00100000</i>
     <i name="EBREAK">      0.00000035</i>
     <i name="DEPER">      0.30000000</i>
     <i type="int" name="NRMM">     4</i>
     <i name="TIME">      0.40000000</i>
    </separator>
   </separator>
   <separator name="electronic mixer" >
    <i name="AMIX">      0.40000000</i>
    <i name="BMIX">      1.00000000</i>
    <i name="AMIN">      0.10000000</i>
    <i name="AMIX_MAG">      1.60000000</i>
    <i name="BMIX_MAG">      1.00000000</i>
    <separator name="electronic mixer details" >
     <i type="int" name="IMIX">     4</i>
     <i type="logical" name="MIXFIRST"> F  </i>
     <i type="int" name="MAXMIX">   -45</i>
     <i name="WC">    100.00000000</i>
     <i type="int" name="INIMIX">     1</i>
     <i type="int" name="MIXPRE">     1</i>
     <i type="int" name="MREMOVE">     5</i>
    </separator>
   </separator>
   <separator name="electronic dipolcorrection" >
    <i type="logical" name="LDIPOL"> F  </i>
    <i type="logical" name="LMONO"> F  </i>
    <i type="int" name="IDIPOL">     0</i>
    <i name="EPSILON">      1.00000000</i>
    <v name="DIPOL">   -100.00000000   -100.00000000   -100.00000000</v>
    <i name="EFIELD">      0.00000000</i>
   </separator>
  </separator>
  <separator name="grids" >
   <i type="int" name="NGX">    80</i>
   <i type="int" name="NGY">    80</i>
   <i type="int" name="NGZ">    80</i>
   <i type="int" name="NGXF">   160</i>
   <i type="int" name="NGYF">   160</i>
   <i type="int" name="NGZF">   160</i>
   <i type="logical" name="ADDGRID"> F  </i>
  </separator>
  <separator name="ionic" >
   <i type="int" name="NSW">    99</i>
   <i type="int" name="IBRION">     2</i>
   <i type="int" name="MDALGO">     0</i>
   <i type="int" name="ISIF">     2</i>
   <i name="PSTRESS">      0.00000000</i>
   <i name="EDIFFG">      0.00050000</i>
   <i type="int" name="NFREE">     1</i>
   <i name="POTIM">      0.50000000</i>
   <i name="SMASS">     -3.00000000</i>
   <i name="SCALEE">      1.00000000</i>
  </separator>
  <separator name="ionic md" >
   <i name="TEBEG">      0.00010000</i>
   <i name="TEEND">      0.00010000</i>
   <i type="int" name="NBLOCK">     1</i>
   <i type="int" name="KBLOCK">    99</i>
   <i type="int" name="NPACO">   256</i>
   <i name="APACO">     16.00000000</i>
  </separator>
  <separator name="symmetry" >
   <i type="int" name="ISYM">     2</i>
   <i name="SYMPREC">      0.00001000</i>
  </separator>
  <separator name="dos" >
   <i type="int" name="LORBIT">    11</i>
   <v name="RWIGS">     -1.00000000</v>
   <i type="int" name="NEDOS">   301</i>
   <i name="EMIN">     10.00000000</i>
   <i name="EMAX">    -10.00000000</i>
   <i name="EFERMI">      0.00000000</i>
  </separator>
  <separator name="writing" >
   <i type="int" name="NWRITE">     2</i>
   <i type="logical" name="LWAVE"> F  </i>
   <i type="logical" name="LDOWNSAMPLE"> F  </i>
   <i type="logical" name="LCHARG"> T  </i>
   <i type="logical" name="LPARD"> F  </i>
   <i type="logical" name="LVTOT"> F  </i>
   <i type="logical" name="LVHAR"> F  </i>
   <i type="logical" name="LELF"> F  </i>
   <i type="logical" name="LOPTICS"> F  </i>
   <v name="STM">      0.00000000      0.00000000      0.00000000      0.00000000      0.00000000      0.00000000      0.00000000</v>
  </separator>
  <separator name="performance" >
   <i type="int" name="NPAR">    36</i>
   <i type="int" name="NSIM">     4</i>
   <i type="int" name="NBLK">    -1</i>
   <i type="logical" name="LPLANE"> T  </i>
   <i type="logical" name="LSCALAPACK"> T  </i>
   <i type="logical" name="LSCAAWARE"> F  </i>
   <i type="logical" name="LSCALU"> F  </i>
   <i type="logical" name="LASYNC"> F  </i>
   <i type="logical" name="LORBITALREAL"> F  </i>
  </separator>
  <separator name="miscellaneous" >
   <i type="int" name="IDIOT">     3</i>
   <i type="int" name="ISPECIAL">     0</i>
   <i type="logical" name="LMUSIC"> F  </i>
   <v name="POMASS">    131.29400000</v>
   <v name="DARWINR">      0.00000000</v>
   <v name="DARWINV">      1.00000000</v>
   <i type="logical" name="LCORR"> T  </i>
  </separator>
  <i type="logical" name="GGA_COMPAT"> T  </i>
  <i type="logical" name="LBERRY"> F  </i>
  <i type="int" name="ICORELEVEL">     0</i>
  <i type="logical" name="LDAU"> F  </i>
  <i type="int" name="I_CONSTRAINED_M">     0</i>
  <separator name="electronic exchange-correlation" >
   <i type="string" name="GGA">--</i>
   <i type="int" name="VOSKOWN">     0</i>
   <i type="logical" name="LHFCALC"> F  </i>
   <i type="string" name="PRECFOCK"></i>
   <i type="logical" name="LSYMGRAD"> F  </i>
   <i type="logical" name="LHFONE"> F  </i>
   <i type="logical" name="LRHFCALC"> F  </i>
   <i type="logical" name="LTHOMAS"> F  </i>
   <i type="logical" name="LMODELHF"> F  </i>
   <i name="ENCUT4O">     -1.00000000</i>
   <i type="int" name="EXXOEP">     0</i>
   <i type="int" name="FOURORBIT">     0</i>
   <i name="AEXX">      0.00000000</i>
   <i name="HFALPHA">      0.00000000</i>
   <i name="MCALPHA">      0.00000000</i>
   <i name="ALDAX">      1.00000000</i>
   <i name="AGGAX">      1.00000000</i>
   <i name="ALDAC">      1.00000000</i>
   <i name="AGGAC">      1.00000000</i>
   <i type="int" name="NKREDX">     1</i>
   <i type="int" name="NKREDY">     1</i>
   <i type="int" name="NKREDZ">     1</i>
   <i type="logical" name="SHIFTRED"> F  </i>
   <i type="logical" name="ODDONLY"> F  </i>
   <i type="logical" name="EVENONLY"> F  </i>
   <i type="int" name="LMAXFOCK">     0</i>
   <i type="int" name="NMAXFOCKAE">     0</i>
   <i type="logical" name="LFOCKAEDFT"> F  </i>
   <i name="HFSCREEN">      0.00000000</i>
   <i name="HFSCREENC">      0.00000000</i>
   <i type="int" name="NBANDSGWLOW">     0</i>
  </separator>
  <separator name="vdW DFT" >
   <i type="logical" name="LUSE_VDW"> F  </i>
   <i name="Zab_VDW">     -0.84910000</i>
   <i name="PARAM1">      0.12340000</i>
   <i name="PARAM2">      1.00000000</i>
   <i name="PARAM3">      0.00000000</i>
  </separator>
  <separator name="model GW" >
   <i type="int" name="MODEL_GW">     0</i>
   <i name="MODEL_EPS0">    600.00000000</i>
   <i name="MODEL_ALPHA">      1.00000000</i>
  </separator>
  <separator name="linear response parameters" >
   <i type="logical" name="LEPSILON"> F  </i>
   <i type="logical" name="LRPA"> F  </i>
   <i type="logical" name="LNABLA"> F  </i>
   <i type="logical" name="LVEL"> F  </i>
   <i type="int" name="KINTER">     0</i>
   <i name="CSHIFT">      0.10000000</i>
   <i name="OMEGAMAX">     -1.00000000</i>
   <i name="DEG_THRESHOLD">      0.00200000</i>
   <i name="RTIME">     -0.10000000</i>
   <i name="WPLASMAI">      0.00000000</i>
   <v name="DFIELD">      0.00000000      0.00000000      0.00000000</v>
   <v name="WPLASMA">      0.00000000      0.00000000      0.00000000      0.00000000      0.00000000      0.00000000      0.00000000      0.00000000      0.00000000</v>
  </separator>
  <separator name="orbital magnetization" >
   <i type="logical" name="NUCIND"> F  </i>
   <v name="MAGPOS">      0.00000000      0.00000000      0.00000000</v>
   <i type="logical" name="LNICSALL"> T  </i>
   <i type="logical" name="ORBITALMAG"> F  </i>
   <i type="logical" name="LMAGBLOCH"> F  </i>
   <i type="logical" name="LCHIMAG"> F  </i>
   <i type="logical" name="LGAUGE"> T  </i>
   <i type="int" name="MAGATOM">     0</i>
   <v name="MAGDIPOL">      0.00000000      0.00000000      0.00000000</v>
   <v name="AVECCONST">      0.00000000      0.00000000      0.00000000</v>
  </separator>
  <separator name="response functions" >
   <i type="logical" name="LADDER"> F  </i>
   <i type="logical" name="LRPAFORCE"> F  </i>
   <i type="logical" name="LFXC"> F  </i>
   <i type="logical" name="LHARTREE"> T  </i>
   <i type="int" name="IBSE">     0</i>
   <v type="int" name="KPOINT">    -1     0     0     0</v>
   <i type="logical" name="LTCTE"> F  </i>
   <i type="logical" name="LTETE"> F  </i>
   <i type="logical" name="LTRIPLET"> F  </i>
   <i type="logical" name="LFXCEPS"> F  </i>
   <i type="logical" name="LFXHEG"> F  </i>
   <i type="int" name="NATURALO">     2</i>
   <i type="logical" name="L2ORDER"> F  </i>
   <i type="logical" name="LMP2LT"> F  </i>
   <i type="logical" name="LUSEW"> F  </i>
   <i name="ENCUTGW">     -2.00000000</i>
   <i name="ENCUTGWSOFT">     -2.00000000</i>
   <i name="ENCUTLF">     -1.00000000</i>
   <i type="int" name="LMAXMP2">    -1</i>
   <i name="SCISSOR">      0.00000000</i>
   <i type="int" name="NOMEGA">     0</i>
   <i type="int" name="NOMEGAR">     0</i>
   <i type="int" name="NBANDSGW">    -1</i>
   <i type="int" name="NBANDSO">    -1</i>
   <i type="int" name="NBANDSV">    -1</i>
   <i type="int" name="NELM">   300</i>
   <i type="int" name="NELMHF">     1</i>
   <i type="int" name="DIM">     3</i>
   <i type="int" name="ANTIRES">     0</i>
   <i name="OMEGAMAX">    -30.00000000</i>
   <i name="OMEGAMIN">    -30.00000000</i>
   <i name="OMEGATL">   -200.00000000</i>
   <i type="int" name="OMEGAGRID">   140</i>
   <i name="CSHIFT">     -0.10000000</i>
   <i type="logical" name="SELFENERGY"> F  </i>
   <i type="logical" name="LSPECTRAL"> F  </i>
   <i type="logical" name="LSPECTRALGW"> F  </i>
   <i type="logical" name="LSINGLES"> F  </i>
   <i type="logical" name="LFERMIGW"> F  </i>
   <i type="logical" name="ODDONLYGW"> F  </i>
   <i type="logical" name="EVENONLYGW"> F  </i>
   <i type="int" name="NKREDLFX">     1</i>
   <i type="int" name="NKREDLFY">     1</i>
   <i type="int" name="NKREDLFZ">     1</i>
   <i type="int" name="MAXMEM">  2800</i>
   <i type="int" name="TELESCOPE">     0</i>
   <i type="int" name="TAUPAR">     1</i>
   <i type="int" name="OMEGAPAR">    -1</i>
   <i name="LAMBDA">      1.00000000</i>
  </separator>
  <separator name="External order field" >
   <i name="OFIELD_KAPPA">      0.00000000</i>
   <v name="OFIELD_K">      0.00000000      0.00000000      0.00000000</v>
   <i name="OFIELD_Q6_NEAR">      0.00000000</i>
   <i name="OFIELD_Q6_FAR">      0.00000000</i>
   <i name="OFIELD_A">      0.00000000</i>
  </separator>
 </parameters>
 <atominfo>
  <atoms>       1 </atoms>
  <types>       1 </types>
  <array name="atoms" >
   <dimension dim="1">ion</dimension>
   <field type="string">element</field>
   <field type="int">atomtype</field>
   <set>
    <rc><c>Xe</c><c>   1</c></rc>
   </set>
  </array>
  <array name="atomtypes" >
   <dimension dim="1">type</dimension>
   <field type="int">atomspertype</field>
   <field type="string">element</field>
   <field>mass</field>
   <field>valence</field>
   <field type="string">pseudopotential</field>
   <set>
    <rc><c>   1</c><c>Xe</c><c>    131.29400000</c><c>      8.00000000</c><c>  PAW_PBE Xe 07Sep2000                  </c></rc>
   </set>
  </array>
 </atominfo>
 <structure name="initialpos" >
  <crystal>
   <varray name="basis" >
    <v>      10.00000000       0.00000000       0.00000000 </v>
    <v>       0.00000000      10.00000000       0.00000000 </v>
    <v>       0.00000000       0.00000000      10.00000000 </v>
   </varray>
   <i name="volume">   1000.00000000 </i>
   <varray name="rec_basis" >
    <v>       0.10000000       0.00000000       0.00000000 </v>
    <v>       0.00000000       0.10000000       0.00000000 </v>
    <v>       0.00000000       0.00000000       0.10000000 </v>
   </varray>
  </crystal>
  <varray name="positions" >
   <v>       0.50000000       0.50000000       0.50000000 </v>
  </varray>
 </structure>
 <calculation>
  <scstep>
   <time name="total">    0.66    0.66</time>
   <energy>
    <i name="alphaZ">      2.39561184 </i>
    <i name="ewald">   -130.74073603 </i>
    <i name="hartreedc">   -228.51806859 </i>
    <i name="XCdc">    -23.74012079 </i>
    <i name="pawpsdc">    379.94255093 </i>
    <i name="pawaedc">   -340.62892732 </i>
    <i name="eentropy">     -0.00000011 </i>
    <i name="bandstr">     -6.07048527 </i>
    <i name="atom">    429.51503049 </i>
    <i name="e_fr_energy">     82.15485516 </i>
    <i name="e_wo_entrp">     82.15485526 </i>
    <i name="e_0_energy">     82.15485521 </i>
   </energy>
  </scstep>
  <scstep>
   <time name="total">    0.39    0.39</time>
   <energy>
    <i name="e_fr_energy">     54.90827714 </i>
    <i name="e_wo_entrp">     54.93972921 </i>
    <i name="e_0_energy">     54.92400318 </i>
   </energy>
  </scstep>
  <scstep>
   <time name="total">    0.39    0.39</time>
   <energy>
    <i name="e_fr_energy">     40.15130471 </i>
    <i name="e_wo_entrp">     40.15130637 </i>
    <i name="e_0_energy">     40.15130554 </i>
   </energy>
  </scstep>
  <scstep>
   <time name="total">    0.39    0.39</time>
   <energy>
    <i name="e_fr_energy">     19.09664092 </i>
    <i name="e_wo_entrp">     19.09664092 </i>
    <i name="e_0_energy">     19.09664092 </i>
   </energy>
  </scstep>
  <scstep>
   <time name="total">    0.61    0.61</time>
   <energy>
    <i name="e_fr_energy">      6.57481530 </i>
    <i name="e_wo_entrp">      6.57481530 </i>
    <i name="e_0_energy">      6.57481530 </i>
   </energy>
  </scstep>
  <scstep>
   <time name="total">    0.75    0.77</time>
   <energy>
    <i name="e_fr_energy">      8.59916727 </i>
    <i name="e_wo_entrp">      8.59916727 </i>
    <i name="e_0_energy">      8.59916727 </i>
   </energy>
  </scstep>
  <scstep>
   <time name="total">    0.71    0.71</time>
   <energy>
    <i name="e_fr_energy">      1.92666566 </i>
    <i name="e_wo_entrp">      1.92666566 </i>
    <i name="e_0_energy">      1.92666566 </i>
   </energy>
  </scstep>
  <scstep>
   <time name="total">    0.69    0.69</time>
   <energy>
    <i name="e_fr_energy">      8.99014297 </i>
    <i name="e_wo_entrp">      8.99014297 </i>
    <i name="e_0_energy">      8.99014297 </i>
   </energy>
  </scstep>
  <scstep>
   <time name="total">    0.70    0.70</time>
   <energy>
    <i name="e_fr_energy">     76.06850763 </i>
    <i name="e_wo_entrp">     76.06850763 </i>
    <i name="e_0_energy">     76.06850763 </i>
   </energy>
  </scstep>
  <scstep>
   <time name="total">    0.71    0.71</time>
   <energy>
    <i name="e_fr_energy">    100.49711229 </i>
    <i name="e_wo_entrp">    100.49711229 </i>
    <i name="e_0_energy">    100.49711229 </i>
   </energy>
  </scstep>
  <scstep>
   <time name="total">    0.69    0.69</time>
   <energy>
    <i name="e_fr_energy">     70.23461260 </i>
    <i name="e_wo_entrp">     70.23461260 </i>
    <i name="e_0_energy">     70.23461260 </i>
   </energy>
  </scstep>
  <scstep>
   <time name="total">    0.73    0.73</time>
   <energy>
    <i name="e_fr_energy">     99.90832566 </i>
    <i name="e_wo_entrp">     99.90832566 </i>
    <i name="e_0_energy">     99.90832566 </i>
   </energy>
  </scstep>
  <scstep>
   <time name="total">    0.69    0.69</time>
   <energy>
    <i name="e_fr_energy">     15.51100551 </i>
    <i name="e_wo_entrp">     15.51100551 </i>
    <i name="e_0_energy">     15.51100551 </i>
   </energy>
  </scstep>
  <scstep>
   <time name="total">    0.69    0.69</time>
   <energy>
    <i name="e_fr_energy">     11.54823779 </i>
    <i name="e_wo_entrp">     11.54823779 </i>
    <i name="e_0_energy">     11.54823779 </i>
   </energy>
  </scstep>
  <scstep>
   <time name="total">    0.71    0.71</time>
   <energy>
    <i name="e_fr_energy">      7.43703196 </i>
    <i name="e_wo_entrp">      7.43703196 </i>
    <i name="e_0_energy">      7.43703196 </i>
   </energy>
  </scstep>
  <scstep>
   <time name="total">    0.71    0.71</time>
   <energy>
    <i name="e_fr_energy">      4.59920671 </i>
    <i name="e_wo_entrp">      4.59920671 </i>
    <i name="e_0_energy">      4.59920671 </i>
   </energy>
  </scstep>
  <scstep>
   <time name="total">    0.69    0.69</time>
   <energy>
    <i name="e_fr_energy">      2.54010884 </i>
    <i name="e_wo_entrp">      2.54010884 </i>
    <i name="e_0_energy">      2.54010884 </i>
   </energy>
  </scstep>
  <scstep>
   <time name="total">    0.69    0.69</time>
   <energy>
    <i name="e_fr_energy">      0.97852612 </i>
    <i name="e_wo_entrp">      0.97852612 </i>
    <i name="e_0_energy">      0.97852612 </i>
   </energy>
  </scstep>
  <scstep>
   <time name="total">    0.71    0.71</time>
   <energy>
    <i name="e_fr_energy">      0.24373010 </i>
    <i name="e_wo_entrp">      0.24373010 </i>
    <i name="e_0_energy">      0.24373010 </i>
   </energy>
  </scstep>
  <scstep>
   <time name="total">    0.72    0.72</time>
   <energy>
    <i name="e_fr_energy">      0.07183182 </i>
    <i name="e_wo_entrp">      0.07183182 </i>
    <i name="e_0_energy">      0.07183182 </i>
   </energy>
  </scstep>
  <scstep>
   <time name="total">    0.69    0.70</time>
   <energy>
    <i name="e_fr_energy">      0.03363378 </i>
    <i name="e_wo_entrp">      0.03363378 </i>
    <i name="e_0_energy">      0.03363378 </i>
   </energy>
  </scstep>
  <scstep>
   <time name="total">    0.69    0.69</time>
   <energy>
    <i name="e_fr_energy">      0.01060174 </i>
    <i name="e_wo_entrp">      0.01060174 </i>
    <i name="e_0_energy">      0.01060174 </i>
   </energy>
  </scstep>
  <scstep>
   <time name="total">    0.69    0.69</time>
   <energy>
    <i name="e_fr_energy">     -0.00084579 </i>
    <i name="e_wo_entrp">     -0.00084579 </i>
    <i name="e_0_energy">     -0.00084579 </i>
   </energy>
  </scstep>
  <scstep>
   <time name="total">    0.71    0.71</time>
   <energy>
    <i name="e_fr_energy">     -0.00559763 </i>
    <i name="e_wo_entrp">     -0.00559763 </i>
    <i name="e_0_energy">     -0.00559763 </i>
   </energy>
  </scstep>
  <scstep>
   <time name="total">    0.70    0.71</time>
   <energy>
    <i name="e_fr_energy">     -0.00841532 </i>
    <i name="e_wo_entrp">     -0.00841532 </i>
    <i name="e_0_energy">     -0.00841532 </i>
   </energy>
  </scstep>
  <scstep>
   <time name="total">    0.70    0.70</time>
   <energy>
    <i name="e_fr_energy">     -0.00970774 </i>
    <i name="e_wo_entrp">     -0.00970774 </i>
    <i name="e_0_energy">     -0.00970774 </i>
   </energy>
  </scstep>
  <scstep>
   <time name="total">    0.70    0.70</time>
   <energy>
    <i name="e_fr_energy">     -0.01044483 </i>
    <i name="e_wo_entrp">     -0.01044483 </i>
    <i name="e_0_energy">     -0.01044483 </i>
   </energy>
  </scstep>
  <scstep>
   <time name="total">    0.71    0.72</time>
   <energy>
    <i name="e_fr_energy">     -0.01083915 </i>
    <i name="e_wo_entrp">     -0.01083915 </i>
    <i name="e_0_energy">     -0.01083915 </i>
   </energy>
  </scstep>
  <scstep>
   <time name="total">    0.69    0.69</time>
   <energy>
    <i name="e_fr_energy">     -0.01106859 </i>
    <i name="e_wo_entrp">     -0.01106859 </i>
    <i name="e_0_energy">     -0.01106859 </i>
   </energy>
  </scstep>
  <scstep>
   <time name="total">    0.72    0.72</time>
   <energy>
    <i name="e_fr_energy">     -0.01121162 </i>
    <i name="e_wo_entrp">     -0.01121162 </i>
    <i name="e_0_energy">     -0.01121162 </i>
   </energy>
  </scstep>
  <scstep>
   <time name="total">    0.69    0.70</time>
   <energy>
    <i name="e_fr_energy">     -0.01130497 </i>
    <i name="e_wo_entrp">     -0.01130497 </i>
    <i name="e_0_energy">     -0.01130497 </i>
   </energy>
  </scstep>
  <scstep>
   <time name="total">    0.70    0.70</time>
   <energy>
    <i name="e_fr_energy">     -0.01136604 </i>
    <i name="e_wo_entrp">     -0.01136604 </i>
    <i name="e_0_energy">     -0.01136604 </i>
   </energy>
  </scstep>
  <scstep>
   <time name="total">    0.75    0.75</time>
   <energy>
    <i name="alphaZ">      2.39561184 </i>
    <i name="ewald">   -130.74073603 </i>
    <i name="hartreedc">   -228.52423130 </i>
    <i name="XCdc">    -23.76160738 </i>
    <i name="pawpsdc">    379.36985782 </i>
    <i name="pawaedc">   -340.05788513 </i>
    <i name="eentropy">     -0.00000000 </i>
    <i name="bandstr">    -88.20744792 </i>
    <i name="atom">    429.51503049 </i>
    <i name="e_fr_energy">     -0.01140760 </i>
    <i name="e_wo_entrp">     -0.01140760 </i>
    <i name="e_0_energy">     -0.01140760 </i>
   </energy>
  </scstep>
  <structure>
   <crystal>
    <varray name="basis" >
     <v>      10.00000000       0.00000000       0.00000000 </v>
     <v>       0.00000000      10.00000000       0.00000000 </v>
     <v>       0.00000000       0.00000000      10.00000000 </v>
    </varray>
    <i name="volume">   1000.00000000 </i>
    <varray name="rec_basis" >
     <v>       0.10000000       0.00000000       0.00000000 </v>
     <v>       0.00000000       0.10000000       0.00000000 </v>
     <v>       0.00000000       0.00000000       0.10000000 </v>
    </varray>
   </crystal>
   <varray name="positions" >
    <v>       0.50000000       0.50000000       0.50000000 </v>
   </varray>
  </structure>
  <varray name="forces" >
   <v>       0.00000000       0.00000000       0.00000000 </v>
  </varray>
  <varray name="stress" >
   <v>      -0.02740429      -0.00000000       0.00000000 </v>
   <v>       0.00000000      -0.02740429       0.00000000 </v>
   <v>       0.00000000      -0.00000000      -0.02740429 </v>
  </varray>
  <energy>
   <i name="e_fr_energy">     -0.01140760 </i>
   <i name="e_wo_entrp">     -0.01140760 </i>
   <i name="e_0_energy">     -0.00000000 </i>
  </energy>
  <time name="totalsc">   28.35   28.64</time>
  <eigenvalues>
   <array>
    <dimension dim="1">band</dimension>
    <dimension dim="2">kpoint</dimension>
    <dimension dim="3">spin</dimension>
    <field>eigene</field>
    <field>occ</field>
    <set>
     <set comment="spin 1">
      <set comment="kpoint 1">
       <r>  -19.6563    1.0000 </r>
       <r>   -8.1491    1.0000 </r>
       <r>   -8.1491    1.0000 </r>
       <r>   -8.1491    1.0000 </r>
       <r>   -0.6677    0.0000 </r>
       <r>    0.9445    0.0000 </r>
       <r>    0.9449    0.0000 </r>
       <r>    1.0268    0.0000 </r>
       <r>    1.0268    0.0000 </r>
       <r>    1.0268    0.0000 </r>
       <r>    1.0345    0.0000 </r>
       <r>    1.7246    0.0000 </r>
       <r>    1.7247    0.0000 </r>
       <r>    1.7249    0.0000 </r>
       <r>    2.4651    0.0000 </r>
       <r>    2.4651    0.0000 </r>
       <r>    2.6241    0.0000 </r>
       <r>    2.6259    0.0000 </r>
       <r>    2.6336    0.0000 </r>
       <r>    2.6814    0.0000 </r>
       <r>    2.6851    0.0000 </r>
       <r>    2.6958    0.0000 </r>
       <r>    2.9056    0.0000 </r>
       <r>    3.6600    0.0000 </r>
       <r>    3.6601    0.0000 </r>
       <r>    3.6610    0.0000 </r>
       <r>    3.8749    0.0000 </r>
       <r>    3.8842    0.0000 </r>
       <r>    3.9616    0.0000 </r>
       <r>    4.2300    0.0000 </r>
       <r>    4.2375    0.0000 </r>
       <r>    4.4360    0.0000 </r>
       <r>    5.0541    0.0000 </r>
       <r>    5.0691    0.0000 </r>
       <r>    5.3774    0.0000 </r>
       <r>    5.5768    0.0000 </r>
      </set>
     </set>
     <set comment="spin 2">
      <set comment="kpoint 1">
       <r>  -19.6561    1.0000 </r>
       <r>   -8.1492    1.0000 </r>
       <r>   -8.1492    1.0000 </r>
       <r>   -8.1492    1.0000 </r>
       <r>   -0.6681    0.0000 </r>
       <r>    0.9443    0.0000 </r>
       <r>    0.9445    0.0000 </r>
       <r>    1.0270    0.0000 </r>
       <r>    1.0285    0.0000 </r>
       <r>    1.0295    0.0000 </r>
       <r>    1.0358    0.0000 </r>
       <r>    1.7243    0.0000 </r>
       <r>    1.7244    0.0000 </r>
       <r>    1.7245    0.0000 </r>
       <r>    2.4651    0.0000 </r>
       <r>    2.4652    0.0000 </r>
       <r>    2.6207    0.0000 </r>
       <r>    2.6437    0.0000 </r>
       <r>    2.6493    0.0000 </r>
       <r>    2.6709    0.0000 </r>
       <r>    2.6796    0.0000 </r>
       <r>    2.7192    0.0000 </r>
       <r>    2.8672    0.0000 </r>
       <r>    3.6505    0.0000 </r>
       <r>    3.6604    0.0000 </r>
       <r>    3.6610    0.0000 </r>
       <r>    3.8726    0.0000 </r>
       <r>    3.8748    0.0000 </r>
       <r>    3.9329    0.0000 </r>
       <r>    4.2285    0.0000 </r>
       <r>    4.3185    0.0000 </r>
       <r>    4.3461    0.0000 </r>
       <r>    4.4567    0.0000 </r>
       <r>    5.4055    0.0000 </r>
       <r>    5.6293    0.0000 </r>
       <r>    6.0300    0.0000 </r>
      </set>
     </set>
    </set>
   </array>
  </eigenvalues>
  <separator name="orbital magnetization" >
   <v name="MAGDIPOLOUT">      0.00000000      0.00000000      0.00000000</v>
  </separator>
  <dos>
   <i name="efermi">     -7.84327576 </i>
   <total>
    <array>
     <dimension dim="1">gridpoints</dimension>
     <dimension dim="2">spin</dimension>
     <field>energy</field>
     <field>total</field>
     <field>integrated</field>
     <set>
      <set comment="spin 1">
       <r>   -20.9406     0.0000     0.0000 </r>
       <r>   -20.8464     0.0000     0.0000 </r>
       <r>   -20.7523     0.0000     0.0000 </r>
       <r>   -20.6581     0.0000     0.0000 </r>
       <r>   -20.5639     0.0000     0.0000 </r>
       <r>   -20.4697     0.0000     0.0000 </r>
       <r>   -20.3755     0.0000     0.0000 </r>
       <r>   -20.2813     0.0000     0.0000 </r>
       <r>   -20.1872     0.0000     0.0000 </r>
       <r>   -20.0930     0.0000     0.0000 </r>
       <r>   -19.9988     0.0000     0.0000 </r>
       <r>   -19.9046     0.0000     0.0000 </r>
       <r>   -19.8104     0.0001     0.0000 </r>
       <r>   -19.7162     0.4779     0.0450 </r>
       <r>   -19.6221     8.3734     0.8337 </r>
       <r>   -19.5279     1.7647     0.9999 </r>
       <r>   -19.4337     0.0015     1.0000 </r>
       <r>   -19.3395     0.0000     1.0000 </r>
       <r>   -19.2453     0.0000     1.0000 </r>
       <r>   -19.1511     0.0000     1.0000 </r>
       <r>   -19.0570     0.0000     1.0000 </r>
       <r>   -18.9628     0.0000     1.0000 </r>
       <r>   -18.8686     0.0000     1.0000 </r>
       <r>   -18.7744     0.0000     1.0000 </r>
       <r>   -18.6802     0.0000     1.0000 </r>
       <r>   -18.5860     0.0000     1.0000 </r>
       <r>   -18.4919     0.0000     1.0000 </r>
       <r>   -18.3977     0.0000     1.0000 </r>
       <r>   -18.3035     0.0000     1.0000 </r>
       <r>   -18.2093     0.0000     1.0000 </r>
       <r>   -18.1151     0.0000     1.0000 </r>
       <r>   -18.0209     0.0000     1.0000 </r>
       <r>   -17.9268     0.0000     1.0000 </r>
       <r>   -17.8326     0.0000     1.0000 </r>
       <r>   -17.7384     0.0000     1.0000 </r>
       <r>   -17.6442     0.0000     1.0000 </r>
       <r>   -17.5500     0.0000     1.0000 </r>
       <r>   -17.4558     0.0000     1.0000 </r>
       <r>   -17.3617     0.0000     1.0000 </r>
       <r>   -17.2675     0.0000     1.0000 </r>
       <r>   -17.1733     0.0000     1.0000 </r>
       <r>   -17.0791     0.0000     1.0000 </r>
       <r>   -16.9849     0.0000     1.0000 </r>
       <r>   -16.8907     0.0000     1.0000 </r>
       <r>   -16.7966     0.0000     1.0000 </r>
       <r>   -16.7024     0.0000     1.0000 </r>
       <r>   -16.6082     0.0000     1.0000 </r>
       <r>   -16.5140     0.0000     1.0000 </r>
       <r>   -16.4198     0.0000     1.0000 </r>
       <r>   -16.3256     0.0000     1.0000 </r>
       <r>   -16.2315     0.0000     1.0000 </r>
       <r>   -16.1373     0.0000     1.0000 </r>
       <r>   -16.0431     0.0000     1.0000 </r>
       <r>   -15.9489     0.0000     1.0000 </r>
       <r>   -15.8547     0.0000     1.0000 </r>
       <r>   -15.7605     0.0000     1.0000 </r>
       <r>   -15.6664     0.0000     1.0000 </r>
       <r>   -15.5722     0.0000     1.0000 </r>
       <r>   -15.4780     0.0000     1.0000 </r>
       <r>   -15.3838     0.0000     1.0000 </r>
       <r>   -15.2896     0.0000     1.0000 </r>
       <r>   -15.1955     0.0000     1.0000 </r>
       <r>   -15.1013     0.0000     1.0000 </r>
       <r>   -15.0071     0.0000     1.0000 </r>
       <r>   -14.9129     0.0000     1.0000 </r>
       <r>   -14.8187     0.0000     1.0000 </r>
       <r>   -14.7245     0.0000     1.0000 </r>
       <r>   -14.6304     0.0000     1.0000 </r>
       <r>   -14.5362     0.0000     1.0000 </r>
       <r>   -14.4420     0.0000     1.0000 </r>
       <r>   -14.3478     0.0000     1.0000 </r>
       <r>   -14.2536     0.0000     1.0000 </r>
       <r>   -14.1594     0.0000     1.0000 </r>
       <r>   -14.0653     0.0000     1.0000 </r>
       <r>   -13.9711     0.0000     1.0000 </r>
       <r>   -13.8769     0.0000     1.0000 </r>
       <r>   -13.7827     0.0000     1.0000 </r>
       <r>   -13.6885     0.0000     1.0000 </r>
       <r>   -13.5943     0.0000     1.0000 </r>
       <r>   -13.5002     0.0000     1.0000 </r>
       <r>   -13.4060     0.0000     1.0000 </r>
       <r>   -13.3118     0.0000     1.0000 </r>
       <r>   -13.2176     0.0000     1.0000 </r>
       <r>   -13.1234     0.0000     1.0000 </r>
       <r>   -13.0292     0.0000     1.0000 </r>
       <r>   -12.9351     0.0000     1.0000 </r>
       <r>   -12.8409     0.0000     1.0000 </r>
       <r>   -12.7467     0.0000     1.0000 </r>
       <r>   -12.6525     0.0000     1.0000 </r>
       <r>   -12.5583     0.0000     1.0000 </r>
       <r>   -12.4641     0.0000     1.0000 </r>
       <r>   -12.3700     0.0000     1.0000 </r>
       <r>   -12.2758     0.0000     1.0000 </r>
       <r>   -12.1816     0.0000     1.0000 </r>
       <r>   -12.0874     0.0000     1.0000 </r>
       <r>   -11.9932     0.0000     1.0000 </r>
       <r>   -11.8990     0.0000     1.0000 </r>
       <r>   -11.8049     0.0000     1.0000 </r>
       <r>   -11.7107     0.0000     1.0000 </r>
       <r>   -11.6165     0.0000     1.0000 </r>
       <r>   -11.5223     0.0000     1.0000 </r>
       <r>   -11.4281     0.0000     1.0000 </r>
       <r>   -11.3339     0.0000     1.0000 </r>
       <r>   -11.2398     0.0000     1.0000 </r>
       <r>   -11.1456     0.0000     1.0000 </r>
       <r>   -11.0514     0.0000     1.0000 </r>
       <r>   -10.9572     0.0000     1.0000 </r>
       <r>   -10.8630     0.0000     1.0000 </r>
       <r>   -10.7688     0.0000     1.0000 </r>
       <r>   -10.6747     0.0000     1.0000 </r>
       <r>   -10.5805     0.0000     1.0000 </r>
       <r>   -10.4863     0.0000     1.0000 </r>
       <r>   -10.3921     0.0000     1.0000 </r>
       <r>   -10.2979     0.0000     1.0000 </r>
       <r>   -10.2037     0.0000     1.0000 </r>
       <r>   -10.1096     0.0000     1.0000 </r>
       <r>   -10.0154     0.0000     1.0000 </r>
       <r>    -9.9212     0.0000     1.0000 </r>
       <r>    -9.8270     0.0000     1.0000 </r>
       <r>    -9.7328     0.0000     1.0000 </r>
       <r>    -9.6386     0.0000     1.0000 </r>
       <r>    -9.5445     0.0000     1.0000 </r>
       <r>    -9.4503     0.0000     1.0000 </r>
       <r>    -9.3561     0.0000     1.0000 </r>
       <r>    -9.2619     0.0000     1.0000 </r>
       <r>    -9.1677     0.0000     1.0000 </r>
       <r>    -9.0735     0.0000     1.0000 </r>
       <r>    -8.9794     0.0000     1.0000 </r>
       <r>    -8.8852     0.0000     1.0000 </r>
       <r>    -8.7910     0.0000     1.0000 </r>
       <r>    -8.6968     0.0000     1.0000 </r>
       <r>    -8.6026     0.0000     1.0000 </r>
       <r>    -8.5084     0.0000     1.0000 </r>
       <r>    -8.4143     0.0000     1.0000 </r>
       <r>    -8.3201     0.0000     1.0000 </r>
       <r>    -8.2259     0.4769     1.0449 </r>
       <r>    -8.1317    21.4708     3.0671 </r>
       <r>    -8.0375     9.8797     3.9976 </r>
       <r>    -7.9433     0.0254     4.0000 </r>
       <r>    -7.8492     0.0000     4.0000 </r>
       <r>    -7.7550     0.0000     4.0000 </r>
       <r>    -7.6608     0.0000     4.0000 </r>
       <r>    -7.5666     0.0000     4.0000 </r>
       <r>    -7.4724     0.0000     4.0000 </r>
       <r>    -7.3782     0.0000     4.0000 </r>
       <r>    -7.2841     0.0000     4.0000 </r>
       <r>    -7.1899     0.0000     4.0000 </r>
       <r>    -7.0957     0.0000     4.0000 </r>
       <r>    -7.0015     0.0000     4.0000 </r>
       <r>    -6.9073     0.0000     4.0000 </r>
       <r>    -6.8131     0.0000     4.0000 </r>
       <r>    -6.7190     0.0000     4.0000 </r>
       <r>    -6.6248     0.0000     4.0000 </r>
       <r>    -6.5306     0.0000     4.0000 </r>
       <r>    -6.4364     0.0000     4.0000 </r>
       <r>    -6.3422     0.0000     4.0000 </r>
       <r>    -6.2480     0.0000     4.0000 </r>
       <r>    -6.1539     0.0000     4.0000 </r>
       <r>    -6.0597     0.0000     4.0000 </r>
       <r>    -5.9655     0.0000     4.0000 </r>
       <r>    -5.8713     0.0000     4.0000 </r>
       <r>    -5.7771     0.0000     4.0000 </r>
       <r>    -5.6829     0.0000     4.0000 </r>
       <r>    -5.5888     0.0000     4.0000 </r>
       <r>    -5.4946     0.0000     4.0000 </r>
       <r>    -5.4004     0.0000     4.0000 </r>
       <r>    -5.3062     0.0000     4.0000 </r>
       <r>    -5.2120     0.0000     4.0000 </r>
       <r>    -5.1178     0.0000     4.0000 </r>
       <r>    -5.0237     0.0000     4.0000 </r>
       <r>    -4.9295     0.0000     4.0000 </r>
       <r>    -4.8353     0.0000     4.0000 </r>
       <r>    -4.7411     0.0000     4.0000 </r>
       <r>    -4.6469     0.0000     4.0000 </r>
       <r>    -4.5528     0.0000     4.0000 </r>
       <r>    -4.4586     0.0000     4.0000 </r>
       <r>    -4.3644     0.0000     4.0000 </r>
       <r>    -4.2702     0.0000     4.0000 </r>
       <r>    -4.1760     0.0000     4.0000 </r>
       <r>    -4.0818     0.0000     4.0000 </r>
       <r>    -3.9877     0.0000     4.0000 </r>
       <r>    -3.8935     0.0000     4.0000 </r>
       <r>    -3.7993     0.0000     4.0000 </r>
       <r>    -3.7051     0.0000     4.0000 </r>
       <r>    -3.6109     0.0000     4.0000 </r>
       <r>    -3.5167     0.0000     4.0000 </r>
       <r>    -3.4226     0.0000     4.0000 </r>
       <r>    -3.3284     0.0000     4.0000 </r>
       <r>    -3.2342     0.0000     4.0000 </r>
       <r>    -3.1400     0.0000     4.0000 </r>
       <r>    -3.0458     0.0000     4.0000 </r>
       <r>    -2.9516     0.0000     4.0000 </r>
       <r>    -2.8575     0.0000     4.0000 </r>
       <r>    -2.7633     0.0000     4.0000 </r>
       <r>    -2.6691     0.0000     4.0000 </r>
       <r>    -2.5749     0.0000     4.0000 </r>
       <r>    -2.4807     0.0000     4.0000 </r>
       <r>    -2.3865     0.0000     4.0000 </r>
       <r>    -2.2924     0.0000     4.0000 </r>
       <r>    -2.1982     0.0000     4.0000 </r>
       <r>    -2.1040     0.0000     4.0000 </r>
       <r>    -2.0098     0.0000     4.0000 </r>
       <r>    -1.9156     0.0000     4.0000 </r>
       <r>    -1.8214     0.0000     4.0000 </r>
       <r>    -1.7273     0.0000     4.0000 </r>
       <r>    -1.6331     0.0000     4.0000 </r>
       <r>    -1.5389     0.0000     4.0000 </r>
       <r>    -1.4447     0.0000     4.0000 </r>
       <r>    -1.3505     0.0000     4.0000 </r>
       <r>    -1.2563     0.0000     4.0000 </r>
       <r>    -1.1622     0.0000     4.0000 </r>
       <r>    -1.0680     0.0000     4.0000 </r>
       <r>    -0.9738     0.0000     4.0000 </r>
       <r>    -0.8796     0.0000     4.0000 </r>
       <r>    -0.7854     0.0046     4.0004 </r>
       <r>    -0.6912     2.6787     4.2527 </r>
       <r>    -0.5971     7.6916     4.9771 </r>
       <r>    -0.5029     0.2427     5.0000 </r>
       <r>    -0.4087     0.0000     5.0000 </r>
       <r>    -0.3145     0.0000     5.0000 </r>
       <r>    -0.2203     0.0000     5.0000 </r>
       <r>    -0.1261     0.0000     5.0000 </r>
       <r>    -0.0320     0.0000     5.0000 </r>
       <r>     0.0622     0.0000     5.0000 </r>
       <r>     0.1564     0.0000     5.0000 </r>
       <r>     0.2506     0.0000     5.0000 </r>
       <r>     0.3448     0.0000     5.0000 </r>
       <r>     0.4390     0.0000     5.0000 </r>
       <r>     0.5331     0.0000     5.0000 </r>
       <r>     0.6273     0.0000     5.0000 </r>
       <r>     0.7215     0.0000     5.0000 </r>
       <r>     0.8157     0.0028     5.0003 </r>
       <r>     0.9099     3.4550     5.3257 </r>
       <r>     1.0041    27.1316     7.8810 </r>
       <r>     1.0982    32.0461    10.8992 </r>
       <r>     1.1924     1.0700    11.0000 </r>
       <r>     1.2866     0.0001    11.0000 </r>
       <r>     1.3808     0.0000    11.0000 </r>
       <r>     1.4750     0.0000    11.0000 </r>
       <r>     1.5692     0.0002    11.0000 </r>
       <r>     1.6633     1.3144    11.1238 </r>
       <r>     1.7575    24.9078    13.4697 </r>
       <r>     1.8517     5.6252    13.9995 </r>
       <r>     1.9459     0.0052    14.0000 </r>
       <r>     2.0401     0.0000    14.0000 </r>
       <r>     2.1343     0.0000    14.0000 </r>
       <r>     2.2284     0.0000    14.0000 </r>
       <r>     2.3226     0.0006    14.0001 </r>
       <r>     2.4168     1.8238    14.1718 </r>
       <r>     2.5110    17.3625    15.8071 </r>
       <r>     2.6052    10.7322    16.8179 </r>
       <r>     2.6994    42.5243    20.8229 </r>
       <r>     2.7935    12.4556    21.9961 </r>
       <r>     2.8877     3.2954    22.3064 </r>
       <r>     2.9819     7.1999    22.9845 </r>
       <r>     3.0761     0.1642    23.0000 </r>
       <r>     3.1703     0.0000    23.0000 </r>
       <r>     3.2645     0.0000    23.0000 </r>
       <r>     3.3586     0.0000    23.0000 </r>
       <r>     3.4528     0.0000    23.0000 </r>
       <r>     3.5470     0.0214    23.0020 </r>
       <r>     3.6412     9.3290    23.8806 </r>
       <r>     3.7354    21.9623    25.9491 </r>
       <r>     3.8296     2.2502    26.1611 </r>
       <r>     3.9237    18.7524    27.9272 </r>
       <r>     4.0179    10.8005    28.9444 </r>
       <r>     4.1121     0.5965    29.0006 </r>
       <r>     4.2063     4.6662    29.4401 </r>
       <r>     4.3005    15.9204    30.9395 </r>
       <r>     4.3947     1.9299    31.1213 </r>
       <r>     4.4888     8.6141    31.9326 </r>
       <r>     4.5830     0.7156    32.0000 </r>
       <r>     4.6772     0.0002    32.0000 </r>
       <r>     4.7714     0.0000    32.0000 </r>
       <r>     4.8656     0.0000    32.0000 </r>
       <r>     4.9598     0.0508    32.0048 </r>
       <r>     5.0539     8.7793    32.8316 </r>
       <r>     5.1481    12.2285    33.9834 </r>
       <r>     5.2423     0.1773    34.0001 </r>
       <r>     5.3365     1.3123    34.1237 </r>
       <r>     5.4307     8.6051    34.9341 </r>
       <r>     5.5248     1.4508    35.0708 </r>
       <r>     5.6190     8.6318    35.8837 </r>
       <r>     5.7132     1.2339    35.9999 </r>
       <r>     5.8074     0.0006    36.0000 </r>
       <r>     5.9016     0.0000    36.0000 </r>
       <r>     5.9958     0.0000    36.0000 </r>
       <r>     6.0899     0.0000    36.0000 </r>
       <r>     6.1841     0.0000    36.0000 </r>
       <r>     6.2783     0.0000    36.0000 </r>
       <r>     6.3725     0.0000    36.0000 </r>
       <r>     6.4667     0.0000    36.0000 </r>
       <r>     6.5609     0.0000    36.0000 </r>
       <r>     6.6550     0.0000    36.0000 </r>
       <r>     6.7492     0.0000    36.0000 </r>
       <r>     6.8434     0.0000    36.0000 </r>
       <r>     6.9376     0.0000    36.0000 </r>
       <r>     7.0318     0.0000    36.0000 </r>
       <r>     7.1260     0.0000    36.0000 </r>
       <r>     7.2201     0.0000    36.0000 </r>
       <r>     7.3143     0.0000    36.0000 </r>
      </set>
      <set comment="spin 2">
       <r>   -20.9406     0.0000     0.0000 </r>
       <r>   -20.8464     0.0000     0.0000 </r>
       <r>   -20.7523     0.0000     0.0000 </r>
       <r>   -20.6581     0.0000     0.0000 </r>
       <r>   -20.5639     0.0000     0.0000 </r>
       <r>   -20.4697     0.0000     0.0000 </r>
       <r>   -20.3755     0.0000     0.0000 </r>
       <r>   -20.2813     0.0000     0.0000 </r>
       <r>   -20.1872     0.0000     0.0000 </r>
       <r>   -20.0930     0.0000     0.0000 </r>
       <r>   -19.9988     0.0000     0.0000 </r>
       <r>   -19.9046     0.0000     0.0000 </r>
       <r>   -19.8104     0.0001     0.0000 </r>
       <r>   -19.7162     0.4709     0.0444 </r>
       <r>   -19.6221     8.3618     0.8319 </r>
       <r>   -19.5279     1.7834     0.9999 </r>
       <r>   -19.4337     0.0015     1.0000 </r>
       <r>   -19.3395     0.0000     1.0000 </r>
       <r>   -19.2453     0.0000     1.0000 </r>
       <r>   -19.1511     0.0000     1.0000 </r>
       <r>   -19.0570     0.0000     1.0000 </r>
       <r>   -18.9628     0.0000     1.0000 </r>
       <r>   -18.8686     0.0000     1.0000 </r>
       <r>   -18.7744     0.0000     1.0000 </r>
       <r>   -18.6802     0.0000     1.0000 </r>
       <r>   -18.5860     0.0000     1.0000 </r>
       <r>   -18.4919     0.0000     1.0000 </r>
       <r>   -18.3977     0.0000     1.0000 </r>
       <r>   -18.3035     0.0000     1.0000 </r>
       <r>   -18.2093     0.0000     1.0000 </r>
       <r>   -18.1151     0.0000     1.0000 </r>
       <r>   -18.0209     0.0000     1.0000 </r>
       <r>   -17.9268     0.0000     1.0000 </r>
       <r>   -17.8326     0.0000     1.0000 </r>
       <r>   -17.7384     0.0000     1.0000 </r>
       <r>   -17.6442     0.0000     1.0000 </r>
       <r>   -17.5500     0.0000     1.0000 </r>
       <r>   -17.4558     0.0000     1.0000 </r>
       <r>   -17.3617     0.0000     1.0000 </r>
       <r>   -17.2675     0.0000     1.0000 </r>
       <r>   -17.1733     0.0000     1.0000 </r>
       <r>   -17.0791     0.0000     1.0000 </r>
       <r>   -16.9849     0.0000     1.0000 </r>
       <r>   -16.8907     0.0000     1.0000 </r>
       <r>   -16.7966     0.0000     1.0000 </r>
       <r>   -16.7024     0.0000     1.0000 </r>
       <r>   -16.6082     0.0000     1.0000 </r>
       <r>   -16.5140     0.0000     1.0000 </r>
       <r>   -16.4198     0.0000     1.0000 </r>
       <r>   -16.3256     0.0000     1.0000 </r>
       <r>   -16.2315     0.0000     1.0000 </r>
       <r>   -16.1373     0.0000     1.0000 </r>
       <r>   -16.0431     0.0000     1.0000 </r>
       <r>   -15.9489     0.0000     1.0000 </r>
       <r>   -15.8547     0.0000     1.0000 </r>
       <r>   -15.7605     0.0000     1.0000 </r>
       <r>   -15.6664     0.0000     1.0000 </r>
       <r>   -15.5722     0.0000     1.0000 </r>
       <r>   -15.4780     0.0000     1.0000 </r>
       <r>   -15.3838     0.0000     1.0000 </r>
       <r>   -15.2896     0.0000     1.0000 </r>
       <r>   -15.1955     0.0000     1.0000 </r>
       <r>   -15.1013     0.0000     1.0000 </r>
       <r>   -15.0071     0.0000     1.0000 </r>
       <r>   -14.9129     0.0000     1.0000 </r>
       <r>   -14.8187     0.0000     1.0000 </r>
       <r>   -14.7245     0.0000     1.0000 </r>
       <r>   -14.6304     0.0000     1.0000 </r>
       <r>   -14.5362     0.0000     1.0000 </r>
       <r>   -14.4420     0.0000     1.0000 </r>
       <r>   -14.3478     0.0000     1.0000 </r>
       <r>   -14.2536     0.0000     1.0000 </r>
       <r>   -14.1594     0.0000     1.0000 </r>
       <r>   -14.0653     0.0000     1.0000 </r>
       <r>   -13.9711     0.0000     1.0000 </r>
       <r>   -13.8769     0.0000     1.0000 </r>
       <r>   -13.7827     0.0000     1.0000 </r>
       <r>   -13.6885     0.0000     1.0000 </r>
       <r>   -13.5943     0.0000     1.0000 </r>
       <r>   -13.5002     0.0000     1.0000 </r>
       <r>   -13.4060     0.0000     1.0000 </r>
       <r>   -13.3118     0.0000     1.0000 </r>
       <r>   -13.2176     0.0000     1.0000 </r>
       <r>   -13.1234     0.0000     1.0000 </r>
       <r>   -13.0292     0.0000     1.0000 </r>
       <r>   -12.9351     0.0000     1.0000 </r>
       <r>   -12.8409     0.0000     1.0000 </r>
       <r>   -12.7467     0.0000     1.0000 </r>
       <r>   -12.6525     0.0000     1.0000 </r>
       <r>   -12.5583     0.0000     1.0000 </r>
       <r>   -12.4641     0.0000     1.0000 </r>
       <r>   -12.3700     0.0000     1.0000 </r>
       <r>   -12.2758     0.0000     1.0000 </r>
       <r>   -12.1816     0.0000     1.0000 </r>
       <r>   -12.0874     0.0000     1.0000 </r>
       <r>   -11.9932     0.0000     1.0000 </r>
       <r>   -11.8990     0.0000     1.0000 </r>
       <r>   -11.8049     0.0000     1.0000 </r>
       <r>   -11.7107     0.0000     1.0000 </r>
       <r>   -11.6165     0.0000     1.0000 </r>
       <r>   -11.5223     0.0000     1.0000 </r>
       <r>   -11.4281     0.0000     1.0000 </r>
       <r>   -11.3339     0.0000     1.0000 </r>
       <r>   -11.2398     0.0000     1.0000 </r>
       <r>   -11.1456     0.0000     1.0000 </r>
       <r>   -11.0514     0.0000     1.0000 </r>
       <r>   -10.9572     0.0000     1.0000 </r>
       <r>   -10.8630     0.0000     1.0000 </r>
       <r>   -10.7688     0.0000     1.0000 </r>
       <r>   -10.6747     0.0000     1.0000 </r>
       <r>   -10.5805     0.0000     1.0000 </r>
       <r>   -10.4863     0.0000     1.0000 </r>
       <r>   -10.3921     0.0000     1.0000 </r>
       <r>   -10.2979     0.0000     1.0000 </r>
       <r>   -10.2037     0.0000     1.0000 </r>
       <r>   -10.1096     0.0000     1.0000 </r>
       <r>   -10.0154     0.0000     1.0000 </r>
       <r>    -9.9212     0.0000     1.0000 </r>
       <r>    -9.8270     0.0000     1.0000 </r>
       <r>    -9.7328     0.0000     1.0000 </r>
       <r>    -9.6386     0.0000     1.0000 </r>
       <r>    -9.5445     0.0000     1.0000 </r>
       <r>    -9.4503     0.0000     1.0000 </r>
       <r>    -9.3561     0.0000     1.0000 </r>
       <r>    -9.2619     0.0000     1.0000 </r>
       <r>    -9.1677     0.0000     1.0000 </r>
       <r>    -9.0735     0.0000     1.0000 </r>
       <r>    -8.9794     0.0000     1.0000 </r>
       <r>    -8.8852     0.0000     1.0000 </r>
       <r>    -8.7910     0.0000     1.0000 </r>
       <r>    -8.6968     0.0000     1.0000 </r>
       <r>    -8.6026     0.0000     1.0000 </r>
       <r>    -8.5084     0.0000     1.0000 </r>
       <r>    -8.4143     0.0000     1.0000 </r>
       <r>    -8.3201     0.0000     1.0000 </r>
       <r>    -8.2259     0.4795     1.0452 </r>
       <r>    -8.1317    21.4925     3.0694 </r>
       <r>    -8.0375     9.8556     3.9976 </r>
       <r>    -7.9433     0.0252     4.0000 </r>
       <r>    -7.8492     0.0000     4.0000 </r>
       <r>    -7.7550     0.0000     4.0000 </r>
       <r>    -7.6608     0.0000     4.0000 </r>
       <r>    -7.5666     0.0000     4.0000 </r>
       <r>    -7.4724     0.0000     4.0000 </r>
       <r>    -7.3782     0.0000     4.0000 </r>
       <r>    -7.2841     0.0000     4.0000 </r>
       <r>    -7.1899     0.0000     4.0000 </r>
       <r>    -7.0957     0.0000     4.0000 </r>
       <r>    -7.0015     0.0000     4.0000 </r>
       <r>    -6.9073     0.0000     4.0000 </r>
       <r>    -6.8131     0.0000     4.0000 </r>
       <r>    -6.7190     0.0000     4.0000 </r>
       <r>    -6.6248     0.0000     4.0000 </r>
       <r>    -6.5306     0.0000     4.0000 </r>
       <r>    -6.4364     0.0000     4.0000 </r>
       <r>    -6.3422     0.0000     4.0000 </r>
       <r>    -6.2480     0.0000     4.0000 </r>
       <r>    -6.1539     0.0000     4.0000 </r>
       <r>    -6.0597     0.0000     4.0000 </r>
       <r>    -5.9655     0.0000     4.0000 </r>
       <r>    -5.8713     0.0000     4.0000 </r>
       <r>    -5.7771     0.0000     4.0000 </r>
       <r>    -5.6829     0.0000     4.0000 </r>
       <r>    -5.5888     0.0000     4.0000 </r>
       <r>    -5.4946     0.0000     4.0000 </r>
       <r>    -5.4004     0.0000     4.0000 </r>
       <r>    -5.3062     0.0000     4.0000 </r>
       <r>    -5.2120     0.0000     4.0000 </r>
       <r>    -5.1178     0.0000     4.0000 </r>
       <r>    -5.0237     0.0000     4.0000 </r>
       <r>    -4.9295     0.0000     4.0000 </r>
       <r>    -4.8353     0.0000     4.0000 </r>
       <r>    -4.7411     0.0000     4.0000 </r>
       <r>    -4.6469     0.0000     4.0000 </r>
       <r>    -4.5528     0.0000     4.0000 </r>
       <r>    -4.4586     0.0000     4.0000 </r>
       <r>    -4.3644     0.0000     4.0000 </r>
       <r>    -4.2702     0.0000     4.0000 </r>
       <r>    -4.1760     0.0000     4.0000 </r>
       <r>    -4.0818     0.0000     4.0000 </r>
       <r>    -3.9877     0.0000     4.0000 </r>
       <r>    -3.8935     0.0000     4.0000 </r>
       <r>    -3.7993     0.0000     4.0000 </r>
       <r>    -3.7051     0.0000     4.0000 </r>
       <r>    -3.6109     0.0000     4.0000 </r>
       <r>    -3.5167     0.0000     4.0000 </r>
       <r>    -3.4226     0.0000     4.0000 </r>
       <r>    -3.3284     0.0000     4.0000 </r>
       <r>    -3.2342     0.0000     4.0000 </r>
       <r>    -3.1400     0.0000     4.0000 </r>
       <r>    -3.0458     0.0000     4.0000 </r>
       <r>    -2.9516     0.0000     4.0000 </r>
       <r>    -2.8575     0.0000     4.0000 </r>
       <r>    -2.7633     0.0000     4.0000 </r>
       <r>    -2.6691     0.0000     4.0000 </r>
       <r>    -2.5749     0.0000     4.0000 </r>
       <r>    -2.4807     0.0000     4.0000 </r>
       <r>    -2.3865     0.0000     4.0000 </r>
       <r>    -2.2924     0.0000     4.0000 </r>
       <r>    -2.1982     0.0000     4.0000 </r>
       <r>    -2.1040     0.0000     4.0000 </r>
       <r>    -2.0098     0.0000     4.0000 </r>
       <r>    -1.9156     0.0000     4.0000 </r>
       <r>    -1.8214     0.0000     4.0000 </r>
       <r>    -1.7273     0.0000     4.0000 </r>
       <r>    -1.6331     0.0000     4.0000 </r>
       <r>    -1.5389     0.0000     4.0000 </r>
       <r>    -1.4447     0.0000     4.0000 </r>
       <r>    -1.3505     0.0000     4.0000 </r>
       <r>    -1.2563     0.0000     4.0000 </r>
       <r>    -1.1622     0.0000     4.0000 </r>
       <r>    -1.0680     0.0000     4.0000 </r>
       <r>    -0.9738     0.0000     4.0000 </r>
       <r>    -0.8796     0.0000     4.0000 </r>
       <r>    -0.7854     0.0048     4.0005 </r>
       <r>    -0.6912     2.7191     4.2566 </r>
       <r>    -0.5971     7.6577     4.9778 </r>
       <r>    -0.5029     0.2359     5.0000 </r>
       <r>    -0.4087     0.0000     5.0000 </r>
       <r>    -0.3145     0.0000     5.0000 </r>
       <r>    -0.2203     0.0000     5.0000 </r>
       <r>    -0.1261     0.0000     5.0000 </r>
       <r>    -0.0320     0.0000     5.0000 </r>
       <r>     0.0622     0.0000     5.0000 </r>
       <r>     0.1564     0.0000     5.0000 </r>
       <r>     0.2506     0.0000     5.0000 </r>
       <r>     0.3448     0.0000     5.0000 </r>
       <r>     0.4390     0.0000     5.0000 </r>
       <r>     0.5331     0.0000     5.0000 </r>
       <r>     0.6273     0.0000     5.0000 </r>
       <r>     0.7215     0.0000     5.0000 </r>
       <r>     0.8157     0.0029     5.0003 </r>
       <r>     0.9099     3.4980     5.3297 </r>
       <r>     1.0041    26.5603     7.8313 </r>
       <r>     1.0982    32.4664    10.8891 </r>
       <r>     1.1924     1.1779    11.0000 </r>
       <r>     1.2866     0.0001    11.0000 </r>
       <r>     1.3808     0.0000    11.0000 </r>
       <r>     1.4750     0.0000    11.0000 </r>
       <r>     1.5692     0.0002    11.0000 </r>
       <r>     1.6633     1.3399    11.1262 </r>
       <r>     1.7575    24.9561    13.4767 </r>
       <r>     1.8517     5.5516    13.9995 </r>
       <r>     1.9459     0.0051    14.0000 </r>
       <r>     2.0401     0.0000    14.0000 </r>
       <r>     2.1343     0.0000    14.0000 </r>
       <r>     2.2284     0.0000    14.0000 </r>
       <r>     2.3226     0.0006    14.0001 </r>
       <r>     2.4168     1.8208    14.1715 </r>
       <r>     2.5110    17.3576    15.8063 </r>
       <r>     2.6052     8.6744    16.6233 </r>
       <r>     2.6994    42.6336    20.6387 </r>
       <r>     2.7935    14.4529    21.9999 </r>
       <r>     2.8877     7.6395    22.7194 </r>
       <r>     2.9819     2.9728    22.9994 </r>
       <r>     3.0761     0.0062    23.0000 </r>
       <r>     3.1703     0.0000    23.0000 </r>
       <r>     3.2645     0.0000    23.0000 </r>
       <r>     3.3586     0.0000    23.0000 </r>
       <r>     3.4528     0.0000    23.0000 </r>
       <r>     3.5470     0.0320    23.0030 </r>
       <r>     3.6412    10.3415    23.9770 </r>
       <r>     3.7354    21.0246    25.9572 </r>
       <r>     3.8296     2.7216    26.2135 </r>
       <r>     3.9237    21.5208    28.2404 </r>
       <r>     4.0179     7.9788    28.9919 </r>
       <r>     4.1121     0.0917    29.0005 </r>
       <r>     4.2063     2.8193    29.2660 </r>
       <r>     4.3005    11.8621    30.3832 </r>
       <r>     4.3947    16.5239    31.9395 </r>
       <r>     4.4888     9.3341    32.8186 </r>
       <r>     4.5830     1.9239    32.9998 </r>
       <r>     4.6772     0.0019    33.0000 </r>
       <r>     4.7714     0.0000    33.0000 </r>
       <r>     4.8656     0.0000    33.0000 </r>
       <r>     4.9598     0.0000    33.0000 </r>
       <r>     5.0539     0.0000    33.0000 </r>
       <r>     5.1481     0.0000    33.0000 </r>
       <r>     5.2423     0.0000    33.0000 </r>
       <r>     5.3365     0.2712    33.0255 </r>
       <r>     5.4307     7.8208    33.7621 </r>
       <r>     5.5248     2.5383    34.0012 </r>
       <r>     5.6190     4.0845    34.3859 </r>
       <r>     5.7132     6.4269    34.9912 </r>
       <r>     5.8074     0.0934    35.0000 </r>
       <r>     5.9016     0.0015    35.0001 </r>
       <r>     5.9958     1.7647    35.1663 </r>
       <r>     6.0899     8.3734    35.9550 </r>
       <r>     6.1841     0.4779    36.0000 </r>
       <r>     6.2783     0.0001    36.0000 </r>
       <r>     6.3725     0.0000    36.0000 </r>
       <r>     6.4667     0.0000    36.0000 </r>
       <r>     6.5609     0.0000    36.0000 </r>
       <r>     6.6550     0.0000    36.0000 </r>
       <r>     6.7492     0.0000    36.0000 </r>
       <r>     6.8434     0.0000    36.0000 </r>
       <r>     6.9376     0.0000    36.0000 </r>
       <r>     7.0318     0.0000    36.0000 </r>
       <r>     7.1260     0.0000    36.0000 </r>
       <r>     7.2201     0.0000    36.0000 </r>
       <r>     7.3143     0.0000    36.0000 </r>
      </set>
     </set>
    </array>
   </total>
   <partial>
    <array>
     <dimension dim="1">gridpoints</dimension>
     <dimension dim="2">spin</dimension>
     <dimension dim="3">ion</dimension>
     <field>energy</field>
     <field>    s</field>
     <field>   py</field>
     <field>   pz</field>
     <field>   px</field>
     <field>  dxy</field>
     <field>  dyz</field>
     <field>  dz2</field>
     <field>  dxz</field>
     <field>x2-y2</field>
     <set>
      <set comment="ion 1">
       <set comment="spin 1">
        <r>   -20.9406     0.0000     0.0000     0.0000     0.0000     0.0000     0.0000     0.0000     0.0000     0.0000 </r>
        <r>   -20.8464     0.0000     0.0000     0.0000     0.0000     0.0000     0.0000     0.0000     0.0000     0.0000 </r>
        <r>   -20.7523     0.0000     0.0000     0.0000     0.0000     0.0000     0.0000     0.0000     0.0000     0.0000 </r>
        <r>   -20.6581     0.0000     0.0000     0.0000     0.0000     0.0000     0.0000     0.0000     0.0000     0.0000 </r>
        <r>   -20.5639     0.0000     0.0000     0.0000     0.0000     0.0000     0.0000     0.0000     0.0000     0.0000 </r>
        <r>   -20.4697     0.0000     0.0000     0.0000     0.0000     0.0000     0.0000     0.0000     0.0000     0.0000 </r>
        <r>   -20.3755     0.0000     0.0000     0.0000     0.0000     0.0000     0.0000     0.0000     0.0000     0.0000 </r>
        <r>   -20.2813     0.0000     0.0000     0.0000     0.0000     0.0000     0.0000     0.0000     0.0000     0.0000 </r>
        <r>   -20.1872     0.0000     0.0000     0.0000     0.0000     0.0000     0.0000     0.0000     0.0000     0.0000 </r>
        <r>   -20.0930     0.0000     0.0000     0.0000     0.0000     0.0000     0.0000     0.0000     0.0000     0.0000 </r>
        <r>   -19.9988     0.0000     0.0000     0.0000     0.0000     0.0000     0.0000     0.0000     0.0000     0.0000 </r>
        <r>   -19.9046     0.0000     0.0000     0.0000     0.0000     0.0000     0.0000     0.0000     0.0000     0.0000 </r>
        <r>   -19.8104     0.0001     0.0000     0.0000     0.0000     0.0000     0.0000     0.0000     0.0000     0.0000 </r>
        <r>   -19.7162     0.4143     0.0000     0.0000     0.0000     0.0000     0.0000     0.0000     0.0000     0.0000 </r>
        <r>   -19.6221     7.2589     0.0000     0.0000     0.0000     0.0000     0.0000     0.0000     0.0000     0.0000 </r>
        <r>   -19.5279     1.5299     0.0000     0.0000     0.0000     0.0000     0.0000     0.0000     0.0000     0.0000 </r>
        <r>   -19.4337     0.0013     0.0000     0.0000     0.0000     0.0000     0.0000     0.0000     0.0000     0.0000 </r>
        <r>   -19.3395     0.0000     0.0000     0.0000     0.0000     0.0000     0.0000     0.0000     0.0000     0.0000 </r>
        <r>   -19.2453     0.0000     0.0000     0.0000     0.0000     0.0000     0.0000     0.0000     0.0000     0.0000 </r>
        <r>   -19.1511     0.0000     0.0000     0.0000     0.0000     0.0000     0.0000     0.0000     0.0000     0.0000 </r>
        <r>   -19.0570     0.0000     0.0000     0.0000     0.0000     0.0000     0.0000     0.0000     0.0000     0.0000 </r>
        <r>   -18.9628     0.0000     0.0000     0.0000     0.0000     0.0000     0.0000     0.0000     0.0000     0.0000 </r>
        <r>   -18.8686     0.0000     0.0000     0.0000     0.0000     0.0000     0.0000     0.0000     0.0000     0.0000 </r>
        <r>   -18.7744     0.0000     0.0000     0.0000     0.0000     0.0000     0.0000     0.0000     0.0000     0.0000 </r>
        <r>   -18.6802     0.0000     0.0000     0.0000     0.0000     0.0000     0.0000     0.0000     0.0000     0.0000 </r>
        <r>   -18.5860     0.0000     0.0000     0.0000     0.0000     0.0000     0.0000     0.0000     0.0000     0.0000 </r>
        <r>   -18.4919     0.0000     0.0000     0.0000     0.0000     0.0000     0.0000     0.0000     0.0000     0.0000 </r>
        <r>   -18.3977     0.0000     0.0000     0.0000     0.0000     0.0000     0.0000     0.0000     0.0000     0.0000 </r>
        <r>   -18.3035     0.0000     0.0000     0.0000     0.0000     0.0000     0.0000     0.0000     0.0000     0.0000 </r>
        <r>   -18.2093     0.0000     0.0000     0.0000     0.0000     0.0000     0.0000     0.0000     0.0000     0.0000 </r>
        <r>   -18.1151     0.0000     0.0000     0.0000     0.0000     0.0000     0.0000     0.0000     0.0000     0.0000 </r>
        <r>   -18.0209     0.0000     0.0000     0.0000     0.0000     0.0000     0.0000     0.0000     0.0000     0.0000 </r>
        <r>   -17.9268     0.0000     0.0000     0.0000     0.0000     0.0000     0.0000     0.0000     0.0000     0.0000 </r>
        <r>   -17.8326     0.0000     0.0000     0.0000     0.0000     0.0000     0.0000     0.0000     0.0000     0.0000 </r>
        <r>   -17.7384     0.0000     0.0000     0.0000     0.0000     0.0000     0.0000     0.0000     0.0000     0.0000 </r>
        <r>   -17.6442     0.0000     0.0000     0.0000     0.0000     0.0000     0.0000     0.0000     0.0000     0.0000 </r>
        <r>   -17.5500     0.0000     0.0000     0.0000     0.0000     0.0000     0.0000     0.0000     0.0000     0.0000 </r>
        <r>   -17.4558     0.0000     0.0000     0.0000     0.0000     0.0000     0.0000     0.0000     0.0000     0.0000 </r>
        <r>   -17.3617     0.0000     0.0000     0.0000     0.0000     0.0000     0.0000     0.0000     0.0000     0.0000 </r>
        <r>   -17.2675     0.0000     0.0000     0.0000     0.0000     0.0000     0.0000     0.0000     0.0000     0.0000 </r>
        <r>   -17.1733     0.0000     0.0000     0.0000     0.0000     0.0000     0.0000     0.0000     0.0000     0.0000 </r>
        <r>   -17.0791     0.0000     0.0000     0.0000     0.0000     0.0000     0.0000     0.0000     0.0000     0.0000 </r>
        <r>   -16.9849     0.0000     0.0000     0.0000     0.0000     0.0000     0.0000     0.0000     0.0000     0.0000 </r>
        <r>   -16.8907     0.0000     0.0000     0.0000     0.0000     0.0000     0.0000     0.0000     0.0000     0.0000 </r>
        <r>   -16.7966     0.0000     0.0000     0.0000     0.0000     0.0000     0.0000     0.0000     0.0000     0.0000 </r>
        <r>   -16.7024     0.0000     0.0000     0.0000     0.0000     0.0000     0.0000     0.0000     0.0000     0.0000 </r>
        <r>   -16.6082     0.0000     0.0000     0.0000     0.0000     0.0000     0.0000     0.0000     0.0000     0.0000 </r>
        <r>   -16.5140     0.0000     0.0000     0.0000     0.0000     0.0000     0.0000     0.0000     0.0000     0.0000 </r>
        <r>   -16.4198     0.0000     0.0000     0.0000     0.0000     0.0000     0.0000     0.0000     0.0000     0.0000 </r>
        <r>   -16.3256     0.0000     0.0000     0.0000     0.0000     0.0000     0.0000     0.0000     0.0000     0.0000 </r>
        <r>   -16.2315     0.0000     0.0000     0.0000     0.0000     0.0000     0.0000     0.0000     0.0000     0.0000 </r>
        <r>   -16.1373     0.0000     0.0000     0.0000     0.0000     0.0000     0.0000     0.0000     0.0000     0.0000 </r>
        <r>   -16.0431     0.0000     0.0000     0.0000     0.0000     0.0000     0.0000     0.0000     0.0000     0.0000 </r>
        <r>   -15.9489     0.0000     0.0000     0.0000     0.0000     0.0000     0.0000     0.0000     0.0000     0.0000 </r>
        <r>   -15.8547     0.0000     0.0000     0.0000     0.0000     0.0000     0.0000     0.0000     0.0000     0.0000 </r>
        <r>   -15.7605     0.0000     0.0000     0.0000     0.0000     0.0000     0.0000     0.0000     0.0000     0.0000 </r>
        <r>   -15.6664     0.0000     0.0000     0.0000     0.0000     0.0000     0.0000     0.0000     0.0000     0.0000 </r>
        <r>   -15.5722     0.0000     0.0000     0.0000     0.0000     0.0000     0.0000     0.0000     0.0000     0.0000 </r>
        <r>   -15.4780     0.0000     0.0000     0.0000     0.0000     0.0000     0.0000     0.0000     0.0000     0.0000 </r>
        <r>   -15.3838     0.0000     0.0000     0.0000     0.0000     0.0000     0.0000     0.0000     0.0000     0.0000 </r>
        <r>   -15.2896     0.0000     0.0000     0.0000     0.0000     0.0000     0.0000     0.0000     0.0000     0.0000 </r>
        <r>   -15.1955     0.0000     0.0000     0.0000     0.0000     0.0000     0.0000     0.0000     0.0000     0.0000 </r>
        <r>   -15.1013     0.0000     0.0000     0.0000     0.0000     0.0000     0.0000     0.0000     0.0000     0.0000 </r>
        <r>   -15.0071     0.0000     0.0000     0.0000     0.0000     0.0000     0.0000     0.0000     0.0000     0.0000 </r>
        <r>   -14.9129     0.0000     0.0000     0.0000     0.0000     0.0000     0.0000     0.0000     0.0000     0.0000 </r>
        <r>   -14.8187     0.0000     0.0000     0.0000     0.0000     0.0000     0.0000     0.0000     0.0000     0.0000 </r>
        <r>   -14.7245     0.0000     0.0000     0.0000     0.0000     0.0000     0.0000     0.0000     0.0000     0.0000 </r>
        <r>   -14.6304     0.0000     0.0000     0.0000     0.0000     0.0000     0.0000     0.0000     0.0000     0.0000 </r>
        <r>   -14.5362     0.0000     0.0000     0.0000     0.0000     0.0000     0.0000     0.0000     0.0000     0.0000 </r>
        <r>   -14.4420     0.0000     0.0000     0.0000     0.0000     0.0000     0.0000     0.0000     0.0000     0.0000 </r>
        <r>   -14.3478     0.0000     0.0000     0.0000     0.0000     0.0000     0.0000     0.0000     0.0000     0.0000 </r>
        <r>   -14.2536     0.0000     0.0000     0.0000     0.0000     0.0000     0.0000     0.0000     0.0000     0.0000 </r>
        <r>   -14.1594     0.0000     0.0000     0.0000     0.0000     0.0000     0.0000     0.0000     0.0000     0.0000 </r>
        <r>   -14.0653     0.0000     0.0000     0.0000     0.0000     0.0000     0.0000     0.0000     0.0000     0.0000 </r>
        <r>   -13.9711     0.0000     0.0000     0.0000     0.0000     0.0000     0.0000     0.0000     0.0000     0.0000 </r>
        <r>   -13.8769     0.0000     0.0000     0.0000     0.0000     0.0000     0.0000     0.0000     0.0000     0.0000 </r>
        <r>   -13.7827     0.0000     0.0000     0.0000     0.0000     0.0000     0.0000     0.0000     0.0000     0.0000 </r>
        <r>   -13.6885     0.0000     0.0000     0.0000     0.0000     0.0000     0.0000     0.0000     0.0000     0.0000 </r>
        <r>   -13.5943     0.0000     0.0000     0.0000     0.0000     0.0000     0.0000     0.0000     0.0000     0.0000 </r>
        <r>   -13.5002     0.0000     0.0000     0.0000     0.0000     0.0000     0.0000     0.0000     0.0000     0.0000 </r>
        <r>   -13.4060     0.0000     0.0000     0.0000     0.0000     0.0000     0.0000     0.0000     0.0000     0.0000 </r>
        <r>   -13.3118     0.0000     0.0000     0.0000     0.0000     0.0000     0.0000     0.0000     0.0000     0.0000 </r>
        <r>   -13.2176     0.0000     0.0000     0.0000     0.0000     0.0000     0.0000     0.0000     0.0000     0.0000 </r>
        <r>   -13.1234     0.0000     0.0000     0.0000     0.0000     0.0000     0.0000     0.0000     0.0000     0.0000 </r>
        <r>   -13.0292     0.0000     0.0000     0.0000     0.0000     0.0000     0.0000     0.0000     0.0000     0.0000 </r>
        <r>   -12.9351     0.0000     0.0000     0.0000     0.0000     0.0000     0.0000     0.0000     0.0000     0.0000 </r>
        <r>   -12.8409     0.0000     0.0000     0.0000     0.0000     0.0000     0.0000     0.0000     0.0000     0.0000 </r>
        <r>   -12.7467     0.0000     0.0000     0.0000     0.0000     0.0000     0.0000     0.0000     0.0000     0.0000 </r>
        <r>   -12.6525     0.0000     0.0000     0.0000     0.0000     0.0000     0.0000     0.0000     0.0000     0.0000 </r>
        <r>   -12.5583     0.0000     0.0000     0.0000     0.0000     0.0000     0.0000     0.0000     0.0000     0.0000 </r>
        <r>   -12.4641     0.0000     0.0000     0.0000     0.0000     0.0000     0.0000     0.0000     0.0000     0.0000 </r>
        <r>   -12.3700     0.0000     0.0000     0.0000     0.0000     0.0000     0.0000     0.0000     0.0000     0.0000 </r>
        <r>   -12.2758     0.0000     0.0000     0.0000     0.0000     0.0000     0.0000     0.0000     0.0000     0.0000 </r>
        <r>   -12.1816     0.0000     0.0000     0.0000     0.0000     0.0000     0.0000     0.0000     0.0000     0.0000 </r>
        <r>   -12.0874     0.0000     0.0000     0.0000     0.0000     0.0000     0.0000     0.0000     0.0000     0.0000 </r>
        <r>   -11.9932     0.0000     0.0000     0.0000     0.0000     0.0000     0.0000     0.0000     0.0000     0.0000 </r>
        <r>   -11.8990     0.0000     0.0000     0.0000     0.0000     0.0000     0.0000     0.0000     0.0000     0.0000 </r>
        <r>   -11.8049     0.0000     0.0000     0.0000     0.0000     0.0000     0.0000     0.0000     0.0000     0.0000 </r>
        <r>   -11.7107     0.0000     0.0000     0.0000     0.0000     0.0000     0.0000     0.0000     0.0000     0.0000 </r>
        <r>   -11.6165     0.0000     0.0000     0.0000     0.0000     0.0000     0.0000     0.0000     0.0000     0.0000 </r>
        <r>   -11.5223     0.0000     0.0000     0.0000     0.0000     0.0000     0.0000     0.0000     0.0000     0.0000 </r>
        <r>   -11.4281     0.0000     0.0000     0.0000     0.0000     0.0000     0.0000     0.0000     0.0000     0.0000 </r>
        <r>   -11.3339     0.0000     0.0000     0.0000     0.0000     0.0000     0.0000     0.0000     0.0000     0.0000 </r>
        <r>   -11.2398     0.0000     0.0000     0.0000     0.0000     0.0000     0.0000     0.0000     0.0000     0.0000 </r>
        <r>   -11.1456     0.0000     0.0000     0.0000     0.0000     0.0000     0.0000     0.0000     0.0000     0.0000 </r>
        <r>   -11.0514     0.0000     0.0000     0.0000     0.0000     0.0000     0.0000     0.0000     0.0000     0.0000 </r>
        <r>   -10.9572     0.0000     0.0000     0.0000     0.0000     0.0000     0.0000     0.0000     0.0000     0.0000 </r>
        <r>   -10.8630     0.0000     0.0000     0.0000     0.0000     0.0000     0.0000     0.0000     0.0000     0.0000 </r>
        <r>   -10.7688     0.0000     0.0000     0.0000     0.0000     0.0000     0.0000     0.0000     0.0000     0.0000 </r>
        <r>   -10.6747     0.0000     0.0000     0.0000     0.0000     0.0000     0.0000     0.0000     0.0000     0.0000 </r>
        <r>   -10.5805     0.0000     0.0000     0.0000     0.0000     0.0000     0.0000     0.0000     0.0000     0.0000 </r>
        <r>   -10.4863     0.0000     0.0000     0.0000     0.0000     0.0000     0.0000     0.0000     0.0000     0.0000 </r>
        <r>   -10.3921     0.0000     0.0000     0.0000     0.0000     0.0000     0.0000     0.0000     0.0000     0.0000 </r>
        <r>   -10.2979     0.0000     0.0000     0.0000     0.0000     0.0000     0.0000     0.0000     0.0000     0.0000 </r>
        <r>   -10.2037     0.0000     0.0000     0.0000     0.0000     0.0000     0.0000     0.0000     0.0000     0.0000 </r>
        <r>   -10.1096     0.0000     0.0000     0.0000     0.0000     0.0000     0.0000     0.0000     0.0000     0.0000 </r>
        <r>   -10.0154     0.0000     0.0000     0.0000     0.0000     0.0000     0.0000     0.0000     0.0000     0.0000 </r>
        <r>    -9.9212     0.0000     0.0000     0.0000     0.0000     0.0000     0.0000     0.0000     0.0000     0.0000 </r>
        <r>    -9.8270     0.0000     0.0000     0.0000     0.0000     0.0000     0.0000     0.0000     0.0000     0.0000 </r>
        <r>    -9.7328     0.0000     0.0000     0.0000     0.0000     0.0000     0.0000     0.0000     0.0000     0.0000 </r>
        <r>    -9.6386     0.0000     0.0000     0.0000     0.0000     0.0000     0.0000     0.0000     0.0000     0.0000 </r>
        <r>    -9.5445     0.0000     0.0000     0.0000     0.0000     0.0000     0.0000     0.0000     0.0000     0.0000 </r>
        <r>    -9.4503     0.0000     0.0000     0.0000     0.0000     0.0000     0.0000     0.0000     0.0000     0.0000 </r>
        <r>    -9.3561     0.0000     0.0000     0.0000     0.0000     0.0000     0.0000     0.0000     0.0000     0.0000 </r>
        <r>    -9.2619     0.0000     0.0000     0.0000     0.0000     0.0000     0.0000     0.0000     0.0000     0.0000 </r>
        <r>    -9.1677     0.0000     0.0000     0.0000     0.0000     0.0000     0.0000     0.0000     0.0000     0.0000 </r>
        <r>    -9.0735     0.0000     0.0000     0.0000     0.0000     0.0000     0.0000     0.0000     0.0000     0.0000 </r>
        <r>    -8.9794     0.0000     0.0000     0.0000     0.0000     0.0000     0.0000     0.0000     0.0000     0.0000 </r>
        <r>    -8.8852     0.0000     0.0000     0.0000     0.0000     0.0000     0.0000     0.0000     0.0000     0.0000 </r>
        <r>    -8.7910     0.0000     0.0000     0.0000     0.0000     0.0000     0.0000     0.0000     0.0000     0.0000 </r>
        <r>    -8.6968     0.0000     0.0000     0.0000     0.0000     0.0000     0.0000     0.0000     0.0000     0.0000 </r>
        <r>    -8.6026     0.0000     0.0000     0.0000     0.0000     0.0000     0.0000     0.0000     0.0000     0.0000 </r>
        <r>    -8.5084     0.0000     0.0000     0.0000     0.0000     0.0000     0.0000     0.0000     0.0000     0.0000 </r>
        <r>    -8.4143     0.0000     0.0000     0.0000     0.0000     0.0000     0.0000     0.0000     0.0000     0.0000 </r>
        <r>    -8.3201     0.0000     0.0000     0.0000     0.0000     0.0000     0.0000     0.0000     0.0000     0.0000 </r>
        <r>    -8.2259     0.0000     0.1078     0.1078     0.1076     0.0000     0.0000     0.0000     0.0000     0.0000 </r>
        <r>    -8.1317     0.0000     4.8525     4.8537     4.8465     0.0000     0.0000     0.0000     0.0000     0.0000 </r>
        <r>    -8.0375     0.0000     2.2326     2.2332     2.2305     0.0000     0.0000     0.0000     0.0000     0.0000 </r>
        <r>    -7.9433     0.0000     0.0057     0.0057     0.0057     0.0000     0.0000     0.0000     0.0000     0.0000 </r>
        <r>    -7.8492     0.0000     0.0000     0.0000     0.0000     0.0000     0.0000     0.0000     0.0000     0.0000 </r>
        <r>    -7.7550     0.0000     0.0000     0.0000     0.0000     0.0000     0.0000     0.0000     0.0000     0.0000 </r>
        <r>    -7.6608     0.0000     0.0000     0.0000     0.0000     0.0000     0.0000     0.0000     0.0000     0.0000 </r>
        <r>    -7.5666     0.0000     0.0000     0.0000     0.0000     0.0000     0.0000     0.0000     0.0000     0.0000 </r>
        <r>    -7.4724     0.0000     0.0000     0.0000     0.0000     0.0000     0.0000     0.0000     0.0000     0.0000 </r>
        <r>    -7.3782     0.0000     0.0000     0.0000     0.0000     0.0000     0.0000     0.0000     0.0000     0.0000 </r>
        <r>    -7.2841     0.0000     0.0000     0.0000     0.0000     0.0000     0.0000     0.0000     0.0000     0.0000 </r>
        <r>    -7.1899     0.0000     0.0000     0.0000     0.0000     0.0000     0.0000     0.0000     0.0000     0.0000 </r>
        <r>    -7.0957     0.0000     0.0000     0.0000     0.0000     0.0000     0.0000     0.0000     0.0000     0.0000 </r>
        <r>    -7.0015     0.0000     0.0000     0.0000     0.0000     0.0000     0.0000     0.0000     0.0000     0.0000 </r>
        <r>    -6.9073     0.0000     0.0000     0.0000     0.0000     0.0000     0.0000     0.0000     0.0000     0.0000 </r>
        <r>    -6.8131     0.0000     0.0000     0.0000     0.0000     0.0000     0.0000     0.0000     0.0000     0.0000 </r>
        <r>    -6.7190     0.0000     0.0000     0.0000     0.0000     0.0000     0.0000     0.0000     0.0000     0.0000 </r>
        <r>    -6.6248     0.0000     0.0000     0.0000     0.0000     0.0000     0.0000     0.0000     0.0000     0.0000 </r>
        <r>    -6.5306     0.0000     0.0000     0.0000     0.0000     0.0000     0.0000     0.0000     0.0000     0.0000 </r>
        <r>    -6.4364     0.0000     0.0000     0.0000     0.0000     0.0000     0.0000     0.0000     0.0000     0.0000 </r>
        <r>    -6.3422     0.0000     0.0000     0.0000     0.0000     0.0000     0.0000     0.0000     0.0000     0.0000 </r>
        <r>    -6.2480     0.0000     0.0000     0.0000     0.0000     0.0000     0.0000     0.0000     0.0000     0.0000 </r>
        <r>    -6.1539     0.0000     0.0000     0.0000     0.0000     0.0000     0.0000     0.0000     0.0000     0.0000 </r>
[...]
        <r>     3.0761     0.0001     0.0000     0.0000     0.0000     0.0000     0.0000     0.0000     0.0000     0.0000 </r>
        <r>     3.1703     0.0000     0.0000     0.0000     0.0000     0.0000     0.0000     0.0000     0.0000     0.0000 </r>
        <r>     3.2645     0.0000     0.0000     0.0000     0.0000     0.0000     0.0000     0.0000     0.0000     0.0000 </r>
        <r>     3.3586     0.0000     0.0000     0.0000     0.0000     0.0000     0.0000     0.0000     0.0000     0.0000 </r>
        <r>     3.4528     0.0000     0.0000     0.0000     0.0000     0.0000     0.0000     0.0000     0.0000     0.0000 </r>
        <r>     3.5470     0.0000     0.0000     0.0000     0.0000     0.0000     0.0000     0.0000     0.0000     0.0000 </r>
        <r>     3.6412     0.0000     0.0004     0.0002     0.0002     0.0000     0.0000     0.0000     0.0000     0.0000 </r>
        <r>     3.7354     0.0000     0.0006     0.0002     0.0004     0.0000     0.0000     0.0000     0.0000     0.0000 </r>
        <r>     3.8296     0.0000     0.0001     0.0000     0.0000     0.0000     0.0000     0.0000     0.0000     0.0000 </r>
        <r>     3.9237     0.0008     0.0011     0.0004     0.0002     0.0000     0.0000     0.0000     0.0000     0.0000 </r>
        <r>     4.0179     0.0011     0.0011     0.0006     0.0001     0.0000     0.0000     0.0000     0.0000     0.0000 </r>
        <r>     4.1121     0.0000     0.0000     0.0000     0.0000     0.0000     0.0000     0.0000     0.0000     0.0000 </r>
        <r>     4.2063     0.0004     0.0001     0.0202     0.0155     0.0000     0.0000     0.0000     0.0000     0.0000 </r>
        <r>     4.3005     0.0072     0.0200     0.0593     0.0483     0.0000     0.0000     0.0000     0.0000     0.0000 </r>
        <r>     4.3947     0.0224     0.0461     0.0376     0.0426     0.0000     0.0000     0.0000     0.0000     0.0000 </r>
        <r>     4.4888     0.0406     0.0374     0.0042     0.0059     0.0000     0.0000     0.0000     0.0000     0.0000 </r>
        <r>     4.5830     0.0092     0.0085     0.0001     0.0005     0.0000     0.0000     0.0000     0.0000     0.0000 </r>
        <r>     4.6772     0.0000     0.0000     0.0000     0.0000     0.0000     0.0000     0.0000     0.0000     0.0000 </r>
        <r>     4.7714     0.0000     0.0000     0.0000     0.0000     0.0000     0.0000     0.0000     0.0000     0.0000 </r>
        <r>     4.8656     0.0000     0.0000     0.0000     0.0000     0.0000     0.0000     0.0000     0.0000     0.0000 </r>
        <r>     4.9598     0.0000     0.0000     0.0000     0.0000     0.0000     0.0000     0.0000     0.0000     0.0000 </r>
        <r>     5.0539     0.0000     0.0000     0.0000     0.0000     0.0000     0.0000     0.0000     0.0000     0.0000 </r>
        <r>     5.1481     0.0000     0.0000     0.0000     0.0000     0.0000     0.0000     0.0000     0.0000     0.0000 </r>
        <r>     5.2423     0.0000     0.0000     0.0000     0.0000     0.0000     0.0000     0.0000     0.0000     0.0000 </r>
        <r>     5.3365     0.0001     0.0001     0.0003     0.0000     0.0000     0.0000     0.0000     0.0000     0.0000 </r>
        <r>     5.4307     0.0023     0.0036     0.0093     0.0014     0.0000     0.0000     0.0000     0.0000     0.0000 </r>
        <r>     5.5248     0.0008     0.0012     0.0030     0.0005     0.0000     0.0000     0.0000     0.0000     0.0000 </r>
        <r>     5.6190     0.0135     0.0020     0.0001     0.0047     0.0000     0.0000     0.0000     0.0000     0.0000 </r>
        <r>     5.7132     0.0213     0.0031     0.0001     0.0074     0.0000     0.0000     0.0000     0.0000     0.0000 </r>
        <r>     5.8074     0.0003     0.0000     0.0000     0.0001     0.0000     0.0000     0.0000     0.0000     0.0000 </r>
        <r>     5.9016     0.0000     0.0000     0.0000     0.0000     0.0000     0.0000     0.0000     0.0000     0.0000 </r>
        <r>     5.9958     0.0019     0.0022     0.0043     0.0016     0.0000     0.0000     0.0000     0.0000     0.0000 </r>
        <r>     6.0899     0.0091     0.0106     0.0204     0.0076     0.0000     0.0000     0.0000     0.0000     0.0000 </r>
        <r>     6.1841     0.0005     0.0006     0.0012     0.0004     0.0000     0.0000     0.0000     0.0000     0.0000 </r>
        <r>     6.2783     0.0000     0.0000     0.0000     0.0000     0.0000     0.0000     0.0000     0.0000     0.0000 </r>
        <r>     6.3725     0.0000     0.0000     0.0000     0.0000     0.0000     0.0000     0.0000     0.0000     0.0000 </r>
        <r>     6.4667     0.0000     0.0000     0.0000     0.0000     0.0000     0.0000     0.0000     0.0000     0.0000 </r>
        <r>     6.5609     0.0000     0.0000     0.0000     0.0000     0.0000     0.0000     0.0000     0.0000     0.0000 </r>
        <r>     6.6550     0.0000     0.0000     0.0000     0.0000     0.0000     0.0000     0.0000     0.0000     0.0000 </r>
        <r>     6.7492     0.0000     0.0000     0.0000     0.0000     0.0000     0.0000     0.0000     0.0000     0.0000 </r>
        <r>     6.8434     0.0000     0.0000     0.0000     0.0000     0.0000     0.0000     0.0000     0.0000     0.0000 </r>
        <r>     6.9376     0.0000     0.0000     0.0000     0.0000     0.0000     0.0000     0.0000     0.0000     0.0000 </r>
        <r>     7.0318     0.0000     0.0000     0.0000     0.0000     0.0000     0.0000     0.0000     0.0000     0.0000 </r>
        <r>     7.1260     0.0000     0.0000     0.0000     0.0000     0.0000     0.0000     0.0000     0.0000     0.0000 </r>
        <r>     7.2201     0.0000     0.0000     0.0000     0.0000     0.0000     0.0000     0.0000     0.0000     0.0000 </r>
        <r>     7.3143     0.0000     0.0000     0.0000     0.0000     0.0000     0.0000     0.0000     0.0000     0.0000 </r>
       </set>
      </set>
     </set>
    </array>
   </partial>
  </dos>
  <projected>
   <eigenvalues>
    <array>
     <dimension dim="1">band</dimension>
     <dimension dim="2">kpoint</dimension>
     <dimension dim="3">spin</dimension>
     <field>eigene</field>
     <field>occ</field>
     <set>
      <set comment="spin 1">
       <set comment="kpoint 1">
        <r>  -19.6563    1.0000 </r>
        <r>   -8.1491    1.0000 </r>
        <r>   -8.1491    1.0000 </r>
        <r>   -8.1491    1.0000 </r>
        <r>   -0.6677    0.0000 </r>
        <r>    0.9445    0.0000 </r>
        <r>    0.9449    0.0000 </r>
        <r>    1.0268    0.0000 </r>
        <r>    1.0268    0.0000 </r>
        <r>    1.0268    0.0000 </r>
        <r>    1.0345    0.0000 </r>
        <r>    1.7246    0.0000 </r>
        <r>    1.7247    0.0000 </r>
        <r>    1.7249    0.0000 </r>
        <r>    2.4651    0.0000 </r>
        <r>    2.4651    0.0000 </r>
        <r>    2.6241    0.0000 </r>
        <r>    2.6259    0.0000 </r>
        <r>    2.6336    0.0000 </r>
        <r>    2.6814    0.0000 </r>
        <r>    2.6851    0.0000 </r>
        <r>    2.6958    0.0000 </r>
        <r>    2.9056    0.0000 </r>
        <r>    3.6600    0.0000 </r>
        <r>    3.6601    0.0000 </r>
        <r>    3.6610    0.0000 </r>
        <r>    3.8749    0.0000 </r>
        <r>    3.8842    0.0000 </r>
        <r>    3.9616    0.0000 </r>
        <r>    4.2300    0.0000 </r>
        <r>    4.2375    0.0000 </r>
        <r>    4.4360    0.0000 </r>
        <r>    5.0541    0.0000 </r>
        <r>    5.0691    0.0000 </r>
        <r>    5.3774    0.0000 </r>
        <r>    5.5768    0.0000 </r>
       </set>
      </set>
      <set comment="spin 2">
       <set comment="kpoint 1">
        <r>  -19.6561    1.0000 </r>
        <r>   -8.1492    1.0000 </r>
        <r>   -8.1492    1.0000 </r>
        <r>   -8.1492    1.0000 </r>
        <r>   -0.6681    0.0000 </r>
        <r>    0.9443    0.0000 </r>
        <r>    0.9445    0.0000 </r>
        <r>    1.0270    0.0000 </r>
        <r>    1.0285    0.0000 </r>
        <r>    1.0295    0.0000 </r>
        <r>    1.0358    0.0000 </r>
        <r>    1.7243    0.0000 </r>
        <r>    1.7244    0.0000 </r>
        <r>    1.7245    0.0000 </r>
        <r>    2.4651    0.0000 </r>
        <r>    2.4652    0.0000 </r>
        <r>    2.6207    0.0000 </r>
        <r>    2.6437    0.0000 </r>
        <r>    2.6493    0.0000 </r>
        <r>    2.6709    0.0000 </r>
        <r>    2.6796    0.0000 </r>
        <r>    2.7192    0.0000 </r>
        <r>    2.8672    0.0000 </r>
        <r>    3.6505    0.0000 </r>
        <r>    3.6604    0.0000 </r>
        <r>    3.6610    0.0000 </r>
        <r>    3.8726    0.0000 </r>
        <r>    3.8748    0.0000 </r>
        <r>    3.9329    0.0000 </r>
        <r>    4.2285    0.0000 </r>
        <r>    4.3185    0.0000 </r>
        <r>    4.3461    0.0000 </r>
        <r>    4.4567    0.0000 </r>
        <r>    5.4055    0.0000 </r>
        <r>    5.6293    0.0000 </r>
        <r>    6.0300    0.0000 </r>
       </set>
      </set>
     </set>
    </array>
   </eigenvalues>
   <array>
    <dimension dim="1">ion</dimension>
    <dimension dim="2">band</dimension>
    <dimension dim="3">kpoint</dimension>
    <dimension dim="4">spin</dimension>
    <field>    s</field>
    <field>   py</field>
    <field>   pz</field>
    <field>   px</field>
    <field>  dxy</field>
    <field>  dyz</field>
    <field>  dz2</field>
    <field>  dxz</field>
    <field>x2-y2</field>
    <set>
     <set comment="spin1">
      <set comment="kpoint 1">
       <set comment="band 1">
        <r>  0.8669  0.0000  0.0000  0.0000  0.0000  0.0000  0.0000  0.0000  0.0000 </r>
       </set>
       <set comment="band 2">
        <r>  0.0000  0.6363  0.0000  0.0417  0.0000  0.0000  0.0000  0.0000  0.0000 </r>
       </set>
       <set comment="band 3">
        <r>  0.0000  0.0008  0.6656  0.0117  0.0000  0.0000  0.0000  0.0000  0.0000 </r>
       </set>
       <set comment="band 4">
        <r>  0.0000  0.0409  0.0125  0.6238  0.0000  0.0000  0.0000  0.0000  0.0000 </r>
       </set>
       <set comment="band 5">
        <r>  0.0198  0.0000  0.0000  0.0000  0.0000  0.0000  0.0000  0.0000  0.0000 </r>
       </set>
       <set comment="band 6">
        <r>  0.0000  0.0000  0.0000  0.0000  0.0000  0.0000  0.0000  0.0000  0.0000 </r>
       </set>
       <set comment="band 7">
        <r>  0.0001  0.0000  0.0000  0.0000  0.0000  0.0000  0.0000  0.0000  0.0000 </r>
       </set>
       <set comment="band 8">
        <r>  0.0000  0.0080  0.0148  0.0161  0.0000  0.0000  0.0000  0.0000  0.0000 </r>
       </set>
       <set comment="band 9">
        <r>  0.0007  0.0182  0.0016  0.0177  0.0000  0.0000  0.0000  0.0000  0.0000 </r>
       </set>
       <set comment="band 10">
        <r>  0.0007  0.0127  0.0211  0.0037  0.0000  0.0000  0.0000  0.0000  0.0000 </r>
       </set>
       <set comment="band 11">
        <r>  0.0174  0.0000  0.0012  0.0012  0.0000  0.0000  0.0000  0.0000  0.0000 </r>
       </set>
       <set comment="band 12">
        <r>  0.0000  0.0000  0.0000  0.0000  0.0000  0.0000  0.0000  0.0000  0.0000 </r>
       </set>
       <set comment="band 13">
        <r>  0.0000  0.0000  0.0000  0.0000  0.0000  0.0000  0.0000  0.0000  0.0000 </r>
       </set>
       <set comment="band 14">
        <r>  0.0000  0.0000  0.0000  0.0000  0.0000  0.0000  0.0000  0.0000  0.0000 </r>
       </set>
       <set comment="band 15">
        <r>  0.0000  0.0000  0.0000  0.0000  0.0000  0.0000  0.0000  0.0000  0.0000 </r>
       </set>
       <set comment="band 16">
        <r>  0.0000  0.0000  0.0000  0.0000  0.0000  0.0000  0.0000  0.0000  0.0000 </r>
       </set>
       <set comment="band 17">
        <r>  0.0001  0.0293  0.0079  0.0030  0.0000  0.0000  0.0000  0.0000  0.0000 </r>
       </set>
       <set comment="band 18">
        <r>  0.0000  0.0019  0.0009  0.0355  0.0000  0.0000  0.0000  0.0000  0.0000 </r>
       </set>
       <set comment="band 19">
        <r>  0.0001  0.0065  0.0289  0.0001  0.0000  0.0000  0.0000  0.0000  0.0000 </r>
       </set>
       <set comment="band 20">
        <r>  0.0000  0.0003  0.0000  0.0007  0.0000  0.0000  0.0000  0.0000  0.0000 </r>
       </set>
       <set comment="band 21">
        <r>  0.0003  0.0012  0.0001  0.0018  0.0000  0.0000  0.0000  0.0000  0.0000 </r>
       </set>
       <set comment="band 22">
        <r>  0.0003  0.0022  0.0039  0.0006  0.0000  0.0000  0.0000  0.0000  0.0000 </r>
       </set>
       <set comment="band 23">
        <r>  0.0176  0.0003  0.0000  0.0000  0.0000  0.0000  0.0000  0.0000  0.0000 </r>
       </set>
       <set comment="band 24">
        <r>  0.0000  0.0000  0.0000  0.0000  0.0000  0.0000  0.0000  0.0000  0.0000 </r>
       </set>
       <set comment="band 25">
        <r>  0.0000  0.0000  0.0000  0.0000  0.0000  0.0000  0.0000  0.0000  0.0000 </r>
       </set>
       <set comment="band 26">
        <r>  0.0000  0.0000  0.0000  0.0000  0.0000  0.0000  0.0000  0.0000  0.0000 </r>
       </set>
       <set comment="band 27">
        <r>  0.0000  0.0000  0.0001  0.0000  0.0000  0.0000  0.0000  0.0000  0.0000 </r>
       </set>
       <set comment="band 28">
        <r>  0.0000  0.0000  0.0003  0.0001  0.0000  0.0000  0.0000  0.0000  0.0000 </r>
       </set>
       <set comment="band 29">
        <r>  0.0001  0.0000  0.0001  0.0032  0.0000  0.0000  0.0000  0.0000  0.0000 </r>
       </set>
       <set comment="band 30">
        <r>  0.0001  0.0000  0.0064  0.0015  0.0000  0.0000  0.0000  0.0000  0.0000 </r>
       </set>
       <set comment="band 31">
        <r>  0.0002  0.0098  0.0015  0.0013  0.0000  0.0000  0.0000  0.0000  0.0000 </r>
       </set>
       <set comment="band 32">
        <r>  0.0075  0.0008  0.0002  0.0003  0.0000  0.0000  0.0000  0.0000  0.0000 </r>
       </set>
       <set comment="band 33">
        <r>  0.0031  0.0007  0.0013  0.0023  0.0000  0.0000  0.0000  0.0000  0.0000 </r>
       </set>
       <set comment="band 34">
        <r>  0.0006  0.0002  0.0007  0.0009  0.0000  0.0000  0.0000  0.0000  0.0000 </r>
       </set>
       <set comment="band 35">
        <r>  0.0005  0.0000  0.0004  0.0001  0.0000  0.0000  0.0000  0.0000  0.0000 </r>
       </set>
       <set comment="band 36">
        <r>  0.0027  0.0002  0.0001  0.0002  0.0000  0.0000  0.0000  0.0000  0.0000 </r>
       </set>
      </set>
     </set>
     <set comment="spin2">
      <set comment="kpoint 1">
       <set comment="band 1">
        <r>  0.8669  0.0000  0.0000  0.0000  0.0000  0.0000  0.0000  0.0000  0.0000 </r>
       </set>
       <set comment="band 2">
        <r>  0.0000  0.4229  0.2099  0.0451  0.0000  0.0000  0.0000  0.0000  0.0000 </r>
       </set>
       <set comment="band 3">
        <r>  0.0000  0.0143  0.0386  0.6250  0.0000  0.0000  0.0000  0.0000  0.0000 </r>
       </set>
       <set comment="band 4">
        <r>  0.0000  0.2399  0.4288  0.0079  0.0000  0.0000  0.0000  0.0000  0.0000 </r>
       </set>
       <set comment="band 5">
        <r>  0.0198  0.0000  0.0000  0.0000  0.0000  0.0000  0.0000  0.0000  0.0000 </r>
       </set>
       <set comment="band 6">
        <r>  0.0000  0.0000  0.0000  0.0000  0.0000  0.0000  0.0000  0.0000  0.0000 </r>
       </set>
       <set comment="band 7">
        <r>  0.0000  0.0000  0.0000  0.0000  0.0000  0.0000  0.0000  0.0000  0.0000 </r>
       </set>
       <set comment="band 8">
        <r>  0.0001  0.0004  0.0163  0.0213  0.0000  0.0000  0.0000  0.0000  0.0000 </r>
       </set>
       <set comment="band 9">
        <r>  0.0067  0.0008  0.0129  0.0115  0.0000  0.0000  0.0000  0.0000  0.0000 </r>
       </set>
       <set comment="band 10">
        <r>  0.0061  0.0147  0.0056  0.0052  0.0000  0.0000  0.0000  0.0000  0.0000 </r>
       </set>
       <set comment="band 11">
        <r>  0.0064  0.0194  0.0030  0.0007  0.0000  0.0000  0.0000  0.0000  0.0000 </r>
       </set>
       <set comment="band 12">
        <r>  0.0000  0.0000  0.0000  0.0000  0.0000  0.0000  0.0000  0.0000  0.0000 </r>
       </set>
       <set comment="band 13">
        <r>  0.0000  0.0000  0.0000  0.0000  0.0000  0.0000  0.0000  0.0000  0.0000 </r>
       </set>
       <set comment="band 14">
        <r>  0.0000  0.0000  0.0000  0.0000  0.0000  0.0000  0.0000  0.0000  0.0000 </r>
       </set>
       <set comment="band 15">
        <r>  0.0000  0.0000  0.0000  0.0000  0.0000  0.0000  0.0000  0.0000  0.0000 </r>
       </set>
       <set comment="band 16">
        <r>  0.0000  0.0000  0.0000  0.0000  0.0000  0.0000  0.0000  0.0000  0.0000 </r>
       </set>
       <set comment="band 17">
        <r>  0.0000  0.0065  0.0136  0.0220  0.0000  0.0000  0.0000  0.0000  0.0000 </r>
       </set>
       <set comment="band 18">
        <r>  0.0004  0.0059  0.0187  0.0053  0.0000  0.0000  0.0000  0.0000  0.0000 </r>
       </set>
       <set comment="band 19">
        <r>  0.0000  0.0144  0.0013  0.0072  0.0000  0.0000  0.0000  0.0000  0.0000 </r>
       </set>
       <set comment="band 20">
        <r>  0.0002  0.0039  0.0066  0.0004  0.0000  0.0000  0.0000  0.0000  0.0000 </r>
       </set>
       <set comment="band 21">
        <r>  0.0000  0.0007  0.0002  0.0015  0.0000  0.0000  0.0000  0.0000  0.0000 </r>
       </set>
       <set comment="band 22">
        <r>  0.0034  0.0069  0.0006  0.0047  0.0000  0.0000  0.0000  0.0000  0.0000 </r>
       </set>
       <set comment="band 23">
        <r>  0.0145  0.0036  0.0001  0.0003  0.0000  0.0000  0.0000  0.0000  0.0000 </r>
       </set>
       <set comment="band 24">
        <r>  0.0000  0.0001  0.0000  0.0000  0.0000  0.0000  0.0000  0.0000  0.0000 </r>
       </set>
       <set comment="band 25">
        <r>  0.0000  0.0000  0.0000  0.0000  0.0000  0.0000  0.0000  0.0000  0.0000 </r>
       </set>
       <set comment="band 26">
        <r>  0.0000  0.0000  0.0000  0.0000  0.0000  0.0000  0.0000  0.0000  0.0000 </r>
       </set>
       <set comment="band 27">
        <r>  0.0000  0.0000  0.0000  0.0000  0.0000  0.0000  0.0000  0.0000  0.0000 </r>
       </set>
       <set comment="band 28">
        <r>  0.0000  0.0000  0.0000  0.0000  0.0000  0.0000  0.0000  0.0000  0.0000 </r>
       </set>
       <set comment="band 29">
        <r>  0.0002  0.0002  0.0001  0.0000  0.0000  0.0000  0.0000  0.0000  0.0000 </r>
       </set>
       <set comment="band 30">
        <r>  0.0001  0.0000  0.0072  0.0055  0.0000  0.0000  0.0000  0.0000  0.0000 </r>
       </set>
       <set comment="band 31">
        <r>  0.0016  0.0061  0.0003  0.0006  0.0000  0.0000  0.0000  0.0000  0.0000 </r>
       </set>
       <set comment="band 32">
        <r>  0.0010  0.0000  0.0039  0.0043  0.0000  0.0000  0.0000  0.0000  0.0000 </r>
       </set>
       <set comment="band 33">
        <r>  0.0048  0.0044  0.0001  0.0002  0.0000  0.0000  0.0000  0.0000  0.0000 </r>
       </set>
       <set comment="band 34">
        <r>  0.0003  0.0005  0.0012  0.0002  0.0000  0.0000  0.0000  0.0000  0.0000 </r>
       </set>
       <set comment="band 35">
        <r>  0.0033  0.0005  0.0000  0.0012  0.0000  0.0000  0.0000  0.0000  0.0000 </r>
       </set>
       <set comment="band 36">
        <r>  0.0011  0.0013  0.0024  0.0009  0.0000  0.0000  0.0000  0.0000  0.0000 </r>
       </set>
      </set>
     </set>
    </set>
   </array>
  </projected>
 </calculation>
 <structure name="finalpos" >
  <crystal>
   <varray name="basis" >
    <v>      10.00000000       0.00000000       0.00000000 </v>
    <v>       0.00000000      10.00000000       0.00000000 </v>
    <v>       0.00000000       0.00000000      10.00000000 </v>
   </varray>
   <i name="volume">   1000.00000000 </i>
   <varray name="rec_basis" >
    <v>       0.10000000       0.00000000       0.00000000 </v>
    <v>       0.00000000       0.10000000       0.00000000 </v>
    <v>       0.00000000       0.00000000       0.10000000 </v>
   </varray>
  </crystal>
  <varray name="positions" >
   <v>       0.50000000       0.50000000       0.50000000 </v>
  </varray>
 </structure>
</modeling>
