       N       E                     dE             d eps       ncg     rms          rms(c)
DAV:   1     0.268847096901E+03    0.26885E+03   -0.29927E+03   144   0.204E+02
DAV:   2     0.903476498122E+01   -0.25981E+03   -0.25964E+03   180   0.645E+01
DAV:   3    -0.812683571720E+00   -0.98474E+01   -0.91136E+01   180   0.264E+01
DAV:   4    -0.832748932684E+00   -0.20065E-01   -0.20062E-01   216   0.137E+00
DAV:   5    -0.832763482823E+00   -0.14550E-04   -0.14551E-04   144   0.363E-02    0.951E+00
DAV:   6     0.298414540018E+01    0.38169E+01   -0.20002E+01   144   0.567E+00    0.326E+00
DAV:   7     0.372089300676E+01    0.73675E+00   -0.79613E-01   180   0.173E+00    0.226E+00
DAV:   8     0.109951323156E+01   -0.26214E+01   -0.11383E+00   144   0.189E+00    0.145E+00
DAV:   9    -0.124083287150E+01   -0.23403E+01   -0.81760E-01   180   0.127E+00    0.603E+00
DAV:  10    -0.122209256507E+01    0.18740E-01   -0.16434E-02   144   0.452E-01    0.615E+00
DAV:  11    -0.223103366569E+01   -0.10089E+01   -0.11046E+00   180   0.161E+00    0.504E+00
DAV:  12    -0.256268365785E+01   -0.33165E+00   -0.21243E-01   144   0.791E-01    0.459E+00
DAV:  13    -0.260822962583E+01   -0.45546E-01   -0.58825E-03   216   0.132E-01    0.453E+00
DAV:  14    -0.277587564647E+01   -0.16765E+00   -0.93227E-02   216   0.492E-01    0.415E+00
DAV:  15    -0.300197803374E+01   -0.22610E+00   -0.44797E-01   180   0.132E+00    0.271E+00
DAV:  16    -0.332213458316E+01   -0.32016E+00   -0.24840E+00   252   0.123E+00    0.491E+00
DAV:  17    -0.328534243766E+01    0.36792E-01   -0.90156E-03   216   0.271E-01    0.483E+00
DAV:  18    -0.318322848938E+01    0.10211E+00   -0.89915E-03   216   0.203E-01    0.462E+00
DAV:  19    -0.320471123868E+01   -0.21483E-01   -0.38602E-03   216   0.151E-01    0.446E+00
DAV:  20    -0.325363178982E+01   -0.48921E-01   -0.89606E-03   180   0.207E-01    0.439E+00
DAV:  21    -0.319546980258E+01    0.58162E-01   -0.49737E-01   180   0.528E-01    0.398E+00
DAV:  22    -0.325251312962E+01   -0.57043E-01   -0.15542E+00   144   0.111E+00    0.230E+00
DAV:  23    -0.324643832995E+01    0.60748E-02   -0.79399E-02   180   0.479E-01    0.107E+00
DAV:  24    -0.325853259043E+01   -0.12094E-01   -0.50792E-03   144   0.868E-02    0.160E+00
DAV:  25    -0.327143751317E+01   -0.12905E-01   -0.24982E-02   144   0.230E-01    0.113E+00
DAV:  26    -0.328787047387E+01   -0.16433E-01   -0.56873E-03   180   0.187E-01    0.205E+00
DAV:  27    -0.328990530132E+01   -0.20348E-02   -0.10604E-02   144   0.114E-01    0.200E+00
DAV:  28    -0.329174322393E+01   -0.18379E-02   -0.26948E-02   144   0.333E-01    0.120E+00
DAV:  29    -0.327927270481E+01    0.12471E-01   -0.24288E-03   144   0.152E-01    0.410E-01
DAV:  30    -0.328212611132E+01   -0.28534E-02   -0.31558E-03   144   0.130E-01    0.996E-01
DAV:  31    -0.328298606697E+01   -0.85996E-03   -0.50669E-03   144   0.155E-01    0.517E-01
DAV:  32    -0.328068108992E+01    0.23050E-02   -0.35348E-02   144   0.118E-01    0.533E-01
DAV:  33    -0.328336273302E+01   -0.26816E-02   -0.18838E-02   144   0.112E-01    0.783E-01
DAV:  34    -0.328616559396E+01   -0.28029E-02   -0.45802E-02   144   0.117E-01    0.126E+00
DAV:  35    -0.328125491533E+01    0.49107E-02   -0.38987E-02   144   0.133E-01    0.704E-01
DAV:  36    -0.328988367219E+01   -0.86288E-02   -0.54165E-02   144   0.151E-01    0.139E+00
DAV:  37    -0.327898198117E+01    0.10902E-01   -0.22115E-02   144   0.145E-01    0.310E-01
DAV:  38    -0.328856654661E+01   -0.95846E-02   -0.21543E-02   144   0.140E-01    0.116E+00
DAV:  39    -0.327914401557E+01    0.94225E-02   -0.76695E-03   144   0.131E-01    0.158E-01
DAV:  40    -0.328575130074E+01   -0.66073E-02   -0.62562E-03   144   0.118E-01    0.849E-01
DAV:  41    -0.328023503129E+01    0.55163E-02   -0.94749E-03   144   0.107E-01    0.180E-01
DAV:  42    -0.328391917627E+01   -0.36841E-02   -0.64296E-03   144   0.912E-02    0.581E-01
DAV:  43    -0.328078229956E+01    0.31369E-02   -0.82356E-03   144   0.749E-02    0.162E-01
DAV:  44    -0.328304813454E+01   -0.22658E-02   -0.50373E-03   144   0.652E-02    0.368E-01
DAV:  45    -0.328187885074E+01    0.11693E-02   -0.51586E-03   144   0.553E-02    0.144E-01
DAV:  46    -0.328268392607E+01   -0.80508E-03   -0.28636E-03   144   0.509E-02    0.209E-01
DAV:  47    -0.328246256208E+01    0.22136E-03   -0.25252E-03   180   0.371E-02    0.126E-01
DAV:  48    -0.328255523329E+01   -0.92671E-04   -0.11243E-03   144   0.349E-02    0.105E-01
DAV:  49    -0.328256453739E+01   -0.93041E-05   -0.10601E-03   180   0.262E-02    0.101E-01
DAV:  50    -0.328252583000E+01    0.38707E-04   -0.23394E-04   144   0.260E-02
   1 F= -.32825258E+01 E0= -.32588494E+01  d E =-.328253E+01  mag=     5.0001
