       N       E                     dE             d eps       ncg     rms          ort
DAV:   1     0.805210460108E+02    0.80521E+02   -0.56038E+03    36   0.303E+02
DAV:   2     0.140838146899E+02   -0.66437E+02   -0.65613E+02    36   0.736E+01
DAV:   3     0.495514191069E+00   -0.13588E+02   -0.13584E+02    36   0.446E+01
DAV:   4    -0.994120478403E+00   -0.14896E+01   -0.14759E+01    36   0.131E+01
DAV:   5    -0.128579790009E+01   -0.29168E+00   -0.28908E+00    36   0.436E+00
SDA:   6    -0.509179514950E+00    0.77662E+00   -0.77677E+01    36   0.194E+02 0.000E+00
DMP:   7     0.226627103865E+02    0.23172E+02   -0.76571E+02    36   0.218E+03-0.702E+02
DMP:   8     0.350665388806E+02    0.12404E+02   -0.21961E+03    36   0.654E+03-0.275E+03
DMP:   9     0.698570863021E+02    0.34791E+02   -0.26799E+03    36   0.843E+03-0.453E+03
DMP:  10     0.560708869379E+02   -0.13786E+02   -0.36762E+03    36   0.112E+04-0.528E+03
DMP:  11     0.200917474317E+02   -0.35979E+02   -0.12689E+03    36   0.333E+03-0.426E+02
DMP:  12     0.387074117806E+02    0.18616E+02   -0.16328E+03    36   0.527E+03-0.311E+03
DMP:  13     0.174655737291E+02   -0.21242E+02   -0.26952E+02    36   0.117E+03-0.131E+03
DMP:  14     0.258533798656E+01   -0.14880E+02   -0.22180E+02    36   0.562E+02-0.198E+01
DMP:  15     0.454506011581E+01    0.19597E+01   -0.21014E+02    36   0.746E+02-0.577E+02
DMP:  16     0.204412395708E+01   -0.25009E+01   -0.92206E+01    36   0.296E+02-0.170E+02
DMP:  17     0.137878101362E+01   -0.66534E+00   -0.11979E+02    36   0.380E+02-0.212E+02
DMP:  18    -0.173813325863E+01   -0.31169E+01   -0.23912E+01    36   0.106E+02-0.121E+02
DMP:  19     0.196584032021E+01    0.37040E+01   -0.95822E+01    36   0.264E+02-0.627E+01
DMP:  20    -0.283809468574E+00   -0.22496E+01   -0.46575E+01    36   0.192E+02-0.199E+02
DMP:  21    -0.286028246920E+01   -0.25765E+01   -0.65196E+00    36   0.109E+01 0.142E+01
DMP:  22     0.149189368718E+01    0.43522E+01   -0.83764E+01    36   0.245E+02-0.933E+01
DMP:  23    -0.106266410894E+01   -0.25546E+01   -0.28134E+01    36   0.124E+02-0.140E+02
DMP:  24    -0.285034713028E+01   -0.17877E+01   -0.74244E+00    36   0.113E+01 0.190E+01
DMP:  25     0.121702700783E+01    0.40674E+01   -0.75062E+01    36   0.220E+02-0.846E+01
DMP:  26    -0.105305355414E+01   -0.22701E+01   -0.29069E+01    36   0.124E+02-0.135E+02
DMP:  27    -0.285965392346E+01   -0.18066E+01   -0.69175E+00    36   0.105E+01 0.177E+01
DMP:  28     0.122631916907E+01    0.40860E+01   -0.75076E+01    36   0.219E+02-0.822E+01
DMP:  29    -0.103817338195E+01   -0.22645E+01   -0.29231E+01    36   0.125E+02-0.136E+02
DMP:  30    -0.285074238614E+01   -0.18126E+01   -0.69930E+00    36   0.108E+01 0.175E+01
DMP:  31     0.121956181595E+01    0.40703E+01   -0.74710E+01    36   0.218E+02-0.823E+01
DMP:  32    -0.100326295725E+01   -0.22228E+01   -0.29899E+01    36   0.127E+02-0.138E+02
DMP:  33    -0.284198264940E+01   -0.18387E+01   -0.67803E+00    36   0.103E+01 0.174E+01
DMP:  34     0.220723769406E+00    0.30627E+01   -0.24589E+02    36   0.791E+02-0.462E+02
DMP:  35    -0.165973402922E+01   -0.18805E+01   -0.18588E+01    36   0.841E+01-0.986E+01
DMP:  36    -0.286876242098E+01   -0.12090E+01   -0.58890E+00    36   0.952E+00 0.136E+01
DMP:  37    -0.657129949265E+00    0.22116E+01   -0.22984E+02    36   0.760E+02-0.484E+02
DMP:  38    -0.194423427032E+01   -0.12871E+01   -0.15030E+01    36   0.679E+01-0.793E+01
DMP:  39    -0.292418158893E+01   -0.97995E+00   -0.46179E+00    36   0.733E+00 0.110E+01
DMP:  40     0.603558561274E+00    0.35277E+01   -0.11224E+02    36   0.331E+02-0.132E+02
DMP:  41    -0.103650750262E+01   -0.16401E+01   -0.29703E+01    36   0.123E+02-0.128E+02
DMP:  42    -0.285500871329E+01   -0.18185E+01   -0.65319E+00    36   0.988E+00 0.169E+01
DMP:  43     0.329200632561E+00    0.31842E+01   -0.23569E+02    36   0.749E+02-0.418E+02
DMP:  44    -0.162475958514E+01   -0.19540E+01   -0.19020E+01    36   0.867E+01-0.102E+02
DMP:  45    -0.286608239345E+01   -0.12413E+01   -0.60492E+00    36   0.979E+00 0.140E+01
DMP:  46    -0.942636282726E+00    0.19234E+01   -0.21206E+02    36   0.722E+02-0.502E+02
DMP:  47    -0.214092201066E+01   -0.11983E+01   -0.11798E+01    36   0.540E+01-0.642E+01
DMP:  48    -0.293039509031E+01   -0.78947E+00   -0.42741E+00    36   0.702E+00 0.959E+00
DMP:  49     0.212461095728E+00    0.31429E+01   -0.16453E+02    36   0.496E+02-0.222E+02
DMP:  50    -0.117588250911E+01   -0.13883E+01   -0.27935E+01    36   0.116E+02-0.121E+02
DMP:  51    -0.288167950382E+01   -0.17058E+01   -0.59857E+00    36   0.900E+00 0.156E+01
DMP:  52     0.102646522443E+01    0.39081E+01   -0.11661E+02    36   0.349E+02-0.151E+02
DMP:  53    -0.118650602630E+01   -0.22130E+01   -0.25933E+01    36   0.113E+02-0.125E+02
DMP:  54    -0.282808802349E+01   -0.16416E+01   -0.70823E+00    36   0.112E+01 0.170E+01
DMP:  55     0.164521385333E+01    0.44733E+01   -0.84545E+01    36   0.253E+02-0.109E+02
DMP:  56    -0.991966916050E+00   -0.26372E+01   -0.28221E+01    36   0.119E+02-0.128E+02
DMP:  57    -0.286764403429E+01   -0.18757E+01   -0.66134E+00    36   0.101E+01 0.168E+01
DMP:  58     0.118318287022E+01    0.40508E+01   -0.73828E+01    36   0.215E+02-0.797E+01
DMP:  59    -0.106823766203E+01   -0.22514E+01   -0.28293E+01    36   0.121E+02-0.132E+02
DMP:  60    -0.283148950551E+01   -0.17633E+01   -0.70433E+00    36   0.109E+01 0.175E+01
DMP:  61     0.110639740415E+01    0.39379E+01   -0.11755E+02    36   0.352E+02-0.153E+02
DMP:  62    -0.113930179877E+01   -0.22457E+01   -0.27951E+01    36   0.119E+02-0.128E+02
DMP:  63    -0.284876220228E+01   -0.17095E+01   -0.67500E+00    36   0.106E+01 0.164E+01
DMP:  64     0.548793383673E+00    0.33976E+01   -0.21561E+02    36   0.672E+02-0.349E+02
DMP:  65    -0.140142426764E+01   -0.19502E+01   -0.23195E+01    36   0.101E+02-0.112E+02
DMP:  66    -0.286488850989E+01   -0.14635E+01   -0.61671E+00    36   0.965E+00 0.151E+01
DMP:  67    -0.223558172046E+01    0.62931E+00   -0.67879E+01    36   0.311E+02-0.370E+02
DMP:  68    -0.288078657968E+01   -0.64520E+00   -0.16949E+00    36   0.121E+01-0.206E+01
DMP:  69    -0.301912364230E+01   -0.13834E+00   -0.19426E+00    36   0.384E+00 0.267E+00
DMP:  70    -0.708526822400E-01    0.29483E+01   -0.10736E+02    36   0.297E+02-0.759E+01
DMP:  71    -0.654746391667E+00   -0.58389E+00   -0.40038E+01    36   0.152E+02-0.136E+02
DMP:  72    -0.291801076040E+01   -0.22633E+01   -0.54635E+00    36   0.784E+00 0.152E+01
DMP:  73     0.150122829889E+01    0.44192E+01   -0.80268E+01    36   0.233E+02-0.852E+01
DMP:  74    -0.109626031551E+01   -0.25975E+01   -0.27197E+01    36   0.120E+02-0.136E+02
DMP:  75    -0.280773978408E+01   -0.17115E+01   -0.75715E+00    36   0.123E+01 0.175E+01
DMP:  76     0.170162004583E+01    0.45094E+01   -0.81915E+01    36   0.244E+02-0.103E+02
DMP:  77    -0.922535162993E+00   -0.26242E+01   -0.28850E+01    36   0.123E+02-0.134E+02
DMP:  78    -0.286102755621E+01   -0.19385E+01   -0.63002E+00    36   0.101E+01 0.148E+01
DMP:  79     0.121818107829E+01    0.40792E+01   -0.90986E+01    36   0.266E+02-0.102E+02
DMP:  80    -0.103953650335E+01   -0.22577E+01   -0.29365E+01    36   0.126E+02-0.138E+02
DMP:  81    -0.272240065154E+01   -0.16829E+01   -0.76232E+00    36   0.119E+01 0.188E+01
DMP:  82     0.154219186713E+01    0.42646E+01   -0.73421E+01    36   0.216E+02-0.848E+01
DMP:  83    -0.103741715030E+01   -0.25796E+01   -0.27423E+01    36   0.118E+02-0.130E+02
DMP:  84    -0.275237067323E+01   -0.17150E+01   -0.70122E+00    36   0.109E+01 0.173E+01
DMP:  85     0.146227163373E+01    0.42146E+01   -0.73029E+01    36   0.213E+02-0.802E+01
DMP:  86    -0.975598538986E+00   -0.24379E+01   -0.28650E+01    36   0.122E+02-0.132E+02
DMP:  87    -0.275416126165E+01   -0.17786E+01   -0.69290E+00    36   0.107E+01 0.174E+01
DMP:  88     0.148893093729E+01    0.42431E+01   -0.73573E+01    36   0.215E+02-0.808E+01
DMP:  89    -0.979207378311E+00   -0.24681E+01   -0.28486E+01    36   0.122E+02-0.133E+02
DMP:  90    -0.275128759402E+01   -0.17721E+01   -0.69823E+00    36   0.108E+01 0.174E+01
DMP:  91     0.148173732154E+01    0.42330E+01   -0.73521E+01    36   0.215E+02-0.809E+01
DMP:  92    -0.975716719194E+00   -0.24575E+01   -0.28582E+01    36   0.122E+02-0.133E+02
DMP:  93    -0.275188121664E+01   -0.17762E+01   -0.69530E+00    36   0.107E+01 0.174E+01
DMP:  94     0.148401078952E+01    0.42359E+01   -0.73539E+01    36   0.215E+02-0.808E+01
DMP:  95    -0.977386469305E+00   -0.24614E+01   -0.28496E+01    36   0.122E+02-0.133E+02
DMP:  96    -0.275145271538E+01   -0.17741E+01   -0.69843E+00    36   0.108E+01 0.175E+01
DMP:  97     0.148475953246E+01    0.42362E+01   -0.73578E+01    36   0.215E+02-0.810E+01
DMP:  98    -0.974635485011E+00   -0.24594E+01   -0.28591E+01    36   0.122E+02-0.133E+02
DMP:  99    -0.275188635506E+01   -0.17773E+01   -0.69580E+00    36   0.107E+01 0.174E+01
DMP: 100     0.148637350608E+01    0.42383E+01   -0.73619E+01    36   0.215E+02-0.809E+01
DMP: 101    -0.973626668585E+00   -0.24600E+01   -0.28591E+01    36   0.122E+02-0.133E+02
DMP: 102    -0.275183230207E+01   -0.17782E+01   -0.69724E+00    36   0.108E+01 0.175E+01
DMP: 103     0.148829106207E+01    0.42401E+01   -0.73682E+01    36   0.215E+02-0.810E+01
DMP: 104    -0.970870122942E+00   -0.24592E+01   -0.28677E+01    36   0.123E+02-0.133E+02
DMP: 105    -0.275206042449E+01   -0.17812E+01   -0.69497E+00    36   0.107E+01 0.174E+01
DMP: 106     0.148879370357E+01    0.42409E+01   -0.73658E+01    36   0.215E+02-0.809E+01
DMP: 107    -0.973863912758E+00   -0.24627E+01   -0.28567E+01    36   0.122E+02-0.133E+02
DMP: 108    -0.275173610764E+01   -0.17779E+01   -0.69806E+00    36   0.108E+01 0.175E+01
DMP: 109     0.148852380822E+01    0.42403E+01   -0.73665E+01    36   0.215E+02-0.811E+01
DMP: 110    -0.972448646222E+00   -0.24610E+01   -0.28634E+01    36   0.122E+02-0.133E+02
DMP: 111    -0.275207460985E+01   -0.17796E+01   -0.69565E+00    36   0.107E+01 0.174E+01
DMP: 112     0.148886299719E+01    0.42409E+01   -0.73676E+01    36   0.215E+02-0.809E+01
DMP: 113    -0.972321254862E+00   -0.24612E+01   -0.28615E+01    36   0.122E+02-0.133E+02
DMP: 114    -0.275200027405E+01   -0.17797E+01   -0.69689E+00    36   0.108E+01 0.175E+01
DMP: 115     0.148929662547E+01    0.42413E+01   -0.73673E+01    36   0.215E+02-0.810E+01
DMP: 116    -0.972998255182E+00   -0.24623E+01   -0.28606E+01    36   0.122E+02-0.133E+02
DMP: 117    -0.275201444023E+01   -0.17790E+01   -0.69645E+00    36   0.107E+01 0.175E+01
DMP: 118     0.148849011570E+01    0.42405E+01   -0.73642E+01    36   0.215E+02-0.810E+01
DMP: 119    -0.974535281016E+00   -0.24630E+01   -0.28558E+01    36   0.122E+02-0.133E+02
DMP: 120    -0.275199075689E+01   -0.17775E+01   -0.69747E+00    36   0.108E+01 0.175E+01
DMP: 121     0.148806733794E+01    0.42401E+01   -0.73629E+01    36   0.215E+02-0.810E+01
DMP: 122    -0.974872694964E+00   -0.24629E+01   -0.28559E+01    36   0.122E+02-0.133E+02
DMP: 123    -0.275202425793E+01   -0.17772E+01   -0.69684E+00    36   0.107E+01 0.175E+01
DMP: 124     0.148748553898E+01    0.42395E+01   -0.73605E+01    36   0.215E+02-0.810E+01
DMP: 125    -0.976046478825E+00   -0.24635E+01   -0.28520E+01    36   0.122E+02-0.133E+02
DMP: 126    -0.275197187395E+01   -0.17759E+01   -0.69807E+00    36   0.108E+01 0.175E+01
DMP: 127     0.148786947510E+01    0.42398E+01   -0.73643E+01    36   0.215E+02-0.811E+01
DMP: 128    -0.973342236472E+00   -0.24612E+01   -0.28608E+01    36   0.122E+02-0.133E+02
DMP: 129    -0.275221458045E+01   -0.17789E+01   -0.69591E+00    36   0.107E+01 0.174E+01
DMP: 130     0.148870923669E+01    0.42409E+01   -0.73657E+01    36   0.215E+02-0.810E+01
DMP: 131    -0.973672907039E+00   -0.24624E+01   -0.28579E+01    36   0.122E+02-0.133E+02
DMP: 132    -0.275203189620E+01   -0.17784E+01   -0.69733E+00    36   0.108E+01 0.175E+01
DMP: 133     0.148878188588E+01    0.42408E+01   -0.73648E+01    36   0.215E+02-0.810E+01
DMP: 134    -0.974408475785E+00   -0.24632E+01   -0.28569E+01    36   0.122E+02-0.133E+02
DMP: 135    -0.275200151222E+01   -0.17776E+01   -0.69655E+00    36   0.107E+01 0.175E+01
DMP: 136     0.148723740918E+01    0.42392E+01   -0.73571E+01    36   0.215E+02-0.810E+01
DMP: 137    -0.978454835143E+00   -0.24657E+01   -0.28447E+01    36   0.122E+02-0.133E+02
DMP: 138    -0.275176932421E+01   -0.17733E+01   -0.69928E+00    36   0.108E+01 0.176E+01
DMP: 139     0.148621093418E+01    0.42380E+01   -0.73570E+01    36   0.215E+02-0.811E+01
DMP: 140    -0.976810541874E+00   -0.24630E+01   -0.28520E+01    36   0.122E+02-0.133E+02
DMP: 141    -0.275213855103E+01   -0.17753E+01   -0.69674E+00    36   0.107E+01 0.175E+01
DMP: 142     0.148655153024E+01    0.42387E+01   -0.73584E+01    36   0.215E+02-0.810E+01
DMP: 143    -0.976518278509E+00   -0.24631E+01   -0.28508E+01    36   0.122E+02-0.133E+02
DMP: 144    -0.275201570504E+01   -0.17755E+01   -0.69819E+00    36   0.108E+01 0.175E+01
DMP: 145     0.148764076206E+01    0.42397E+01   -0.73630E+01    36   0.215E+02-0.811E+01
DMP: 146    -0.974130121157E+00   -0.24618E+01   -0.28588E+01    36   0.122E+02-0.133E+02
DMP: 147    -0.275219140019E+01   -0.17781E+01   -0.69592E+00    36   0.107E+01 0.175E+01
DMP: 148     0.148760019325E+01    0.42398E+01   -0.73594E+01    36   0.215E+02-0.810E+01
DMP: 149    -0.977312033915E+00   -0.24649E+01   -0.28476E+01    36   0.122E+02-0.133E+02
DMP: 150    -0.275179381654E+01   -0.17745E+01   -0.69902E+00    36   0.108E+01 0.175E+01
DMP: 151     0.148699588103E+01    0.42388E+01   -0.73595E+01    36   0.215E+02-0.811E+01
DMP: 152    -0.975898853475E+00   -0.24629E+01   -0.28543E+01    36   0.122E+02-0.133E+02
DMP: 153    -0.275210223647E+01   -0.17762E+01   -0.69657E+00    36   0.107E+01 0.175E+01
DMP: 154     0.148717281083E+01    0.42393E+01   -0.73605E+01    36   0.215E+02-0.810E+01
DMP: 155    -0.975684771641E+00   -0.24629E+01   -0.28528E+01    36   0.122E+02-0.133E+02
DMP: 156    -0.275198960123E+01   -0.17763E+01   -0.69777E+00    36   0.108E+01 0.175E+01
DMP: 157     0.148753105108E+01    0.42395E+01   -0.73602E+01    36   0.215E+02-0.810E+01
DMP: 158    -0.976210853240E+00   -0.24637E+01   -0.28523E+01    36   0.122E+02-0.133E+02
DMP: 159    -0.275198370669E+01   -0.17758E+01   -0.69705E+00    36   0.107E+01 0.175E+01
DMP: 160     0.148607271670E+01    0.42381E+01   -0.73528E+01    36   0.215E+02-0.810E+01
DMP: 161    -0.980388184787E+00   -0.24665E+01   -0.28399E+01    36   0.122E+02-0.133E+02
DMP: 162    -0.275171001603E+01   -0.17713E+01   -0.69973E+00    36   0.108E+01 0.176E+01
DMP: 163     0.148502519622E+01    0.42367E+01   -0.73530E+01    36   0.215E+02-0.811E+01
DMP: 164    -0.978329854902E+00   -0.24634E+01   -0.28483E+01    36   0.122E+02-0.133E+02
DMP: 165    -0.275209329494E+01   -0.17738E+01   -0.69710E+00    36   0.107E+01 0.175E+01
DMP: 166     0.148559671655E+01    0.42377E+01   -0.73550E+01    36   0.215E+02-0.810E+01
DMP: 167    -0.977861639538E+00   -0.24635E+01   -0.28474E+01    36   0.122E+02-0.133E+02
DMP: 168    -0.275196467238E+01   -0.17741E+01   -0.69852E+00    36   0.108E+01 0.175E+01
DMP: 169     0.148679052733E+01    0.42388E+01   -0.73599E+01    36   0.215E+02-0.811E+01
DMP: 170    -0.975349375992E+00   -0.24621E+01   -0.28557E+01    36   0.122E+02-0.133E+02
DMP: 171    -0.275214329978E+01   -0.17768E+01   -0.69623E+00    36   0.107E+01 0.175E+01
DMP: 172     0.148684078981E+01    0.42390E+01   -0.73568E+01    36   0.215E+02-0.810E+01
DMP: 173    -0.978321682410E+00   -0.24652E+01   -0.28451E+01    36   0.122E+02-0.133E+02
DMP: 174    -0.275175029188E+01   -0.17734E+01   -0.69925E+00    36   0.108E+01 0.175E+01
DMP: 175     0.148635378215E+01    0.42381E+01   -0.73573E+01    36   0.215E+02-0.811E+01
DMP: 176    -0.976763238546E+00   -0.24631E+01   -0.28521E+01    36   0.122E+02-0.133E+02
DMP: 177    -0.275206612066E+01   -0.17753E+01   -0.69653E+00    36   0.107E+01 0.175E+01
DMP: 178     0.148593030975E+01    0.42380E+01   -0.73539E+01    36   0.215E+02-0.810E+01
DMP: 179    -0.979249343841E+00   -0.24652E+01   -0.28427E+01    36   0.122E+02-0.133E+02
DMP: 180    -0.275176751155E+01   -0.17725E+01   -0.69948E+00    36   0.108E+01 0.176E+01
DMP: 181     0.148569476509E+01    0.42375E+01   -0.73548E+01    36   0.215E+02-0.811E+01
DMP: 182    -0.977855259780E+00   -0.24636E+01   -0.28494E+01    36   0.122E+02-0.133E+02
DMP: 183    -0.275207314232E+01   -0.17742E+01   -0.69705E+00    36   0.107E+01 0.175E+01
DMP: 184     0.148586566356E+01    0.42379E+01   -0.73560E+01    36   0.215E+02-0.810E+01
DMP: 185    -0.977465095370E+00   -0.24633E+01   -0.28484E+01    36   0.122E+02-0.133E+02
DMP: 186    -0.275197373082E+01   -0.17745E+01   -0.69819E+00    36   0.108E+01 0.175E+01
DMP: 187     0.148637864489E+01    0.42384E+01   -0.73562E+01    36   0.215E+02-0.811E+01
DMP: 188    -0.977874535647E+00   -0.24643E+01   -0.28482E+01    36   0.122E+02-0.133E+02
DMP: 189    -0.275192544010E+01   -0.17741E+01   -0.69765E+00    36   0.108E+01 0.175E+01
DMP: 190     0.148568470706E+01    0.42376E+01   -0.73539E+01    36   0.215E+02-0.810E+01
DMP: 191    -0.978808916525E+00   -0.24645E+01   -0.28450E+01    36   0.122E+02-0.133E+02
DMP: 192    -0.275188156718E+01   -0.17731E+01   -0.69877E+00    36   0.108E+01 0.175E+01
DMP: 193     0.148620790773E+01    0.42381E+01   -0.73582E+01    36   0.215E+02-0.811E+01
DMP: 194    -0.975880883928E+00   -0.24621E+01   -0.28544E+01    36   0.122E+02-0.133E+02
DMP: 195    -0.275212455436E+01   -0.17762E+01   -0.69657E+00    36   0.107E+01 0.175E+01
DMP: 196     0.148715407419E+01    0.42393E+01   -0.73600E+01    36   0.215E+02-0.810E+01
DMP: 197    -0.976004993196E+00   -0.24632E+01   -0.28520E+01    36   0.122E+02-0.133E+02
DMP: 198    -0.275194741033E+01   -0.17759E+01   -0.69767E+00    36   0.108E+01 0.175E+01
DMP: 199     0.148664626241E+01    0.42386E+01   -0.73549E+01    36   0.215E+02-0.810E+01
DMP: 200    -0.979317962833E+00   -0.24660E+01   -0.28434E+01    36   0.122E+02-0.133E+02
DMP: 201    -0.275173859399E+01   -0.17724E+01   -0.69860E+00    36   0.108E+01 0.175E+01
DMP: 202     0.148455485643E+01    0.42363E+01   -0.73487E+01    36   0.215E+02-0.810E+01
DMP: 203    -0.981327247061E+00   -0.24659E+01   -0.28387E+01    36   0.122E+02-0.133E+02
DMP: 204    -0.275181177125E+01   -0.17705E+01   -0.69936E+00    36   0.108E+01 0.176E+01
DMP: 205     0.148458591094E+01    0.42364E+01   -0.73529E+01    36   0.215E+02-0.811E+01
DMP: 206    -0.977845208578E+00   -0.24624E+01   -0.28495E+01    36   0.122E+02-0.133E+02
DMP: 207    -0.275212956433E+01   -0.17743E+01   -0.69698E+00    36   0.107E+01 0.175E+01
DMP: 208     0.148587765061E+01    0.42380E+01   -0.73556E+01    36   0.215E+02-0.810E+01
DMP: 209    -0.977759013985E+00   -0.24636E+01   -0.28476E+01    36   0.122E+02-0.133E+02
DMP: 210    -0.275193383827E+01   -0.17742E+01   -0.69855E+00    36   0.108E+01 0.175E+01
DMP: 211     0.148682746564E+01    0.42388E+01   -0.73601E+01    36   0.215E+02-0.811E+01
DMP: 212    -0.975254916630E+00   -0.24621E+01   -0.28559E+01    36   0.122E+02-0.133E+02
DMP: 213    -0.275213243025E+01   -0.17769E+01   -0.69620E+00    36   0.107E+01 0.175E+01
DMP: 214     0.148688290111E+01    0.42390E+01   -0.73568E+01    36   0.215E+02-0.810E+01
DMP: 215    -0.978323451242E+00   -0.24652E+01   -0.28450E+01    36   0.122E+02-0.133E+02
DMP: 216    -0.275173076811E+01   -0.17734E+01   -0.69928E+00    36   0.108E+01 0.175E+01
DMP: 217     0.148634010094E+01    0.42381E+01   -0.73572E+01    36   0.215E+02-0.811E+01
DMP: 218    -0.976813677181E+00   -0.24632E+01   -0.28520E+01    36   0.122E+02-0.133E+02
DMP: 219    -0.275205228169E+01   -0.17752E+01   -0.69656E+00    36   0.107E+01 0.175E+01
DMP: 220     0.148589471526E+01    0.42379E+01   -0.73538E+01    36   0.215E+02-0.810E+01
DMP: 221    -0.979308430344E+00   -0.24652E+01   -0.28425E+01    36   0.122E+02-0.133E+02
DMP: 222    -0.275175487693E+01   -0.17724E+01   -0.69951E+00    36   0.108E+01 0.176E+01
DMP: 223     0.148565421063E+01    0.42374E+01   -0.73547E+01    36   0.215E+02-0.811E+01
DMP: 224    -0.977922867387E+00   -0.24636E+01   -0.28492E+01    36   0.122E+02-0.133E+02
DMP: 225    -0.275206439732E+01   -0.17741E+01   -0.69685E+00    36   0.107E+01 0.175E+01
DMP: 226     0.148517551312E+01    0.42372E+01   -0.73513E+01    36   0.215E+02-0.810E+01
DMP: 227    -0.980366516232E+00   -0.24655E+01   -0.28400E+01    36   0.122E+02-0.133E+02
DMP: 228    -0.275173511613E+01   -0.17714E+01   -0.69970E+00    36   0.108E+01 0.176E+01
DMP: 229     0.148501572861E+01    0.42368E+01   -0.73527E+01    36   0.215E+02-0.811E+01
DMP: 230    -0.978597544321E+00   -0.24636E+01   -0.28475E+01    36   0.122E+02-0.133E+02
DMP: 231    -0.275204575992E+01   -0.17734E+01   -0.69721E+00    36   0.108E+01 0.175E+01
DMP: 232     0.148539863086E+01    0.42374E+01   -0.73543E+01    36   0.215E+02-0.810E+01
DMP: 233    -0.978103800816E+00   -0.24635E+01   -0.28468E+01    36   0.122E+02-0.133E+02
DMP: 234    -0.275193488863E+01   -0.17738E+01   -0.69859E+00    36   0.108E+01 0.175E+01
DMP: 235     0.148663630058E+01    0.42386E+01   -0.73594E+01    36   0.215E+02-0.811E+01
DMP: 236    -0.975565681992E+00   -0.24622E+01   -0.28551E+01    36   0.122E+02-0.133E+02
DMP: 237    -0.275211074359E+01   -0.17765E+01   -0.69630E+00    36   0.107E+01 0.175E+01
DMP: 238     0.148669543124E+01    0.42388E+01   -0.73562E+01    36   0.215E+02-0.810E+01
DMP: 239    -0.978522110650E+00   -0.24652E+01   -0.28446E+01    36   0.122E+02-0.133E+02
DMP: 240    -0.275172611555E+01   -0.17732E+01   -0.69906E+00    36   0.108E+01 0.175E+01
DMP: 241     0.148552379079E+01    0.42372E+01   -0.73522E+01    36   0.215E+02-0.811E+01
DMP: 242    -0.979726753220E+00   -0.24653E+01   -0.28435E+01    36   0.122E+02-0.133E+02
DMP: 243    -0.275186361679E+01   -0.17721E+01   -0.69810E+00    36   0.108E+01 0.175E+01
DMP: 244     0.148446640545E+01    0.42363E+01   -0.73498E+01    36   0.215E+02-0.810E+01
DMP: 245    -0.980366575540E+00   -0.24648E+01   -0.28411E+01    36   0.122E+02-0.133E+02
DMP: 246    -0.275187168126E+01   -0.17715E+01   -0.69912E+00    36   0.108E+01 0.175E+01
DMP: 247     0.148518093126E+01    0.42371E+01   -0.73547E+01    36   0.215E+02-0.811E+01
DMP: 248    -0.977304884596E+00   -0.24625E+01   -0.28508E+01    36   0.122E+02-0.133E+02
DMP: 249    -0.275211882742E+01   -0.17748E+01   -0.69689E+00    36   0.107E+01 0.175E+01
DMP: 250     0.148620209547E+01    0.42383E+01   -0.73568E+01    36   0.215E+02-0.810E+01
DMP: 251    -0.977265664559E+00   -0.24635E+01   -0.28489E+01    36   0.122E+02-0.133E+02
DMP: 252    -0.275194489569E+01   -0.17747E+01   -0.69819E+00    36   0.108E+01 0.175E+01
DMP: 253     0.148648718637E+01    0.42384E+01   -0.73566E+01    36   0.215E+02-0.810E+01
DMP: 254    -0.977696839737E+00   -0.24642E+01   -0.28487E+01    36   0.122E+02-0.133E+02
DMP: 255    -0.275191274479E+01   -0.17742E+01   -0.69761E+00    36   0.108E+01 0.175E+01
DMP: 256     0.148580661549E+01    0.42377E+01   -0.73543E+01    36   0.215E+02-0.810E+01
DMP: 257    -0.978648436934E+00   -0.24645E+01   -0.28454E+01    36   0.122E+02-0.133E+02
DMP: 258    -0.275186438315E+01   -0.17732E+01   -0.69874E+00    36   0.108E+01 0.175E+01
DMP: 259     0.148631114434E+01    0.42382E+01   -0.73586E+01    36   0.215E+02-0.811E+01
DMP: 260    -0.975742787455E+00   -0.24621E+01   -0.28547E+01    36   0.122E+02-0.133E+02
DMP: 261    -0.275211425777E+01   -0.17764E+01   -0.69629E+00    36   0.107E+01 0.175E+01
DMP: 262     0.148656182732E+01    0.42387E+01   -0.73557E+01    36   0.215E+02-0.810E+01
DMP: 263    -0.978683232450E+00   -0.24652E+01   -0.28441E+01    36   0.122E+02-0.133E+02
DMP: 264    -0.275174806165E+01   -0.17731E+01   -0.69940E+00    36   0.108E+01 0.176E+01
DMP: 265     0.148603723721E+01    0.42378E+01   -0.73560E+01    36   0.215E+02-0.811E+01
DMP: 266    -0.977358407727E+00   -0.24634E+01   -0.28506E+01    36   0.122E+02-0.133E+02
DMP: 267    -0.275207427345E+01   -0.17747E+01   -0.69670E+00    36   0.107E+01 0.175E+01
DMP: 268     0.148553027802E+01    0.42376E+01   -0.73525E+01    36   0.215E+02-0.810E+01
DMP: 269    -0.979940124863E+00   -0.24655E+01   -0.28410E+01    36   0.122E+02-0.133E+02
DMP: 270    -0.275173584554E+01   -0.17718E+01   -0.69963E+00    36   0.108E+01 0.176E+01
DMP: 271     0.148528636018E+01    0.42370E+01   -0.73536E+01    36   0.215E+02-0.811E+01
DMP: 272    -0.978262031079E+00   -0.24635E+01   -0.28484E+01    36   0.122E+02-0.133E+02
DMP: 273    -0.275204899482E+01   -0.17738E+01   -0.69714E+00    36   0.107E+01 0.175E+01
DMP: 274     0.148561886824E+01    0.42377E+01   -0.73551E+01    36   0.215E+02-0.810E+01
DMP: 275    -0.977812754291E+00   -0.24634E+01   -0.28475E+01    36   0.122E+02-0.133E+02
DMP: 276    -0.275193845270E+01   -0.17741E+01   -0.69853E+00    36   0.108E+01 0.175E+01
DMP: 277     0.148682713942E+01    0.42388E+01   -0.73600E+01    36   0.215E+02-0.811E+01
DMP: 278    -0.975318385564E+00   -0.24621E+01   -0.28557E+01    36   0.122E+02-0.133E+02
DMP: 279    -0.275211307584E+01   -0.17768E+01   -0.69624E+00    36   0.107E+01 0.175E+01
DMP: 280     0.148685111669E+01    0.42390E+01   -0.73567E+01    36   0.215E+02-0.810E+01
DMP: 281    -0.978341366806E+00   -0.24652E+01   -0.28450E+01    36   0.122E+02-0.133E+02
DMP: 282    -0.275172727435E+01   -0.17734E+01   -0.69903E+00    36   0.108E+01 0.175E+01
DMP: 283     0.148564239888E+01    0.42374E+01   -0.73526E+01    36   0.215E+02-0.811E+01
DMP: 284    -0.979587096174E+00   -0.24652E+01   -0.28439E+01    36   0.122E+02-0.133E+02
DMP: 285    -0.275186547693E+01   -0.17723E+01   -0.69807E+00    36   0.108E+01 0.175E+01
DMP: 286     0.148456139937E+01    0.42364E+01   -0.73501E+01    36   0.215E+02-0.810E+01
DMP: 287    -0.980247024635E+00   -0.24648E+01   -0.28414E+01    36   0.122E+02-0.133E+02
DMP: 288    -0.275187359334E+01   -0.17716E+01   -0.69910E+00    36   0.108E+01 0.175E+01
DMP: 289     0.148526195375E+01    0.42371E+01   -0.73549E+01    36   0.215E+02-0.811E+01
DMP: 290    -0.977204516256E+00   -0.24625E+01   -0.28511E+01    36   0.122E+02-0.133E+02
DMP: 291    -0.275211995839E+01   -0.17749E+01   -0.69687E+00    36   0.107E+01 0.175E+01
DMP: 292     0.148627018622E+01    0.42384E+01   -0.73571E+01    36   0.215E+02-0.810E+01
DMP: 293    -0.977180556248E+00   -0.24635E+01   -0.28491E+01    36   0.122E+02-0.133E+02
DMP: 294    -0.275194595477E+01   -0.17748E+01   -0.69817E+00    36   0.108E+01 0.175E+01
DMP: 295     0.148654226506E+01    0.42385E+01   -0.73568E+01    36   0.215E+02-0.810E+01
DMP: 296    -0.977636613435E+00   -0.24642E+01   -0.28488E+01    36   0.122E+02-0.133E+02
DMP: 297    -0.275191296981E+01   -0.17743E+01   -0.69760E+00    36   0.108E+01 0.175E+01
DMP: 298     0.148584724251E+01    0.42378E+01   -0.73544E+01    36   0.215E+02-0.810E+01
DMP: 299    -0.978602506008E+00   -0.24644E+01   -0.28455E+01    36   0.122E+02-0.133E+02
DMP: 300    -0.275186503435E+01   -0.17733E+01   -0.69873E+00    36   0.108E+01 0.175E+01
   1 F= -.27518650E+01 E0= -.27325829E+01  d E =-.275187E+01  mag=     4.0000
