<?xml version="1.0" encoding="ISO-8859-1"?>
<modeling>
 <generator>
  <i name="program" type="string">vasp </i>
  <i name="version" type="string">5.4.4.18Apr17-6-g9f103f2a35  </i>
  <i name="subversion" type="string">(build Nov 08 2019 15:19:53) gamma-only         parallel </i>
  <i name="platform" type="string">LinuxIFC </i>
  <i name="date" type="string">2020 11 30 </i>
  <i name="time" type="string">09:30:39 </i>
 </generator>
 <incar>
  <i type="string" name="PREC">accurate</i>
  <i type="string" name="ALGO"> D</i>
  <i type="int" name="ISPIN">     2</i>
  <i type="int" name="NELM">   300</i>
  <i type="int" name="IBRION">     2</i>
  <i name="EDIFF">      0.00005000</i>
  <i type="int" name="NSW">    99</i>
  <i type="int" name="ISIF">     2</i>
  <i name="ENCUT">    520.00000000</i>
  <v name="MAGMOM">      0.60000000</v>
  <i type="string" name="LREAL"> Auto</i>
  <i type="int" name="ISMEAR">     0</i>
  <i name="SIGMA">      0.05000000</i>
  <i type="logical" name="LWAVE"> F  </i>
  <i type="int" name="LORBIT">    11</i>
  <i type="logical" name="LASPH"> T  </i>
  <v type="int" name="KPOINT_BSE">    -1     0     0     0</v>
  <i type="int" name="NELM">   300</i>
  <i type="logical" name="LASPH"> T  </i>
 </incar>
 <structure name="primitive_cell" >
  <crystal>
   <varray name="basis" >
    <v>      10.00000000       0.00000000       0.00000000 </v>
    <v>       0.00000000      10.00000000       0.00000000 </v>
    <v>       0.00000000       0.00000000      10.00000000 </v>
   </varray>
   <i name="volume">   1000.00000000 </i>
   <varray name="rec_basis" >
    <v>       0.10000000       0.00000000       0.00000000 </v>
    <v>       0.00000000       0.10000000       0.00000000 </v>
    <v>       0.00000000       0.00000000       0.10000000 </v>
   </varray>
  </crystal>
  <varray name="positions" >
   <v>      -0.50000000      -0.50000000      -0.50000000 </v>
  </varray>
 </structure>
 <varray name="primitive_index" >
  <v type="int" >        1 </v>
 </varray>
 <kpoints>
  <generation param="Gamma">
   <v type="int" name="divisions">       1        1        1 </v>
   <v name="usershift">      0.00000000       0.00000000       0.00000000 </v>
   <v name="genvec1">      1.00000000       0.00000000       0.00000000 </v>
   <v name="genvec2">      0.00000000       1.00000000       0.00000000 </v>
   <v name="genvec3">      0.00000000       0.00000000       1.00000000 </v>
   <v name="shift">      0.00000000       0.00000000       0.00000000 </v>
  </generation>
  <varray name="kpointlist" >
   <v>       0.00000000       0.00000000       0.00000000 </v>
  </varray>
  <varray name="weights" >
   <v>       1.00000000 </v>
  </varray>
 </kpoints>
 <parameters>
  <separator name="general" >
   <i type="string" name="SYSTEM">unknown system</i>
   <i type="logical" name="LCOMPAT"> F  </i>
  </separator>
  <separator name="electronic" >
   <i type="string" name="PREC">accura</i>
   <i name="ENMAX">    520.00000000</i>
   <i name="ENAUG">    578.34200000</i>
   <i name="EDIFF">      0.00005000</i>
   <i type="int" name="IALGO">    53</i>
   <i type="int" name="IWAVPR">    11</i>
   <i type="int" name="NBANDS">    36</i>
   <i name="NELECT">     14.00000000</i>
   <i type="int" name="TURBO">     0</i>
   <i type="int" name="IRESTART">     0</i>
   <i type="int" name="NREBOOT">     0</i>
   <i type="int" name="NMIN">     0</i>
   <i name="EREF">      0.00000000</i>
   <separator name="electronic smearing" >
    <i type="int" name="ISMEAR">     0</i>
    <i name="SIGMA">      0.05000000</i>
    <i name="KSPACING">      0.50000000</i>
    <i type="logical" name="KGAMMA"> T  </i>
   </separator>
   <separator name="electronic projectors" >
    <i type="logical" name="LREAL"> T  </i>
    <v name="ROPT">     -0.00025000</v>
    <i type="int" name="LMAXPAW">  -100</i>
    <i type="int" name="LMAXMIX">     2</i>
    <i type="logical" name="NLSPLINE"> F  </i>
   </separator>
   <separator name="electronic startup" >
    <i type="int" name="ISTART">     0</i>
    <i type="int" name="ICHARG">     2</i>
    <i type="int" name="INIWAV">     1</i>
   </separator>
   <separator name="electronic spin" >
    <i type="int" name="ISPIN">     2</i>
    <i type="logical" name="LNONCOLLINEAR"> F  </i>
    <v name="MAGMOM">      0.60000000</v>
    <i name="NUPDOWN">     -1.00000000</i>
    <i type="logical" name="LSORBIT"> F  </i>
    <v name="SAXIS">      0.00000000      0.00000000      1.00000000</v>
    <i type="logical" name="LSPIRAL"> F  </i>
    <v name="QSPIRAL">      0.00000000      0.00000000      0.00000000</v>
    <i type="logical" name="LZEROZ"> F  </i>
   </separator>
   <separator name="electronic exchange-correlation" >
    <i type="logical" name="LASPH"> T  </i>
    <i type="logical" name="LMETAGGA"> F  </i>
   </separator>
   <separator name="electronic convergence" >
    <i type="int" name="NELM">   300</i>
    <i type="int" name="NELMDL">    -5</i>
    <i type="int" name="NELMIN">     2</i>
    <i name="ENINI">    520.00000000</i>
    <separator name="electronic convergence detail" >
     <i type="logical" name="LDIAG"> T  </i>
     <i type="logical" name="LSUBROT"> F  </i>
     <i name="WEIMIN">      0.00100000</i>
     <i name="EBREAK">      0.00000035</i>
     <i name="DEPER">      0.30000000</i>
     <i type="int" name="NRMM">     4</i>
     <i name="TIME">      0.40000000</i>
    </separator>
   </separator>
   <separator name="electronic mixer" >
    <i name="AMIX">      0.40000000</i>
    <i name="BMIX">      1.00000000</i>
    <i name="AMIN">      0.10000000</i>
    <i name="AMIX_MAG">      1.60000000</i>
    <i name="BMIX_MAG">      1.00000000</i>
    <separator name="electronic mixer details" >
     <i type="int" name="IMIX">     4</i>
     <i type="logical" name="MIXFIRST"> F  </i>
     <i type="int" name="MAXMIX">   -45</i>
     <i name="WC">    100.00000000</i>
     <i type="int" name="INIMIX">     1</i>
     <i type="int" name="MIXPRE">     1</i>
     <i type="int" name="MREMOVE">     5</i>
    </separator>
   </separator>
   <separator name="electronic dipolcorrection" >
    <i type="logical" name="LDIPOL"> F  </i>
    <i type="logical" name="LMONO"> F  </i>
    <i type="int" name="IDIPOL">     0</i>
    <i name="EPSILON">      1.00000000</i>
    <v name="DIPOL">   -100.00000000   -100.00000000   -100.00000000</v>
    <i name="EFIELD">      0.00000000</i>
   </separator>
  </separator>
  <separator name="grids" >
   <i type="int" name="NGX">    80</i>
   <i type="int" name="NGY">    80</i>
   <i type="int" name="NGZ">    80</i>
   <i type="int" name="NGXF">   160</i>
   <i type="int" name="NGYF">   160</i>
   <i type="int" name="NGZF">   160</i>
   <i type="logical" name="ADDGRID"> F  </i>
  </separator>
  <separator name="ionic" >
   <i type="int" name="NSW">    99</i>
   <i type="int" name="IBRION">     2</i>
   <i type="int" name="MDALGO">     0</i>
   <i type="int" name="ISIF">     2</i>
   <i name="PSTRESS">      0.00000000</i>
   <i name="EDIFFG">      0.00050000</i>
   <i type="int" name="NFREE">     1</i>
   <i name="POTIM">      0.50000000</i>
   <i name="SMASS">     -3.00000000</i>
   <i name="SCALEE">      1.00000000</i>
  </separator>
  <separator name="ionic md" >
   <i name="TEBEG">      0.00010000</i>
   <i name="TEEND">      0.00010000</i>
   <i type="int" name="NBLOCK">     1</i>
   <i type="int" name="KBLOCK">    99</i>
   <i type="int" name="NPACO">   256</i>
   <i name="APACO">     16.00000000</i>
  </separator>
  <separator name="symmetry" >
   <i type="int" name="ISYM">     2</i>
   <i name="SYMPREC">      0.00001000</i>
  </separator>
  <separator name="dos" >
   <i type="int" name="LORBIT">    11</i>
   <v name="RWIGS">     -1.00000000</v>
   <i type="int" name="NEDOS">   301</i>
   <i name="EMIN">     10.00000000</i>
   <i name="EMAX">    -10.00000000</i>
   <i name="EFERMI">      0.00000000</i>
  </separator>
  <separator name="writing" >
   <i type="int" name="NWRITE">     2</i>
   <i type="logical" name="LWAVE"> F  </i>
   <i type="logical" name="LDOWNSAMPLE"> F  </i>
   <i type="logical" name="LCHARG"> T  </i>
   <i type="logical" name="LPARD"> F  </i>
   <i type="logical" name="LVTOT"> F  </i>
   <i type="logical" name="LVHAR"> F  </i>
   <i type="logical" name="LELF"> F  </i>
   <i type="logical" name="LOPTICS"> F  </i>
   <v name="STM">      0.00000000      0.00000000      0.00000000      0.00000000      0.00000000      0.00000000      0.00000000</v>
  </separator>
  <separator name="performance" >
   <i type="int" name="NPAR">    36</i>
   <i type="int" name="NSIM">     4</i>
   <i type="int" name="NBLK">    -1</i>
   <i type="logical" name="LPLANE"> T  </i>
   <i type="logical" name="LSCALAPACK"> T  </i>
   <i type="logical" name="LSCAAWARE"> F  </i>
   <i type="logical" name="LSCALU"> F  </i>
   <i type="logical" name="LASYNC"> F  </i>
   <i type="logical" name="LORBITALREAL"> F  </i>
  </separator>
  <separator name="miscellaneous" >
   <i type="int" name="IDIOT">     3</i>
   <i type="int" name="ISPECIAL">     0</i>
   <i type="logical" name="LMUSIC"> F  </i>
   <v name="POMASS">     55.84700000</v>
   <v name="DARWINR">      0.00000000</v>
   <v name="DARWINV">      1.00000000</v>
   <i type="logical" name="LCORR"> T  </i>
  </separator>
  <i type="logical" name="GGA_COMPAT"> T  </i>
  <i type="logical" name="LBERRY"> F  </i>
  <i type="int" name="ICORELEVEL">     0</i>
  <i type="logical" name="LDAU"> F  </i>
  <i type="int" name="I_CONSTRAINED_M">     0</i>
  <separator name="electronic exchange-correlation" >
   <i type="string" name="GGA">--</i>
   <i type="int" name="VOSKOWN">     0</i>
   <i type="logical" name="LHFCALC"> F  </i>
   <i type="string" name="PRECFOCK"></i>
   <i type="logical" name="LSYMGRAD"> F  </i>
   <i type="logical" name="LHFONE"> F  </i>
   <i type="logical" name="LRHFCALC"> F  </i>
   <i type="logical" name="LTHOMAS"> F  </i>
   <i type="logical" name="LMODELHF"> F  </i>
   <i name="ENCUT4O">     -1.00000000</i>
   <i type="int" name="EXXOEP">     0</i>
   <i type="int" name="FOURORBIT">     0</i>
   <i name="AEXX">      0.00000000</i>
   <i name="HFALPHA">      0.00000000</i>
   <i name="MCALPHA">      0.00000000</i>
   <i name="ALDAX">      1.00000000</i>
   <i name="AGGAX">      1.00000000</i>
   <i name="ALDAC">      1.00000000</i>
   <i name="AGGAC">      1.00000000</i>
   <i type="int" name="NKREDX">     1</i>
   <i type="int" name="NKREDY">     1</i>
   <i type="int" name="NKREDZ">     1</i>
   <i type="logical" name="SHIFTRED"> F  </i>
   <i type="logical" name="ODDONLY"> F  </i>
   <i type="logical" name="EVENONLY"> F  </i>
   <i type="int" name="LMAXFOCK">     0</i>
   <i type="int" name="NMAXFOCKAE">     0</i>
   <i type="logical" name="LFOCKAEDFT"> F  </i>
   <i name="HFSCREEN">      0.00000000</i>
   <i name="HFSCREENC">      0.00000000</i>
   <i type="int" name="NBANDSGWLOW">     0</i>
  </separator>
  <separator name="vdW DFT" >
   <i type="logical" name="LUSE_VDW"> F  </i>
   <i name="Zab_VDW">     -0.84910000</i>
   <i name="PARAM1">      0.12340000</i>
   <i name="PARAM2">      1.00000000</i>
   <i name="PARAM3">      0.00000000</i>
  </separator>
  <separator name="model GW" >
   <i type="int" name="MODEL_GW">     0</i>
   <i name="MODEL_EPS0">    600.00000000</i>
   <i name="MODEL_ALPHA">      1.00000000</i>
  </separator>
  <separator name="linear response parameters" >
   <i type="logical" name="LEPSILON"> F  </i>
   <i type="logical" name="LRPA"> F  </i>
   <i type="logical" name="LNABLA"> F  </i>
   <i type="logical" name="LVEL"> F  </i>
   <i type="int" name="KINTER">     0</i>
   <i name="CSHIFT">      0.10000000</i>
   <i name="OMEGAMAX">     -1.00000000</i>
   <i name="DEG_THRESHOLD">      0.00200000</i>
   <i name="RTIME">     -0.10000000</i>
   <i name="WPLASMAI">      0.00000000</i>
   <v name="DFIELD">      0.00000000      0.00000000      0.00000000</v>
   <v name="WPLASMA">      0.00000000      0.00000000      0.00000000      0.00000000      0.00000000      0.00000000      0.00000000      0.00000000      0.00000000</v>
  </separator>
  <separator name="orbital magnetization" >
   <i type="logical" name="NUCIND"> F  </i>
   <v name="MAGPOS">      0.00000000      0.00000000      0.00000000</v>
   <i type="logical" name="LNICSALL"> T  </i>
   <i type="logical" name="ORBITALMAG"> F  </i>
   <i type="logical" name="LMAGBLOCH"> F  </i>
   <i type="logical" name="LCHIMAG"> F  </i>
   <i type="logical" name="LGAUGE"> T  </i>
   <i type="int" name="MAGATOM">     0</i>
   <v name="MAGDIPOL">      0.00000000      0.00000000      0.00000000</v>
   <v name="AVECCONST">      0.00000000      0.00000000      0.00000000</v>
  </separator>
  <separator name="response functions" >
   <i type="logical" name="LADDER"> F  </i>
   <i type="logical" name="LRPAFORCE"> F  </i>
   <i type="logical" name="LFXC"> F  </i>
   <i type="logical" name="LHARTREE"> T  </i>
   <i type="int" name="IBSE">     0</i>
   <v type="int" name="KPOINT">    -1     0     0     0</v>
   <i type="logical" name="LTCTE"> F  </i>
   <i type="logical" name="LTETE"> F  </i>
   <i type="logical" name="LTRIPLET"> F  </i>
   <i type="logical" name="LFXCEPS"> F  </i>
   <i type="logical" name="LFXHEG"> F  </i>
   <i type="int" name="NATURALO">     2</i>
   <i type="logical" name="L2ORDER"> F  </i>
   <i type="logical" name="LMP2LT"> F  </i>
   <i type="logical" name="LUSEW"> F  </i>
   <i name="ENCUTGW">     -2.00000000</i>
   <i name="ENCUTGWSOFT">     -2.00000000</i>
   <i name="ENCUTLF">     -1.00000000</i>
   <i type="int" name="LMAXMP2">    -1</i>
   <i name="SCISSOR">      0.00000000</i>
   <i type="int" name="NOMEGA">     0</i>
   <i type="int" name="NOMEGAR">     0</i>
   <i type="int" name="NBANDSGW">    -1</i>
   <i type="int" name="NBANDSO">    -1</i>
   <i type="int" name="NBANDSV">    -1</i>
   <i type="int" name="NELM">   300</i>
   <i type="int" name="NELMHF">     1</i>
   <i type="int" name="DIM">     3</i>
   <i type="int" name="ANTIRES">     0</i>
   <i name="OMEGAMAX">    -30.00000000</i>
   <i name="OMEGAMIN">    -30.00000000</i>
   <i name="OMEGATL">   -200.00000000</i>
   <i type="int" name="OMEGAGRID">   140</i>
   <i name="CSHIFT">     -0.10000000</i>
   <i type="logical" name="SELFENERGY"> F  </i>
   <i type="logical" name="LSPECTRAL"> F  </i>
   <i type="logical" name="LSPECTRALGW"> F  </i>
   <i type="logical" name="LSINGLES"> F  </i>
   <i type="logical" name="LFERMIGW"> F  </i>
   <i type="logical" name="ODDONLYGW"> F  </i>
   <i type="logical" name="EVENONLYGW"> F  </i>
   <i type="int" name="NKREDLFX">     1</i>
   <i type="int" name="NKREDLFY">     1</i>
   <i type="int" name="NKREDLFZ">     1</i>
   <i type="int" name="MAXMEM">  2800</i>
   <i type="int" name="TELESCOPE">     0</i>
   <i type="int" name="TAUPAR">     1</i>
   <i type="int" name="OMEGAPAR">    -1</i>
   <i name="LAMBDA">      1.00000000</i>
  </separator>
  <separator name="External order field" >
   <i name="OFIELD_KAPPA">      0.00000000</i>
   <v name="OFIELD_K">      0.00000000      0.00000000      0.00000000</v>
   <i name="OFIELD_Q6_NEAR">      0.00000000</i>
   <i name="OFIELD_Q6_FAR">      0.00000000</i>
   <i name="OFIELD_A">      0.00000000</i>
  </separator>
 </parameters>
 <atominfo>
  <atoms>       1 </atoms>
  <types>       1 </types>
  <array name="atoms" >
   <dimension dim="1">ion</dimension>
   <field type="string">element</field>
   <field type="int">atomtype</field>
   <set>
    <rc><c>Fe</c><c>   1</c></rc>
   </set>
  </array>
  <array name="atomtypes" >
   <dimension dim="1">type</dimension>
   <field type="int">atomspertype</field>
   <field type="string">element</field>
   <field>mass</field>
   <field>valence</field>
   <field type="string">pseudopotential</field>
   <set>
    <rc><c>   1</c><c>Fe</c><c>     55.84700000</c><c>     14.00000000</c><c>  PAW_PBE Fe_pv 02Aug2007               </c></rc>
   </set>
  </array>
 </atominfo>
 <structure name="initialpos" >
  <crystal>
   <varray name="basis" >
    <v>      10.00000000       0.00000000       0.00000000 </v>
    <v>       0.00000000      10.00000000       0.00000000 </v>
    <v>       0.00000000       0.00000000      10.00000000 </v>
   </varray>
   <i name="volume">   1000.00000000 </i>
   <varray name="rec_basis" >
    <v>       0.10000000       0.00000000       0.00000000 </v>
    <v>       0.00000000       0.10000000       0.00000000 </v>
    <v>       0.00000000       0.00000000       0.10000000 </v>
   </varray>
  </crystal>
  <varray name="positions" >
   <v>       0.50000000       0.50000000       0.50000000 </v>
  </varray>
 </structure>
 <calculation>
  <scstep>
   <time name="total">    1.26    1.27</time>
   <energy>
    <i name="alphaZ">      1.25344733 </i>
    <i name="ewald">   -400.39350411 </i>
    <i name="hartreedc">  -1674.83710606 </i>
    <i name="XCdc">     68.46272848 </i>
    <i name="pawpsdc">   2001.25891430 </i>
    <i name="pawaedc">  -2091.18311427 </i>
    <i name="eentropy">     -0.00000000 </i>
    <i name="bandstr">   -281.45806305 </i>
    <i name="atom">   2457.41774339 </i>
    <i name="e_fr_energy">     80.52104601 </i>
    <i name="e_wo_entrp">     80.52104601 </i>
    <i name="e_0_energy">     80.52104601 </i>
   </energy>
  </scstep>
  <scstep>
   <time name="total">    0.45    0.45</time>
   <energy>
    <i name="e_fr_energy">     14.08381469 </i>
    <i name="e_wo_entrp">     14.08381485 </i>
    <i name="e_0_energy">     14.08381477 </i>
   </energy>
  </scstep>
  <scstep>
   <time name="total">    0.58    0.58</time>
   <energy>
    <i name="e_fr_energy">      0.49551419 </i>
    <i name="e_wo_entrp">      0.51058028 </i>
    <i name="e_0_energy">      0.50304723 </i>
   </energy>
  </scstep>
  <scstep>
   <time name="total">    0.58    0.58</time>
   <energy>
    <i name="e_fr_energy">     -0.99412048 </i>
    <i name="e_wo_entrp">     -0.95009807 </i>
    <i name="e_0_energy">     -0.97210927 </i>
   </energy>
  </scstep>
  <scstep>
   <time name="total">    0.82    0.82</time>
   <energy>
    <i name="e_fr_energy">     -1.28579790 </i>
    <i name="e_wo_entrp">     -1.23681594 </i>
    <i name="e_0_energy">     -1.26130692 </i>
   </energy>
  </scstep>
  <scstep>
   <time name="total">    1.13    1.13</time>
   <energy>
    <i name="e_fr_energy">     -0.50917951 </i>
    <i name="e_wo_entrp">     -0.44109915 </i>
    <i name="e_0_energy">     -0.47513933 </i>
   </energy>
  </scstep>
  <scstep>
   <time name="total">    1.15    1.15</time>
   <energy>
    <i name="e_fr_energy">     22.66271039 </i>
    <i name="e_wo_entrp">     22.69371440 </i>
    <i name="e_0_energy">     22.67821239 </i>
   </energy>
  </scstep>
  <scstep>
   <time name="total">    1.13    1.13</time>
   <energy>
    <i name="e_fr_energy">     35.06653888 </i>
    <i name="e_wo_entrp">     35.08607116 </i>
    <i name="e_0_energy">     35.07630502 </i>
   </energy>
  </scstep>
  <scstep>
   <time name="total">    1.11    1.11</time>
   <energy>
    <i name="e_fr_energy">     69.85708630 </i>
    <i name="e_wo_entrp">     69.89414825 </i>
    <i name="e_0_energy">     69.87561727 </i>
   </energy>
  </scstep>
  <scstep>
   <time name="total">    1.13    1.13</time>
   <energy>
    <i name="e_fr_energy">     56.07088694 </i>
    <i name="e_wo_entrp">     56.09877955 </i>
    <i name="e_0_energy">     56.08483325 </i>
   </energy>
  </scstep>
  <scstep>
   <time name="total">    1.11    1.11</time>
   <energy>
    <i name="e_fr_energy">     20.09174743 </i>
    <i name="e_wo_entrp">     20.10714618 </i>
    <i name="e_0_energy">     20.09944681 </i>
   </energy>
  </scstep>
  <scstep>
   <time name="total">    1.12    1.12</time>
   <energy>
    <i name="e_fr_energy">     38.70741178 </i>
    <i name="e_wo_entrp">     38.70741178 </i>
    <i name="e_0_energy">     38.70741178 </i>
   </energy>
  </scstep>
  <scstep>
   <time name="total">    1.11    1.11</time>
   <energy>
    <i name="e_fr_energy">     17.46557373 </i>
    <i name="e_wo_entrp">     17.48435466 </i>
    <i name="e_0_energy">     17.47496419 </i>
   </energy>
  </scstep>
  <scstep>
   <time name="total">    1.12    1.12</time>
   <energy>
    <i name="e_fr_energy">      2.58533799 </i>
    <i name="e_wo_entrp">      2.60639653 </i>
    <i name="e_0_energy">      2.59586726 </i>
   </energy>
  </scstep>
  <scstep>
   <time name="total">    1.11    1.11</time>
   <energy>
    <i name="e_fr_energy">      4.54506012 </i>
    <i name="e_wo_entrp">      4.54549721 </i>
    <i name="e_0_energy">      4.54527866 </i>
   </energy>
  </scstep>
  <scstep>
   <time name="total">    1.13    1.13</time>
   <energy>
    <i name="e_fr_energy">      2.04412396 </i>
    <i name="e_wo_entrp">      2.07122055 </i>
    <i name="e_0_energy">      2.05767226 </i>
   </energy>
  </scstep>
  <scstep>
   <time name="total">    1.10    1.10</time>
   <energy>
    <i name="e_fr_energy">      1.37878101 </i>
    <i name="e_wo_entrp">      1.40667466 </i>
    <i name="e_0_energy">      1.39272784 </i>
   </energy>
  </scstep>
  <scstep>
   <time name="total">    1.12    1.12</time>
   <energy>
    <i name="e_fr_energy">     -1.73813326 </i>
    <i name="e_wo_entrp">     -1.73812061 </i>
    <i name="e_0_energy">     -1.73812693 </i>
   </energy>
  </scstep>
  <scstep>
   <time name="total">    1.12    1.12</time>
   <energy>
    <i name="e_fr_energy">      1.96584032 </i>
    <i name="e_wo_entrp">      1.99404477 </i>
    <i name="e_0_energy">      1.97994255 </i>
   </energy>
  </scstep>
  <scstep>
   <time name="total">    1.11    1.11</time>
   <energy>
    <i name="e_fr_energy">     -0.28380947 </i>
    <i name="e_wo_entrp">     -0.25570379 </i>
    <i name="e_0_energy">     -0.26975663 </i>
   </energy>
  </scstep>
  <scstep>
   <time name="total">    1.12    1.12</time>
   <energy>
    <i name="e_fr_energy">     -2.86028247 </i>
    <i name="e_wo_entrp">     -2.86007344 </i>
    <i name="e_0_energy">     -2.86017795 </i>
   </energy>
  </scstep>
  <scstep>
   <time name="total">    1.12    1.12</time>
   <energy>
    <i name="e_fr_energy">      1.49189369 </i>
    <i name="e_wo_entrp">      1.51930528 </i>
    <i name="e_0_energy">      1.50559949 </i>
   </energy>
  </scstep>
  <scstep>
   <time name="total">    1.15    1.15</time>
   <energy>
    <i name="e_fr_energy">     -1.06266411 </i>
    <i name="e_wo_entrp">     -1.03611871 </i>
    <i name="e_0_energy">     -1.04939141 </i>
   </energy>
  </scstep>
  <scstep>
   <time name="total">    1.13    1.13</time>
   <energy>
    <i name="e_fr_energy">     -2.85034713 </i>
    <i name="e_wo_entrp">     -2.85032929 </i>
    <i name="e_0_energy">     -2.85033821 </i>
   </energy>
  </scstep>
  <scstep>
   <time name="total">    1.12    1.12</time>
   <energy>
    <i name="e_fr_energy">      1.21702701 </i>
    <i name="e_wo_entrp">      1.24168579 </i>
    <i name="e_0_energy">      1.22935640 </i>
   </energy>
  </scstep>
  <scstep>
   <time name="total">    1.11    1.11</time>
   <energy>
    <i name="e_fr_energy">     -1.05305355 </i>
    <i name="e_wo_entrp">     -1.03018538 </i>
    <i name="e_0_energy">     -1.04161947 </i>
   </energy>
  </scstep>
  <scstep>
   <time name="total">    1.12    1.13</time>
   <energy>
    <i name="e_fr_energy">     -2.85965392 </i>
    <i name="e_wo_entrp">     -2.85965338 </i>
    <i name="e_0_energy">     -2.85965365 </i>
   </energy>
  </scstep>
  <scstep>
   <time name="total">    1.12    1.12</time>
   <energy>
    <i name="e_fr_energy">      1.22631917 </i>
    <i name="e_wo_entrp">      1.24731618 </i>
    <i name="e_0_energy">      1.23681767 </i>
   </energy>
  </scstep>
  <scstep>
   <time name="total">    1.14    1.14</time>
   <energy>
    <i name="e_fr_energy">     -1.03817338 </i>
    <i name="e_wo_entrp">     -1.01880210 </i>
    <i name="e_0_energy">     -1.02848774 </i>
   </energy>
  </scstep>
  <scstep>
   <time name="total">    1.12    1.13</time>
   <energy>
    <i name="e_fr_energy">     -2.85074239 </i>
    <i name="e_wo_entrp">     -2.85074227 </i>
    <i name="e_0_energy">     -2.85074233 </i>
   </energy>
  </scstep>
  <scstep>
   <time name="total">    1.11    1.11</time>
   <energy>
    <i name="e_fr_energy">      1.21956182 </i>
    <i name="e_wo_entrp">      1.21960633 </i>
    <i name="e_0_energy">      1.21958407 </i>
   </energy>
  </scstep>
  <scstep>
   <time name="total">    1.11    1.11</time>
   <energy>
    <i name="e_fr_energy">     -1.00326296 </i>
    <i name="e_wo_entrp">     -1.00326141 </i>
    <i name="e_0_energy">     -1.00326218 </i>
   </energy>
  </scstep>
  <scstep>
   <time name="total">    1.11    1.12</time>
   <energy>
    <i name="e_fr_energy">     -2.84198265 </i>
    <i name="e_wo_entrp">     -2.82690319 </i>
    <i name="e_0_energy">     -2.83444292 </i>
   </energy>
  </scstep>
  <scstep>
   <time name="total">    1.12    1.12</time>
   <energy>
    <i name="e_fr_energy">      0.22072377 </i>
    <i name="e_wo_entrp">      0.23010496 </i>
    <i name="e_0_energy">      0.22541436 </i>
   </energy>
  </scstep>
  <scstep>
   <time name="total">    1.11    1.11</time>
   <energy>
    <i name="e_fr_energy">     -1.65973403 </i>
    <i name="e_wo_entrp">     -1.65966634 </i>
    <i name="e_0_energy">     -1.65970019 </i>
   </energy>
  </scstep>
  <scstep>
   <time name="total">    1.11    1.12</time>
   <energy>
    <i name="e_fr_energy">     -2.86876242 </i>
    <i name="e_wo_entrp">     -2.84792479 </i>
    <i name="e_0_energy">     -2.85834361 </i>
   </energy>
  </scstep>
  <scstep>
   <time name="total">    1.12    1.12</time>
   <energy>
    <i name="e_fr_energy">     -0.65712995 </i>
    <i name="e_wo_entrp">     -0.64131474 </i>
    <i name="e_0_energy">     -0.64922234 </i>
   </energy>
  </scstep>
  <scstep>
   <time name="total">    1.12    1.12</time>
   <energy>
    <i name="e_fr_energy">     -1.94423427 </i>
    <i name="e_wo_entrp">     -1.94334972 </i>
    <i name="e_0_energy">     -1.94379200 </i>
   </energy>
  </scstep>
  <scstep>
   <time name="total">    1.11    1.11</time>
   <energy>
    <i name="e_fr_energy">     -2.92418159 </i>
    <i name="e_wo_entrp">     -2.92109650 </i>
    <i name="e_0_energy">     -2.92263905 </i>
   </energy>
  </scstep>
  <scstep>
   <time name="total">    1.12    1.12</time>
   <energy>
    <i name="e_fr_energy">      0.60355856 </i>
    <i name="e_wo_entrp">      0.60958559 </i>
    <i name="e_0_energy">      0.60657208 </i>
   </energy>
  </scstep>
  <scstep>
   <time name="total">    1.11    1.11</time>
   <energy>
    <i name="e_fr_energy">     -1.03650750 </i>
    <i name="e_wo_entrp">     -1.03641424 </i>
    <i name="e_0_energy">     -1.03646087 </i>
   </energy>
  </scstep>
  <scstep>
   <time name="total">    1.12    1.12</time>
   <energy>
    <i name="e_fr_energy">     -2.85500871 </i>
    <i name="e_wo_entrp">     -2.84158700 </i>
    <i name="e_0_energy">     -2.84829786 </i>
   </energy>
  </scstep>
  <scstep>
   <time name="total">    1.12    1.12</time>
   <energy>
    <i name="e_fr_energy">      0.32920063 </i>
    <i name="e_wo_entrp">      0.33958569 </i>
    <i name="e_0_energy">      0.33439316 </i>
   </energy>
  </scstep>
  <scstep>
   <time name="total">    1.11    1.11</time>
   <energy>
    <i name="e_fr_energy">     -1.62475959 </i>
    <i name="e_wo_entrp">     -1.62440484 </i>
    <i name="e_0_energy">     -1.62458221 </i>
   </energy>
  </scstep>
  <scstep>
   <time name="total">    1.10    1.10</time>
   <energy>
    <i name="e_fr_energy">     -2.86608239 </i>
    <i name="e_wo_entrp">     -2.84289207 </i>
    <i name="e_0_energy">     -2.85448723 </i>
   </energy>
  </scstep>
  <scstep>
   <time name="total">    1.11    1.11</time>
   <energy>
    <i name="e_fr_energy">     -0.94263628 </i>
    <i name="e_wo_entrp">     -0.93775189 </i>
    <i name="e_0_energy">     -0.94019409 </i>
   </energy>
  </scstep>
  <scstep>
   <time name="total">    1.13    1.13</time>
   <energy>
    <i name="e_fr_energy">     -2.14092201 </i>
    <i name="e_wo_entrp">     -2.14086220 </i>
    <i name="e_0_energy">     -2.14089210 </i>
   </energy>
  </scstep>
  <scstep>
   <time name="total">    1.11    1.11</time>
   <energy>
    <i name="e_fr_energy">     -2.93039509 </i>
    <i name="e_wo_entrp">     -2.92263145 </i>
    <i name="e_0_energy">     -2.92651327 </i>
   </energy>
  </scstep>
  <scstep>
   <time name="total">    1.12    1.12</time>
   <energy>
    <i name="e_fr_energy">      0.21246110 </i>
    <i name="e_wo_entrp">      0.23411961 </i>
    <i name="e_0_energy">      0.22329036 </i>
   </energy>
  </scstep>
  <scstep>
   <time name="total">    1.15    1.19</time>
   <energy>
    <i name="e_fr_energy">     -1.17588251 </i>
    <i name="e_wo_entrp">     -1.17305976 </i>
    <i name="e_0_energy">     -1.17447114 </i>
   </energy>
  </scstep>
  <scstep>
   <time name="total">    1.10    1.10</time>
   <energy>
    <i name="e_fr_energy">     -2.88167950 </i>
    <i name="e_wo_entrp">     -2.87890977 </i>
    <i name="e_0_energy">     -2.88029464 </i>
   </energy>
  </scstep>
  <scstep>
   <time name="total">    1.11    1.11</time>
   <energy>
    <i name="e_fr_energy">      1.02646522 </i>
    <i name="e_wo_entrp">      1.02786549 </i>
    <i name="e_0_energy">      1.02716536 </i>
   </energy>
  </scstep>
  <scstep>
   <time name="total">    1.11    1.11</time>
   <energy>
    <i name="e_fr_energy">     -1.18650603 </i>
    <i name="e_wo_entrp">     -1.18649474 </i>
    <i name="e_0_energy">     -1.18650038 </i>
   </energy>
  </scstep>
  <scstep>
   <time name="total">    1.11    1.11</time>
   <energy>
    <i name="e_fr_energy">     -2.82808802 </i>
    <i name="e_wo_entrp">     -2.78932418 </i>
    <i name="e_0_energy">     -2.80870610 </i>
   </energy>
  </scstep>
  <scstep>
   <time name="total">    1.12    1.12</time>
   <energy>
    <i name="e_fr_energy">      1.64521385 </i>
    <i name="e_wo_entrp">      1.68377611 </i>
    <i name="e_0_energy">      1.66449498 </i>
   </energy>
  </scstep>
  <scstep>
   <time name="total">    1.12    1.12</time>
   <energy>
    <i name="e_fr_energy">     -0.99196692 </i>
    <i name="e_wo_entrp">     -0.97545575 </i>
    <i name="e_0_energy">     -0.98371134 </i>
   </energy>
  </scstep>
  <scstep>
   <time name="total">    1.11    1.11</time>
   <energy>
    <i name="e_fr_energy">     -2.86764403 </i>
    <i name="e_wo_entrp">     -2.86764403 </i>
    <i name="e_0_energy">     -2.86764403 </i>
   </energy>
  </scstep>
  <scstep>
   <time name="total">    1.11    1.11</time>
   <energy>
    <i name="e_fr_energy">      1.18318287 </i>
    <i name="e_wo_entrp">      1.18318314 </i>
    <i name="e_0_energy">      1.18318301 </i>
   </energy>
  </scstep>
  <scstep>
   <time name="total">    1.10    1.10</time>
   <energy>
    <i name="e_fr_energy">     -1.06823766 </i>
    <i name="e_wo_entrp">     -1.06823766 </i>
    <i name="e_0_energy">     -1.06823766 </i>
   </energy>
  </scstep>
  <scstep>
   <time name="total">    1.12    1.12</time>
   <energy>
    <i name="e_fr_energy">     -2.83148951 </i>
    <i name="e_wo_entrp">     -2.82887719 </i>
    <i name="e_0_energy">     -2.83018335 </i>
   </energy>
  </scstep>
  <scstep>
   <time name="total">    1.12    1.12</time>
   <energy>
    <i name="e_fr_energy">      1.10639740 </i>
    <i name="e_wo_entrp">      1.13160894 </i>
    <i name="e_0_energy">      1.11900317 </i>
   </energy>
  </scstep>
  <scstep>
   <time name="total">    1.10    1.11</time>
   <energy>
    <i name="e_fr_energy">     -1.13930180 </i>
    <i name="e_wo_entrp">     -1.13133805 </i>
    <i name="e_0_energy">     -1.13531992 </i>
   </energy>
  </scstep>
  <scstep>
   <time name="total">    1.11    1.11</time>
   <energy>
    <i name="e_fr_energy">     -2.84876220 </i>
    <i name="e_wo_entrp">     -2.83818352 </i>
    <i name="e_0_energy">     -2.84347286 </i>
   </energy>
  </scstep>
  <scstep>
   <time name="total">    1.12    1.12</time>
   <energy>
    <i name="e_fr_energy">      0.54879338 </i>
    <i name="e_wo_entrp">      0.54953551 </i>
    <i name="e_0_energy">      0.54916445 </i>
   </energy>
  </scstep>
  <scstep>
   <time name="total">    1.12    1.12</time>
   <energy>
    <i name="e_fr_energy">     -1.40142427 </i>
    <i name="e_wo_entrp">     -1.40141839 </i>
    <i name="e_0_energy">     -1.40142133 </i>
   </energy>
  </scstep>
  <scstep>
   <time name="total">    1.10    1.10</time>
   <energy>
    <i name="e_fr_energy">     -2.86488851 </i>
    <i name="e_wo_entrp">     -2.83715023 </i>
    <i name="e_0_energy">     -2.85101937 </i>
   </energy>
  </scstep>
  <scstep>
   <time name="total">    1.10    1.10</time>
   <energy>
    <i name="e_fr_energy">     -2.23558172 </i>
    <i name="e_wo_entrp">     -2.22139937 </i>
    <i name="e_0_energy">     -2.22849055 </i>
   </energy>
  </scstep>
  <scstep>
   <time name="total">    1.11    1.11</time>
   <energy>
    <i name="e_fr_energy">     -2.88078658 </i>
    <i name="e_wo_entrp">     -2.88039189 </i>
    <i name="e_0_energy">     -2.88058924 </i>
   </energy>
  </scstep>
  <scstep>
   <time name="total">    1.10    1.10</time>
   <energy>
    <i name="e_fr_energy">     -3.01912364 </i>
    <i name="e_wo_entrp">     -3.01551298 </i>
    <i name="e_0_energy">     -3.01731831 </i>
   </energy>
  </scstep>
  <scstep>
   <time name="total">    1.11    1.11</time>
   <energy>
    <i name="e_fr_energy">     -0.07085268 </i>
    <i name="e_wo_entrp">     -0.04269337 </i>
    <i name="e_0_energy">     -0.05677302 </i>
   </energy>
  </scstep>
  <scstep>
   <time name="total">    1.11    1.11</time>
   <energy>
    <i name="e_fr_energy">     -0.65474639 </i>
    <i name="e_wo_entrp">     -0.64270644 </i>
    <i name="e_0_energy">     -0.64872641 </i>
   </energy>
  </scstep>
  <scstep>
   <time name="total">    1.11    1.11</time>
   <energy>
    <i name="e_fr_energy">     -2.91801076 </i>
    <i name="e_wo_entrp">     -2.91792560 </i>
    <i name="e_0_energy">     -2.91796818 </i>
   </energy>
  </scstep>
  <scstep>
   <time name="total">    1.12    1.12</time>
   <energy>
    <i name="e_fr_energy">      1.50122830 </i>
    <i name="e_wo_entrp">      1.50179725 </i>
    <i name="e_0_energy">      1.50151278 </i>
   </energy>
  </scstep>
  <scstep>
   <time name="total">    1.12    1.12</time>
   <energy>
    <i name="e_fr_energy">     -1.09626032 </i>
    <i name="e_wo_entrp">     -1.09624605 </i>
    <i name="e_0_energy">     -1.09625318 </i>
   </energy>
  </scstep>
  <scstep>
   <time name="total">    1.11    1.11</time>
   <energy>
    <i name="e_fr_energy">     -2.80773978 </i>
    <i name="e_wo_entrp">     -2.76888995 </i>
    <i name="e_0_energy">     -2.78831487 </i>
   </energy>
  </scstep>
  <scstep>
   <time name="total">    1.11    1.11</time>
   <energy>
    <i name="e_fr_energy">      1.70162005 </i>
    <i name="e_wo_entrp">      1.73698787 </i>
    <i name="e_0_energy">      1.71930396 </i>
   </energy>
  </scstep>
  <scstep>
   <time name="total">    1.11    1.12</time>
   <energy>
    <i name="e_fr_energy">     -0.92253516 </i>
    <i name="e_wo_entrp">     -0.91500551 </i>
    <i name="e_0_energy">     -0.91877034 </i>
   </energy>
  </scstep>
  <scstep>
   <time name="total">    1.11    1.11</time>
   <energy>
    <i name="e_fr_energy">     -2.86102756 </i>
    <i name="e_wo_entrp">     -2.85875741 </i>
    <i name="e_0_energy">     -2.85989248 </i>
   </energy>
  </scstep>
  <scstep>
   <time name="total">    1.11    1.11</time>
   <energy>
    <i name="e_fr_energy">      1.21818108 </i>
    <i name="e_wo_entrp">      1.24460247 </i>
    <i name="e_0_energy">      1.23139177 </i>
   </energy>
  </scstep>
  <scstep>
   <time name="total">    1.11    1.11</time>
   <energy>
    <i name="e_fr_energy">     -1.03953650 </i>
    <i name="e_wo_entrp">     -1.00097728 </i>
    <i name="e_0_energy">     -1.02025689 </i>
   </energy>
  </scstep>
  <scstep>
   <time name="total">    1.10    1.10</time>
   <energy>
    <i name="e_fr_energy">     -2.72240065 </i>
    <i name="e_wo_entrp">     -2.68383956 </i>
    <i name="e_0_energy">     -2.70312011 </i>
   </energy>
  </scstep>
  <scstep>
   <time name="total">    1.11    1.11</time>
   <energy>
    <i name="e_fr_energy">      1.54219187 </i>
    <i name="e_wo_entrp">      1.58075622 </i>
    <i name="e_0_energy">      1.56147404 </i>
   </energy>
  </scstep>
  <scstep>
   <time name="total">    1.11    1.11</time>
   <energy>
    <i name="e_fr_energy">     -1.03741715 </i>
    <i name="e_wo_entrp">     -0.99884935 </i>
    <i name="e_0_energy">     -1.01813325 </i>
   </energy>
  </scstep>
  <scstep>
   <time name="total">    1.11    1.11</time>
   <energy>
    <i name="e_fr_energy">     -2.75237067 </i>
    <i name="e_wo_entrp">     -2.71380510 </i>
    <i name="e_0_energy">     -2.73308789 </i>
   </energy>
  </scstep>
  <scstep>
   <time name="total">    1.11    1.11</time>
   <energy>
    <i name="e_fr_energy">      1.46227163 </i>
    <i name="e_wo_entrp">      1.50083700 </i>
    <i name="e_0_energy">      1.48155432 </i>
   </energy>
  </scstep>
  <scstep>
   <time name="total">    1.11    1.11</time>
   <energy>
    <i name="e_fr_energy">     -0.97559854 </i>
    <i name="e_wo_entrp">     -0.93703348 </i>
    <i name="e_0_energy">     -0.95631601 </i>
   </energy>
  </scstep>
  <scstep>
   <time name="total">    1.11    1.11</time>
   <energy>
    <i name="e_fr_energy">     -2.75416126 </i>
    <i name="e_wo_entrp">     -2.71559632 </i>
    <i name="e_0_energy">     -2.73487879 </i>
   </energy>
  </scstep>
  <scstep>
   <time name="total">    1.11    1.11</time>
   <energy>
    <i name="e_fr_energy">      1.48893094 </i>
    <i name="e_wo_entrp">      1.52749539 </i>
    <i name="e_0_energy">      1.50821316 </i>
   </energy>
  </scstep>
  <scstep>
   <time name="total">    1.11    1.11</time>
   <energy>
    <i name="e_fr_energy">     -0.97920738 </i>
    <i name="e_wo_entrp">     -0.94064304 </i>
    <i name="e_0_energy">     -0.95992521 </i>
   </energy>
  </scstep>
  <scstep>
   <time name="total">    1.11    1.11</time>
   <energy>
    <i name="e_fr_energy">     -2.75128759 </i>
    <i name="e_wo_entrp">     -2.71272312 </i>
    <i name="e_0_energy">     -2.73200536 </i>
   </energy>
  </scstep>
  <scstep>
   <time name="total">    1.10    1.10</time>
   <energy>
    <i name="e_fr_energy">      1.48173732 </i>
    <i name="e_wo_entrp">      1.52030141 </i>
    <i name="e_0_energy">      1.50101937 </i>
   </energy>
  </scstep>
  <scstep>
   <time name="total">    1.11    1.11</time>
   <energy>
    <i name="e_fr_energy">     -0.97571672 </i>
    <i name="e_wo_entrp">     -0.93715261 </i>
    <i name="e_0_energy">     -0.95643467 </i>
   </energy>
  </scstep>
  <scstep>
   <time name="total">    1.11    1.11</time>
   <energy>
    <i name="e_fr_energy">     -2.75188122 </i>
    <i name="e_wo_entrp">     -2.71331688 </i>
    <i name="e_0_energy">     -2.73259905 </i>
   </energy>
  </scstep>
  <scstep>
   <time name="total">    1.11    1.12</time>
   <energy>
    <i name="e_fr_energy">      1.48401079 </i>
    <i name="e_wo_entrp">      1.52257479 </i>
    <i name="e_0_energy">      1.50329279 </i>
   </energy>
  </scstep>
  <scstep>
   <time name="total">    1.12    1.12</time>
   <energy>
    <i name="e_fr_energy">     -0.97738647 </i>
    <i name="e_wo_entrp">     -0.93882242 </i>
    <i name="e_0_energy">     -0.95810444 </i>
   </energy>
  </scstep>
  <scstep>
   <time name="total">    1.11    1.11</time>
   <energy>
    <i name="e_fr_energy">     -2.75145272 </i>
    <i name="e_wo_entrp">     -2.71288840 </i>
    <i name="e_0_energy">     -2.73217056 </i>
   </energy>
  </scstep>
  <scstep>
   <time name="total">    1.11    1.11</time>
   <energy>
    <i name="e_fr_energy">      1.48475953 </i>
    <i name="e_wo_entrp">      1.52332352 </i>
    <i name="e_0_energy">      1.50404152 </i>
   </energy>
  </scstep>
  <scstep>
   <time name="total">    1.11    1.11</time>
   <energy>
    <i name="e_fr_energy">     -0.97463549 </i>
    <i name="e_wo_entrp">     -0.93607144 </i>
    <i name="e_0_energy">     -0.95535346 </i>
   </energy>
  </scstep>
  <scstep>
   <time name="total">    1.11    1.11</time>
   <energy>
    <i name="e_fr_energy">     -2.75188636 </i>
    <i name="e_wo_entrp">     -2.71332205 </i>
    <i name="e_0_energy">     -2.73260420 </i>
   </energy>
  </scstep>
  <scstep>
   <time name="total">    1.11    1.11</time>
   <energy>
    <i name="e_fr_energy">      1.48637351 </i>
    <i name="e_wo_entrp">      1.52493748 </i>
    <i name="e_0_energy">      1.50565549 </i>
   </energy>
  </scstep>
  <scstep>
   <time name="total">    1.11    1.11</time>
   <energy>
    <i name="e_fr_energy">     -0.97362667 </i>
    <i name="e_wo_entrp">     -0.93506263 </i>
    <i name="e_0_energy">     -0.95434465 </i>
   </energy>
  </scstep>
  <scstep>
   <time name="total">    1.11    1.11</time>
   <energy>
    <i name="e_fr_energy">     -2.75183230 </i>
    <i name="e_wo_entrp">     -2.71326800 </i>
    <i name="e_0_energy">     -2.73255015 </i>
   </energy>
  </scstep>
  <scstep>
   <time name="total">    1.11    1.11</time>
   <energy>
    <i name="e_fr_energy">      1.48829106 </i>
    <i name="e_wo_entrp">      1.52685504 </i>
    <i name="e_0_energy">      1.50757305 </i>
   </energy>
  </scstep>
  <scstep>
   <time name="total">    1.12    1.12</time>
   <energy>
    <i name="e_fr_energy">     -0.97087012 </i>
    <i name="e_wo_entrp">     -0.93230609 </i>
    <i name="e_0_energy">     -0.95158811 </i>
   </energy>
  </scstep>
  <scstep>
   <time name="total">    1.11    1.11</time>
   <energy>
    <i name="e_fr_energy">     -2.75206042 </i>
    <i name="e_wo_entrp">     -2.71349613 </i>
    <i name="e_0_energy">     -2.73277827 </i>
   </energy>
  </scstep>
  <scstep>
   <time name="total">    1.12    1.12</time>
   <energy>
    <i name="e_fr_energy">      1.48879370 </i>
    <i name="e_wo_entrp">      1.52735768 </i>
    <i name="e_0_energy">      1.50807569 </i>
   </energy>
  </scstep>
  <scstep>
   <time name="total">    1.11    1.11</time>
   <energy>
    <i name="e_fr_energy">     -0.97386391 </i>
    <i name="e_wo_entrp">     -0.93529988 </i>
    <i name="e_0_energy">     -0.95458190 </i>
   </energy>
  </scstep>
  <scstep>
   <time name="total">    1.10    1.10</time>
   <energy>
    <i name="e_fr_energy">     -2.75173611 </i>
    <i name="e_wo_entrp">     -2.71317181 </i>
    <i name="e_0_energy">     -2.73245396 </i>
   </energy>
  </scstep>
  <scstep>
   <time name="total">    1.11    1.11</time>
   <energy>
    <i name="e_fr_energy">      1.48852381 </i>
    <i name="e_wo_entrp">      1.52708778 </i>
    <i name="e_0_energy">      1.50780579 </i>
   </energy>
  </scstep>
  <scstep>
   <time name="total">    1.11    1.11</time>
   <energy>
    <i name="e_fr_energy">     -0.97244865 </i>
    <i name="e_wo_entrp">     -0.93388462 </i>
    <i name="e_0_energy">     -0.95316663 </i>
   </energy>
  </scstep>
  <scstep>
   <time name="total">    1.11    1.11</time>
   <energy>
    <i name="e_fr_energy">     -2.75207461 </i>
    <i name="e_wo_entrp">     -2.71351031 </i>
    <i name="e_0_energy">     -2.73279246 </i>
   </energy>
  </scstep>
  <scstep>
   <time name="total">    1.11    1.11</time>
   <energy>
    <i name="e_fr_energy">      1.48886300 </i>
    <i name="e_wo_entrp">      1.52742697 </i>
    <i name="e_0_energy">      1.50814498 </i>
   </energy>
  </scstep>
  <scstep>
   <time name="total">    1.11    1.11</time>
   <energy>
    <i name="e_fr_energy">     -0.97232125 </i>
    <i name="e_wo_entrp">     -0.93375723 </i>
    <i name="e_0_energy">     -0.95303924 </i>
   </energy>
  </scstep>
  <scstep>
   <time name="total">    1.11    1.11</time>
   <energy>
    <i name="e_fr_energy">     -2.75200027 </i>
    <i name="e_wo_entrp">     -2.71343598 </i>
    <i name="e_0_energy">     -2.73271813 </i>
   </energy>
  </scstep>
  <scstep>
   <time name="total">    1.11    1.11</time>
   <energy>
    <i name="e_fr_energy">      1.48929663 </i>
    <i name="e_wo_entrp">      1.52786059 </i>
    <i name="e_0_energy">      1.50857861 </i>
   </energy>
  </scstep>
  <scstep>
   <time name="total">    1.11    1.11</time>
   <energy>
    <i name="e_fr_energy">     -0.97299826 </i>
    <i name="e_wo_entrp">     -0.93443423 </i>
    <i name="e_0_energy">     -0.95371624 </i>
   </energy>
  </scstep>
  <scstep>
   <time name="total">    1.12    1.12</time>
   <energy>
    <i name="e_fr_energy">     -2.75201444 </i>
    <i name="e_wo_entrp">     -2.71345015 </i>
    <i name="e_0_energy">     -2.73273229 </i>
   </energy>
  </scstep>
  <scstep>
   <time name="total">    1.12    1.12</time>
   <energy>
    <i name="e_fr_energy">      1.48849012 </i>
    <i name="e_wo_entrp">      1.52705408 </i>
    <i name="e_0_energy">      1.50777210 </i>
   </energy>
  </scstep>
  <scstep>
   <time name="total">    1.12    1.12</time>
   <energy>
    <i name="e_fr_energy">     -0.97453528 </i>
    <i name="e_wo_entrp">     -0.93597126 </i>
    <i name="e_0_energy">     -0.95525327 </i>
   </energy>
  </scstep>
  <scstep>
   <time name="total">    1.11    1.11</time>
   <energy>
    <i name="e_fr_energy">     -2.75199076 </i>
    <i name="e_wo_entrp">     -2.71342646 </i>
    <i name="e_0_energy">     -2.73270861 </i>
   </energy>
  </scstep>
  <scstep>
   <time name="total">    1.11    1.11</time>
   <energy>
    <i name="e_fr_energy">      1.48806734 </i>
    <i name="e_wo_entrp">      1.52663130 </i>
    <i name="e_0_energy">      1.50734932 </i>
   </energy>
  </scstep>
  <scstep>
   <time name="total">    1.10    1.11</time>
   <energy>
    <i name="e_fr_energy">     -0.97487269 </i>
    <i name="e_wo_entrp">     -0.93630867 </i>
    <i name="e_0_energy">     -0.95559068 </i>
   </energy>
  </scstep>
  <scstep>
   <time name="total">    1.10    1.10</time>
   <energy>
    <i name="e_fr_energy">     -2.75202426 </i>
    <i name="e_wo_entrp">     -2.71345996 </i>
    <i name="e_0_energy">     -2.73274211 </i>
   </energy>
  </scstep>
  <scstep>
   <time name="total">    1.11    1.11</time>
   <energy>
    <i name="e_fr_energy">      1.48748554 </i>
    <i name="e_wo_entrp">      1.52604950 </i>
    <i name="e_0_energy">      1.50676752 </i>
   </energy>
  </scstep>
  <scstep>
   <time name="total">    1.11    1.11</time>
   <energy>
    <i name="e_fr_energy">     -0.97604648 </i>
    <i name="e_wo_entrp">     -0.93748245 </i>
    <i name="e_0_energy">     -0.95676447 </i>
   </energy>
  </scstep>
  <scstep>
   <time name="total">    1.11    1.11</time>
   <energy>
    <i name="e_fr_energy">     -2.75197187 </i>
    <i name="e_wo_entrp">     -2.71340758 </i>
    <i name="e_0_energy">     -2.73268973 </i>
   </energy>
  </scstep>
  <scstep>
   <time name="total">    1.11    1.11</time>
   <energy>
    <i name="e_fr_energy">      1.48786948 </i>
    <i name="e_wo_entrp">      1.52643344 </i>
    <i name="e_0_energy">      1.50715146 </i>
   </energy>
  </scstep>
  <scstep>
   <time name="total">    1.11    1.11</time>
   <energy>
    <i name="e_fr_energy">     -0.97334224 </i>
    <i name="e_wo_entrp">     -0.93477821 </i>
    <i name="e_0_energy">     -0.95406022 </i>
   </energy>
  </scstep>
  <scstep>
   <time name="total">    1.11    1.11</time>
   <energy>
    <i name="e_fr_energy">     -2.75221458 </i>
    <i name="e_wo_entrp">     -2.71365029 </i>
    <i name="e_0_energy">     -2.73293243 </i>
   </energy>
  </scstep>
  <scstep>
   <time name="total">    1.11    1.11</time>
   <energy>
    <i name="e_fr_energy">      1.48870924 </i>
    <i name="e_wo_entrp">      1.52727320 </i>
    <i name="e_0_energy">      1.50799122 </i>
   </energy>
  </scstep>
  <scstep>
   <time name="total">    1.11    1.11</time>
   <energy>
    <i name="e_fr_energy">     -0.97367291 </i>
    <i name="e_wo_entrp">     -0.93510888 </i>
    <i name="e_0_energy">     -0.95439089 </i>
   </energy>
  </scstep>
  <scstep>
   <time name="total">    1.18    1.18</time>
   <energy>
    <i name="e_fr_energy">     -2.75203190 </i>
    <i name="e_wo_entrp">     -2.71346760 </i>
    <i name="e_0_energy">     -2.73274975 </i>
   </energy>
  </scstep>
  <scstep>
   <time name="total">    1.11    1.11</time>
   <energy>
    <i name="e_fr_energy">      1.48878189 </i>
    <i name="e_wo_entrp">      1.52734585 </i>
    <i name="e_0_energy">      1.50806387 </i>
   </energy>
  </scstep>
  <scstep>
   <time name="total">    1.10    1.10</time>
   <energy>
    <i name="e_fr_energy">     -0.97440848 </i>
    <i name="e_wo_entrp">     -0.93584445 </i>
    <i name="e_0_energy">     -0.95512646 </i>
   </energy>
  </scstep>
  <scstep>
   <time name="total">    1.10    1.10</time>
   <energy>
    <i name="e_fr_energy">     -2.75200151 </i>
    <i name="e_wo_entrp">     -2.71343722 </i>
    <i name="e_0_energy">     -2.73271937 </i>
   </energy>
  </scstep>
  <scstep>
   <time name="total">    1.10    1.11</time>
   <energy>
    <i name="e_fr_energy">      1.48723741 </i>
    <i name="e_wo_entrp">      1.52580137 </i>
    <i name="e_0_energy">      1.50651939 </i>
   </energy>
  </scstep>
  <scstep>
   <time name="total">    1.12    1.12</time>
   <energy>
    <i name="e_fr_energy">     -0.97845484 </i>
    <i name="e_wo_entrp">     -0.93989081 </i>
    <i name="e_0_energy">     -0.95917282 </i>
   </energy>
  </scstep>
  <scstep>
   <time name="total">    1.11    1.11</time>
   <energy>
    <i name="e_fr_energy">     -2.75176932 </i>
    <i name="e_wo_entrp">     -2.71320503 </i>
    <i name="e_0_energy">     -2.73248718 </i>
   </energy>
  </scstep>
  <scstep>
   <time name="total">    1.11    1.11</time>
   <energy>
    <i name="e_fr_energy">      1.48621093 </i>
    <i name="e_wo_entrp">      1.52477490 </i>
    <i name="e_0_energy">      1.50549292 </i>
   </energy>
  </scstep>
  <scstep>
   <time name="total">    1.11    1.11</time>
   <energy>
    <i name="e_fr_energy">     -0.97681054 </i>
    <i name="e_wo_entrp">     -0.93824652 </i>
    <i name="e_0_energy">     -0.95752853 </i>
   </energy>
  </scstep>
  <scstep>
   <time name="total">    1.10    1.10</time>
   <energy>
    <i name="e_fr_energy">     -2.75213855 </i>
    <i name="e_wo_entrp">     -2.71357426 </i>
    <i name="e_0_energy">     -2.73285640 </i>
   </energy>
  </scstep>
  <scstep>
   <time name="total">    1.12    1.12</time>
   <energy>
    <i name="e_fr_energy">      1.48655153 </i>
    <i name="e_wo_entrp">      1.52511549 </i>
    <i name="e_0_energy">      1.50583351 </i>
   </energy>
  </scstep>
  <scstep>
   <time name="total">    1.11    1.11</time>
   <energy>
    <i name="e_fr_energy">     -0.97651828 </i>
    <i name="e_wo_entrp">     -0.93795425 </i>
    <i name="e_0_energy">     -0.95723627 </i>
   </energy>
  </scstep>
  <scstep>
   <time name="total">    1.10    1.10</time>
   <energy>
    <i name="e_fr_energy">     -2.75201571 </i>
    <i name="e_wo_entrp">     -2.71345141 </i>
    <i name="e_0_energy">     -2.73273356 </i>
   </energy>
  </scstep>
  <scstep>
   <time name="total">    1.10    1.10</time>
   <energy>
    <i name="e_fr_energy">      1.48764076 </i>
    <i name="e_wo_entrp">      1.52620473 </i>
    <i name="e_0_energy">      1.50692274 </i>
   </energy>
  </scstep>
  <scstep>
   <time name="total">    1.11    1.11</time>
   <energy>
    <i name="e_fr_energy">     -0.97413012 </i>
    <i name="e_wo_entrp">     -0.93556610 </i>
    <i name="e_0_energy">     -0.95484811 </i>
   </energy>
  </scstep>
  <scstep>
   <time name="total">    1.10    1.11</time>
   <energy>
    <i name="e_fr_energy">     -2.75219140 </i>
    <i name="e_wo_entrp">     -2.71362711 </i>
    <i name="e_0_energy">     -2.73290925 </i>
   </energy>
  </scstep>
  <scstep>
   <time name="total">    1.11    1.11</time>
   <energy>
    <i name="e_fr_energy">      1.48760019 </i>
    <i name="e_wo_entrp">      1.52616416 </i>
    <i name="e_0_energy">      1.50688218 </i>
   </energy>
  </scstep>
  <scstep>
   <time name="total">    1.11    1.11</time>
   <energy>
    <i name="e_fr_energy">     -0.97731203 </i>
    <i name="e_wo_entrp">     -0.93874801 </i>
    <i name="e_0_energy">     -0.95803002 </i>
   </energy>
  </scstep>
  <scstep>
   <time name="total">    1.11    1.11</time>
   <energy>
    <i name="e_fr_energy">     -2.75179382 </i>
    <i name="e_wo_entrp">     -2.71322952 </i>
    <i name="e_0_energy">     -2.73251167 </i>
   </energy>
  </scstep>
  <scstep>
   <time name="total">    1.11    1.11</time>
   <energy>
    <i name="e_fr_energy">      1.48699588 </i>
    <i name="e_wo_entrp">      1.52555985 </i>
    <i name="e_0_energy">      1.50627786 </i>
   </energy>
  </scstep>
  <scstep>
   <time name="total">    1.11    1.11</time>
   <energy>
    <i name="e_fr_energy">     -0.97589885 </i>
    <i name="e_wo_entrp">     -0.93733483 </i>
    <i name="e_0_energy">     -0.95661684 </i>
   </energy>
  </scstep>
  <scstep>
   <time name="total">    1.10    1.10</time>
   <energy>
    <i name="e_fr_energy">     -2.75210224 </i>
    <i name="e_wo_entrp">     -2.71353794 </i>
    <i name="e_0_energy">     -2.73282009 </i>
   </energy>
  </scstep>
  <scstep>
   <time name="total">    1.11    1.11</time>
   <energy>
    <i name="e_fr_energy">      1.48717281 </i>
    <i name="e_wo_entrp">      1.52573678 </i>
    <i name="e_0_energy">      1.50645479 </i>
   </energy>
  </scstep>
  <scstep>
   <time name="total">    1.11    1.11</time>
   <energy>
    <i name="e_fr_energy">     -0.97568477 </i>
    <i name="e_wo_entrp">     -0.93712075 </i>
    <i name="e_0_energy">     -0.95640276 </i>
   </energy>
  </scstep>
  <scstep>
   <time name="total">    1.11    1.11</time>
   <energy>
    <i name="e_fr_energy">     -2.75198960 </i>
    <i name="e_wo_entrp">     -2.71342531 </i>
    <i name="e_0_energy">     -2.73270746 </i>
   </energy>
  </scstep>
  <scstep>
   <time name="total">    1.12    1.12</time>
   <energy>
    <i name="e_fr_energy">      1.48753105 </i>
    <i name="e_wo_entrp">      1.52609502 </i>
    <i name="e_0_energy">      1.50681303 </i>
   </energy>
  </scstep>
  <scstep>
   <time name="total">    1.12    1.12</time>
   <energy>
    <i name="e_fr_energy">     -0.97621085 </i>
    <i name="e_wo_entrp">     -0.93764683 </i>
    <i name="e_0_energy">     -0.95692884 </i>
   </energy>
  </scstep>
  <scstep>
   <time name="total">    1.14    1.14</time>
   <energy>
    <i name="e_fr_energy">     -2.75198371 </i>
    <i name="e_wo_entrp">     -2.71341941 </i>
    <i name="e_0_energy">     -2.73270156 </i>
   </energy>
  </scstep>
  <scstep>
   <time name="total">    1.11    1.11</time>
   <energy>
    <i name="e_fr_energy">      1.48607272 </i>
    <i name="e_wo_entrp">      1.52463668 </i>
    <i name="e_0_energy">      1.50535470 </i>
   </energy>
  </scstep>
  <scstep>
   <time name="total">    1.11    1.11</time>
   <energy>
    <i name="e_fr_energy">     -0.98038818 </i>
    <i name="e_wo_entrp">     -0.94182416 </i>
    <i name="e_0_energy">     -0.96110617 </i>
   </energy>
  </scstep>
  <scstep>
   <time name="total">    1.11    1.11</time>
   <energy>
    <i name="e_fr_energy">     -2.75171002 </i>
    <i name="e_wo_entrp">     -2.71314572 </i>
    <i name="e_0_energy">     -2.73242787 </i>
   </energy>
  </scstep>
  <scstep>
   <time name="total">    1.10    1.11</time>
   <energy>
    <i name="e_fr_energy">      1.48502520 </i>
    <i name="e_wo_entrp">      1.52358916 </i>
    <i name="e_0_energy">      1.50430718 </i>
   </energy>
  </scstep>
  <scstep>
   <time name="total">    1.11    1.11</time>
   <energy>
    <i name="e_fr_energy">     -0.97832985 </i>
    <i name="e_wo_entrp">     -0.93976583 </i>
    <i name="e_0_energy">     -0.95904784 </i>
   </energy>
  </scstep>
  <scstep>
   <time name="total">    1.11    1.11</time>
   <energy>
    <i name="e_fr_energy">     -2.75209329 </i>
    <i name="e_wo_entrp">     -2.71352900 </i>
    <i name="e_0_energy">     -2.73281115 </i>
   </energy>
  </scstep>
  <scstep>
   <time name="total">    1.12    1.12</time>
   <energy>
    <i name="e_fr_energy">      1.48559672 </i>
    <i name="e_wo_entrp">      1.52416068 </i>
    <i name="e_0_energy">      1.50487870 </i>
   </energy>
  </scstep>
  <scstep>
   <time name="total">    1.11    1.11</time>
   <energy>
    <i name="e_fr_energy">     -0.97786164 </i>
    <i name="e_wo_entrp">     -0.93929762 </i>
    <i name="e_0_energy">     -0.95857963 </i>
   </energy>
  </scstep>
  <scstep>
   <time name="total">    1.11    1.11</time>
   <energy>
    <i name="e_fr_energy">     -2.75196467 </i>
    <i name="e_wo_entrp">     -2.71340038 </i>
    <i name="e_0_energy">     -2.73268253 </i>
   </energy>
  </scstep>
  <scstep>
   <time name="total">    1.10    1.11</time>
   <energy>
    <i name="e_fr_energy">      1.48679053 </i>
    <i name="e_wo_entrp">      1.52535449 </i>
    <i name="e_0_energy">      1.50607251 </i>
   </energy>
  </scstep>
  <scstep>
   <time name="total">    1.10    1.11</time>
   <energy>
    <i name="e_fr_energy">     -0.97534938 </i>
    <i name="e_wo_entrp">     -0.93678535 </i>
    <i name="e_0_energy">     -0.95606736 </i>
   </energy>
  </scstep>
  <scstep>
   <time name="total">    1.11    1.11</time>
   <energy>
    <i name="e_fr_energy">     -2.75214330 </i>
    <i name="e_wo_entrp">     -2.71357901 </i>
    <i name="e_0_energy">     -2.73286115 </i>
   </energy>
  </scstep>
  <scstep>
   <time name="total">    1.11    1.11</time>
   <energy>
    <i name="e_fr_energy">      1.48684079 </i>
    <i name="e_wo_entrp">      1.52540475 </i>
    <i name="e_0_energy">      1.50612277 </i>
   </energy>
  </scstep>
  <scstep>
   <time name="total">    1.11    1.11</time>
   <energy>
    <i name="e_fr_energy">     -0.97832168 </i>
    <i name="e_wo_entrp">     -0.93975766 </i>
    <i name="e_0_energy">     -0.95903967 </i>
   </energy>
  </scstep>
  <scstep>
   <time name="total">    1.11    1.11</time>
   <energy>
    <i name="e_fr_energy">     -2.75175029 </i>
    <i name="e_wo_entrp">     -2.71318600 </i>
    <i name="e_0_energy">     -2.73246815 </i>
   </energy>
  </scstep>
  <scstep>
   <time name="total">    1.11    1.11</time>
   <energy>
    <i name="e_fr_energy">      1.48635378 </i>
    <i name="e_wo_entrp">      1.52491775 </i>
    <i name="e_0_energy">      1.50563576 </i>
   </energy>
  </scstep>
  <scstep>
   <time name="total">    1.11    1.11</time>
   <energy>
    <i name="e_fr_energy">     -0.97676324 </i>
    <i name="e_wo_entrp">     -0.93819922 </i>
    <i name="e_0_energy">     -0.95748123 </i>
   </energy>
  </scstep>
  <scstep>
   <time name="total">    1.11    1.11</time>
   <energy>
    <i name="e_fr_energy">     -2.75206612 </i>
    <i name="e_wo_entrp">     -2.71350183 </i>
    <i name="e_0_energy">     -2.73278397 </i>
   </energy>
  </scstep>
  <scstep>
   <time name="total">    1.12    1.12</time>
   <energy>
    <i name="e_fr_energy">      1.48593031 </i>
    <i name="e_wo_entrp">      1.52449427 </i>
    <i name="e_0_energy">      1.50521229 </i>
   </energy>
  </scstep>
  <scstep>
   <time name="total">    1.11    1.11</time>
   <energy>
    <i name="e_fr_energy">     -0.97924934 </i>
    <i name="e_wo_entrp">     -0.94068532 </i>
    <i name="e_0_energy">     -0.95996733 </i>
   </energy>
  </scstep>
  <scstep>
   <time name="total">    1.10    1.10</time>
   <energy>
    <i name="e_fr_energy">     -2.75176751 </i>
    <i name="e_wo_entrp">     -2.71320322 </i>
    <i name="e_0_energy">     -2.73248537 </i>
   </energy>
  </scstep>
  <scstep>
   <time name="total">    1.10    1.10</time>
   <energy>
    <i name="e_fr_energy">      1.48569477 </i>
    <i name="e_wo_entrp">      1.52425873 </i>
    <i name="e_0_energy">      1.50497675 </i>
   </energy>
  </scstep>
  <scstep>
   <time name="total">    1.11    1.11</time>
   <energy>
    <i name="e_fr_energy">     -0.97785526 </i>
    <i name="e_wo_entrp">     -0.93929124 </i>
    <i name="e_0_energy">     -0.95857325 </i>
   </energy>
  </scstep>
  <scstep>
   <time name="total">    1.10    1.10</time>
   <energy>
    <i name="e_fr_energy">     -2.75207314 </i>
    <i name="e_wo_entrp">     -2.71350885 </i>
    <i name="e_0_energy">     -2.73279100 </i>
   </energy>
  </scstep>
  <scstep>
   <time name="total">    1.10    1.10</time>
   <energy>
    <i name="e_fr_energy">      1.48586566 </i>
    <i name="e_wo_entrp">      1.52442963 </i>
    <i name="e_0_energy">      1.50514765 </i>
   </energy>
  </scstep>
  <scstep>
   <time name="total">    1.11    1.11</time>
   <energy>
    <i name="e_fr_energy">     -0.97746510 </i>
    <i name="e_wo_entrp">     -0.93890107 </i>
    <i name="e_0_energy">     -0.95818308 </i>
   </energy>
  </scstep>
  <scstep>
   <time name="total">    1.12    1.12</time>
   <energy>
    <i name="e_fr_energy">     -2.75197373 </i>
    <i name="e_wo_entrp">     -2.71340944 </i>
    <i name="e_0_energy">     -2.73269158 </i>
   </energy>
  </scstep>
  <scstep>
   <time name="total">    1.11    1.11</time>
   <energy>
    <i name="e_fr_energy">      1.48637864 </i>
    <i name="e_wo_entrp">      1.52494261 </i>
    <i name="e_0_energy">      1.50566063 </i>
   </energy>
  </scstep>
  <scstep>
   <time name="total">    1.11    1.11</time>
   <energy>
    <i name="e_fr_energy">     -0.97787454 </i>
    <i name="e_wo_entrp">     -0.93931051 </i>
    <i name="e_0_energy">     -0.95859252 </i>
   </energy>
  </scstep>
  <scstep>
   <time name="total">    1.10    1.10</time>
   <energy>
    <i name="e_fr_energy">     -2.75192544 </i>
    <i name="e_wo_entrp">     -2.71336115 </i>
    <i name="e_0_energy">     -2.73264329 </i>
   </energy>
  </scstep>
  <scstep>
   <time name="total">    1.11    1.11</time>
   <energy>
    <i name="e_fr_energy">      1.48568471 </i>
    <i name="e_wo_entrp">      1.52424867 </i>
    <i name="e_0_energy">      1.50496669 </i>
   </energy>
  </scstep>
  <scstep>
   <time name="total">    1.11    1.11</time>
   <energy>
    <i name="e_fr_energy">     -0.97880892 </i>
    <i name="e_wo_entrp">     -0.94024489 </i>
    <i name="e_0_energy">     -0.95952690 </i>
   </energy>
  </scstep>
  <scstep>
   <time name="total">    1.14    1.14</time>
   <energy>
    <i name="e_fr_energy">     -2.75188157 </i>
    <i name="e_wo_entrp">     -2.71331727 </i>
    <i name="e_0_energy">     -2.73259942 </i>
   </energy>
  </scstep>
  <scstep>
   <time name="total">    1.10    1.11</time>
   <energy>
    <i name="e_fr_energy">      1.48620791 </i>
    <i name="e_wo_entrp">      1.52477187 </i>
    <i name="e_0_energy">      1.50548989 </i>
   </energy>
  </scstep>
  <scstep>
   <time name="total">    1.11    1.11</time>
   <energy>
    <i name="e_fr_energy">     -0.97588088 </i>
    <i name="e_wo_entrp">     -0.93731686 </i>
    <i name="e_0_energy">     -0.95659887 </i>
   </energy>
  </scstep>
  <scstep>
   <time name="total">    1.11    1.11</time>
   <energy>
    <i name="e_fr_energy">     -2.75212455 </i>
    <i name="e_wo_entrp">     -2.71356026 </i>
    <i name="e_0_energy">     -2.73284241 </i>
   </energy>
  </scstep>
  <scstep>
   <time name="total">    1.11    1.11</time>
   <energy>
    <i name="e_fr_energy">      1.48715407 </i>
    <i name="e_wo_entrp">      1.52571804 </i>
    <i name="e_0_energy">      1.50643606 </i>
   </energy>
  </scstep>
  <scstep>
   <time name="total">    1.10    1.11</time>
   <energy>
    <i name="e_fr_energy">     -0.97600499 </i>
    <i name="e_wo_entrp">     -0.93744097 </i>
    <i name="e_0_energy">     -0.95672298 </i>
   </energy>
  </scstep>
  <scstep>
   <time name="total">    1.10    1.10</time>
   <energy>
    <i name="e_fr_energy">     -2.75194741 </i>
    <i name="e_wo_entrp">     -2.71338312 </i>
    <i name="e_0_energy">     -2.73266526 </i>
   </energy>
  </scstep>
  <scstep>
   <time name="total">    1.12    1.12</time>
   <energy>
    <i name="e_fr_energy">      1.48664626 </i>
    <i name="e_wo_entrp">      1.52521023 </i>
    <i name="e_0_energy">      1.50592824 </i>
   </energy>
  </scstep>
  <scstep>
   <time name="total">    1.11    1.11</time>
   <energy>
    <i name="e_fr_energy">     -0.97931796 </i>
    <i name="e_wo_entrp">     -0.94075394 </i>
    <i name="e_0_energy">     -0.96003595 </i>
   </energy>
  </scstep>
  <scstep>
   <time name="total">    1.11    1.11</time>
   <energy>
    <i name="e_fr_energy">     -2.75173859 </i>
    <i name="e_wo_entrp">     -2.71317430 </i>
    <i name="e_0_energy">     -2.73245645 </i>
   </energy>
  </scstep>
  <scstep>
   <time name="total">    1.11    1.11</time>
   <energy>
    <i name="e_fr_energy">      1.48455486 </i>
    <i name="e_wo_entrp">      1.52311882 </i>
    <i name="e_0_energy">      1.50383684 </i>
   </energy>
  </scstep>
  <scstep>
   <time name="total">    1.11    1.11</time>
   <energy>
    <i name="e_fr_energy">     -0.98132725 </i>
    <i name="e_wo_entrp">     -0.94276322 </i>
    <i name="e_0_energy">     -0.96204524 </i>
   </energy>
  </scstep>
  <scstep>
   <time name="total">    1.10    1.10</time>
   <energy>
    <i name="e_fr_energy">     -2.75181177 </i>
    <i name="e_wo_entrp">     -2.71324748 </i>
    <i name="e_0_energy">     -2.73252963 </i>
   </energy>
  </scstep>
  <scstep>
   <time name="total">    1.11    1.11</time>
   <energy>
    <i name="e_fr_energy">      1.48458591 </i>
    <i name="e_wo_entrp">      1.52314988 </i>
    <i name="e_0_energy">      1.50386789 </i>
   </energy>
  </scstep>
  <scstep>
   <time name="total">    1.11    1.11</time>
   <energy>
    <i name="e_fr_energy">     -0.97784521 </i>
    <i name="e_wo_entrp">     -0.93928119 </i>
    <i name="e_0_energy">     -0.95856320 </i>
   </energy>
  </scstep>
  <scstep>
   <time name="total">    1.11    1.11</time>
   <energy>
    <i name="e_fr_energy">     -2.75212956 </i>
    <i name="e_wo_entrp">     -2.71356527 </i>
    <i name="e_0_energy">     -2.73284742 </i>
   </energy>
  </scstep>
  <scstep>
   <time name="total">    1.11    1.11</time>
   <energy>
    <i name="e_fr_energy">      1.48587765 </i>
    <i name="e_wo_entrp">      1.52444161 </i>
    <i name="e_0_energy">      1.50515963 </i>
   </energy>
  </scstep>
  <scstep>
   <time name="total">    1.11    1.11</time>
   <energy>
    <i name="e_fr_energy">     -0.97775901 </i>
    <i name="e_wo_entrp">     -0.93919499 </i>
    <i name="e_0_energy">     -0.95847700 </i>
   </energy>
  </scstep>
  <scstep>
   <time name="total">    1.11    1.11</time>
   <energy>
    <i name="e_fr_energy">     -2.75193384 </i>
    <i name="e_wo_entrp">     -2.71336955 </i>
    <i name="e_0_energy">     -2.73265169 </i>
   </energy>
  </scstep>
  <scstep>
   <time name="total">    1.11    1.11</time>
   <energy>
    <i name="e_fr_energy">      1.48682747 </i>
    <i name="e_wo_entrp">      1.52539143 </i>
    <i name="e_0_energy">      1.50610945 </i>
   </energy>
  </scstep>
  <scstep>
   <time name="total">    1.11    1.11</time>
   <energy>
    <i name="e_fr_energy">     -0.97525492 </i>
    <i name="e_wo_entrp">     -0.93669089 </i>
    <i name="e_0_energy">     -0.95597290 </i>
   </energy>
  </scstep>
  <scstep>
   <time name="total">    1.11    1.11</time>
   <energy>
    <i name="e_fr_energy">     -2.75213243 </i>
    <i name="e_wo_entrp">     -2.71356814 </i>
    <i name="e_0_energy">     -2.73285028 </i>
   </energy>
  </scstep>
  <scstep>
   <time name="total">    1.11    1.11</time>
   <energy>
    <i name="e_fr_energy">      1.48688290 </i>
    <i name="e_wo_entrp">      1.52544687 </i>
    <i name="e_0_energy">      1.50616488 </i>
   </energy>
  </scstep>
  <scstep>
   <time name="total">    1.11    1.11</time>
   <energy>
    <i name="e_fr_energy">     -0.97832345 </i>
    <i name="e_wo_entrp">     -0.93975943 </i>
    <i name="e_0_energy">     -0.95904144 </i>
   </energy>
  </scstep>
  <scstep>
   <time name="total">    1.11    1.11</time>
   <energy>
    <i name="e_fr_energy">     -2.75173077 </i>
    <i name="e_wo_entrp">     -2.71316648 </i>
    <i name="e_0_energy">     -2.73244862 </i>
   </energy>
  </scstep>
  <scstep>
   <time name="total">    1.11    1.11</time>
   <energy>
    <i name="e_fr_energy">      1.48634010 </i>
    <i name="e_wo_entrp">      1.52490407 </i>
    <i name="e_0_energy">      1.50562208 </i>
   </energy>
  </scstep>
  <scstep>
   <time name="total">    1.11    1.11</time>
   <energy>
    <i name="e_fr_energy">     -0.97681368 </i>
    <i name="e_wo_entrp">     -0.93824965 </i>
    <i name="e_0_energy">     -0.95753167 </i>
   </energy>
  </scstep>
  <scstep>
   <time name="total">    1.10    1.10</time>
   <energy>
    <i name="e_fr_energy">     -2.75205228 </i>
    <i name="e_wo_entrp">     -2.71348799 </i>
    <i name="e_0_energy">     -2.73277014 </i>
   </energy>
  </scstep>
  <scstep>
   <time name="total">    1.10    1.10</time>
   <energy>
    <i name="e_fr_energy">      1.48589472 </i>
    <i name="e_wo_entrp">      1.52445868 </i>
    <i name="e_0_energy">      1.50517670 </i>
   </energy>
  </scstep>
  <scstep>
   <time name="total">    1.10    1.10</time>
   <energy>
    <i name="e_fr_energy">     -0.97930843 </i>
    <i name="e_wo_entrp">     -0.94074441 </i>
    <i name="e_0_energy">     -0.96002642 </i>
   </energy>
  </scstep>
  <scstep>
   <time name="total">    1.10    1.10</time>
   <energy>
    <i name="e_fr_energy">     -2.75175488 </i>
    <i name="e_wo_entrp">     -2.71319058 </i>
    <i name="e_0_energy">     -2.73247273 </i>
   </energy>
  </scstep>
  <scstep>
   <time name="total">    1.11    1.11</time>
   <energy>
    <i name="e_fr_energy">      1.48565421 </i>
    <i name="e_wo_entrp">      1.52421817 </i>
    <i name="e_0_energy">      1.50493619 </i>
   </energy>
  </scstep>
  <scstep>
   <time name="total">    1.11    1.11</time>
   <energy>
    <i name="e_fr_energy">     -0.97792287 </i>
    <i name="e_wo_entrp">     -0.93935884 </i>
    <i name="e_0_energy">     -0.95864086 </i>
   </energy>
  </scstep>
  <scstep>
   <time name="total">    1.11    1.11</time>
   <energy>
    <i name="e_fr_energy">     -2.75206440 </i>
    <i name="e_wo_entrp">     -2.71350011 </i>
    <i name="e_0_energy">     -2.73278225 </i>
   </energy>
  </scstep>
  <scstep>
   <time name="total">    1.11    1.11</time>
   <energy>
    <i name="e_fr_energy">      1.48517551 </i>
    <i name="e_wo_entrp">      1.52373948 </i>
    <i name="e_0_energy">      1.50445750 </i>
   </energy>
  </scstep>
  <scstep>
   <time name="total">    1.11    1.11</time>
   <energy>
    <i name="e_fr_energy">     -0.98036652 </i>
    <i name="e_wo_entrp">     -0.94180249 </i>
    <i name="e_0_energy">     -0.96108450 </i>
   </energy>
  </scstep>
  <scstep>
   <time name="total">    1.10    1.10</time>
   <energy>
    <i name="e_fr_energy">     -2.75173512 </i>
    <i name="e_wo_entrp">     -2.71317082 </i>
    <i name="e_0_energy">     -2.73245297 </i>
   </energy>
  </scstep>
  <scstep>
   <time name="total">    1.11    1.11</time>
   <energy>
    <i name="e_fr_energy">      1.48501573 </i>
    <i name="e_wo_entrp">      1.52357969 </i>
    <i name="e_0_energy">      1.50429771 </i>
   </energy>
  </scstep>
  <scstep>
   <time name="total">    1.12    1.12</time>
   <energy>
    <i name="e_fr_energy">     -0.97859754 </i>
    <i name="e_wo_entrp">     -0.94003352 </i>
    <i name="e_0_energy">     -0.95931553 </i>
   </energy>
  </scstep>
  <scstep>
   <time name="total">    1.10    1.10</time>
   <energy>
    <i name="e_fr_energy">     -2.75204576 </i>
    <i name="e_wo_entrp">     -2.71348147 </i>
    <i name="e_0_energy">     -2.73276361 </i>
   </energy>
  </scstep>
  <scstep>
   <time name="total">    1.11    1.11</time>
   <energy>
    <i name="e_fr_energy">      1.48539863 </i>
    <i name="e_wo_entrp">      1.52396260 </i>
    <i name="e_0_energy">      1.50468061 </i>
   </energy>
  </scstep>
  <scstep>
   <time name="total">    1.11    1.11</time>
   <energy>
    <i name="e_fr_energy">     -0.97810380 </i>
    <i name="e_wo_entrp">     -0.93953978 </i>
    <i name="e_0_energy">     -0.95882179 </i>
   </energy>
  </scstep>
  <scstep>
   <time name="total">    1.10    1.10</time>
   <energy>
    <i name="e_fr_energy">     -2.75193489 </i>
    <i name="e_wo_entrp">     -2.71337060 </i>
    <i name="e_0_energy">     -2.73265274 </i>
   </energy>
  </scstep>
  <scstep>
   <time name="total">    1.11    1.11</time>
   <energy>
    <i name="e_fr_energy">      1.48663630 </i>
    <i name="e_wo_entrp">      1.52520026 </i>
    <i name="e_0_energy">      1.50591828 </i>
   </energy>
  </scstep>
  <scstep>
   <time name="total">    1.11    1.11</time>
   <energy>
    <i name="e_fr_energy">     -0.97556568 </i>
    <i name="e_wo_entrp">     -0.93700166 </i>
    <i name="e_0_energy">     -0.95628367 </i>
   </energy>
  </scstep>
  <scstep>
   <time name="total">    1.10    1.10</time>
   <energy>
    <i name="e_fr_energy">     -2.75211074 </i>
    <i name="e_wo_entrp">     -2.71354645 </i>
    <i name="e_0_energy">     -2.73282860 </i>
   </energy>
  </scstep>
  <scstep>
   <time name="total">    1.10    1.10</time>
   <energy>
    <i name="e_fr_energy">      1.48669543 </i>
    <i name="e_wo_entrp">      1.52525940 </i>
    <i name="e_0_energy">      1.50597741 </i>
   </energy>
  </scstep>
  <scstep>
   <time name="total">    1.10    1.10</time>
   <energy>
    <i name="e_fr_energy">     -0.97852211 </i>
    <i name="e_wo_entrp">     -0.93995809 </i>
    <i name="e_0_energy">     -0.95924010 </i>
   </energy>
  </scstep>
  <scstep>
   <time name="total">    1.11    1.11</time>
   <energy>
    <i name="e_fr_energy">     -2.75172612 </i>
    <i name="e_wo_entrp">     -2.71316182 </i>
    <i name="e_0_energy">     -2.73244397 </i>
   </energy>
  </scstep>
  <scstep>
   <time name="total">    1.11    1.11</time>
   <energy>
    <i name="e_fr_energy">      1.48552379 </i>
    <i name="e_wo_entrp">      1.52408775 </i>
    <i name="e_0_energy">      1.50480577 </i>
   </energy>
  </scstep>
  <scstep>
   <time name="total">    1.11    1.11</time>
   <energy>
    <i name="e_fr_energy">     -0.97972675 </i>
    <i name="e_wo_entrp">     -0.94116273 </i>
    <i name="e_0_energy">     -0.96044474 </i>
   </energy>
  </scstep>
  <scstep>
   <time name="total">    1.11    1.11</time>
   <energy>
    <i name="e_fr_energy">     -2.75186362 </i>
    <i name="e_wo_entrp">     -2.71329932 </i>
    <i name="e_0_energy">     -2.73258147 </i>
   </energy>
  </scstep>
  <scstep>
   <time name="total">    1.10    1.10</time>
   <energy>
    <i name="e_fr_energy">      1.48446641 </i>
    <i name="e_wo_entrp">      1.52303037 </i>
    <i name="e_0_energy">      1.50374839 </i>
   </energy>
  </scstep>
  <scstep>
   <time name="total">    1.11    1.11</time>
   <energy>
    <i name="e_fr_energy">     -0.98036658 </i>
    <i name="e_wo_entrp">     -0.94180255 </i>
    <i name="e_0_energy">     -0.96108456 </i>
   </energy>
  </scstep>
  <scstep>
   <time name="total">    1.11    1.11</time>
   <energy>
    <i name="e_fr_energy">     -2.75187168 </i>
    <i name="e_wo_entrp">     -2.71330739 </i>
    <i name="e_0_energy">     -2.73258954 </i>
   </energy>
  </scstep>
  <scstep>
   <time name="total">    1.11    1.11</time>
   <energy>
    <i name="e_fr_energy">      1.48518093 </i>
    <i name="e_wo_entrp">      1.52374490 </i>
    <i name="e_0_energy">      1.50446291 </i>
   </energy>
  </scstep>
  <scstep>
   <time name="total">    1.11    1.11</time>
   <energy>
    <i name="e_fr_energy">     -0.97730488 </i>
    <i name="e_wo_entrp">     -0.93874086 </i>
    <i name="e_0_energy">     -0.95802287 </i>
   </energy>
  </scstep>
  <scstep>
   <time name="total">    1.10    1.10</time>
   <energy>
    <i name="e_fr_energy">     -2.75211883 </i>
    <i name="e_wo_entrp">     -2.71355454 </i>
    <i name="e_0_energy">     -2.73283668 </i>
   </energy>
  </scstep>
  <scstep>
   <time name="total">    1.10    1.10</time>
   <energy>
    <i name="e_fr_energy">      1.48620210 </i>
    <i name="e_wo_entrp">      1.52476606 </i>
    <i name="e_0_energy">      1.50548408 </i>
   </energy>
  </scstep>
  <scstep>
   <time name="total">    1.10    1.10</time>
   <energy>
    <i name="e_fr_energy">     -0.97726566 </i>
    <i name="e_wo_entrp">     -0.93870164 </i>
    <i name="e_0_energy">     -0.95798365 </i>
   </energy>
  </scstep>
  <scstep>
   <time name="total">    1.11    1.11</time>
   <energy>
    <i name="e_fr_energy">     -2.75194490 </i>
    <i name="e_wo_entrp">     -2.71338060 </i>
    <i name="e_0_energy">     -2.73266275 </i>
   </energy>
  </scstep>
  <scstep>
   <time name="total">    1.11    1.11</time>
   <energy>
    <i name="e_fr_energy">      1.48648719 </i>
    <i name="e_wo_entrp">      1.52505115 </i>
    <i name="e_0_energy">      1.50576917 </i>
   </energy>
  </scstep>
  <scstep>
   <time name="total">    1.11    1.12</time>
   <energy>
    <i name="e_fr_energy">     -0.97769684 </i>
    <i name="e_wo_entrp">     -0.93913282 </i>
    <i name="e_0_energy">     -0.95841483 </i>
   </energy>
  </scstep>
  <scstep>
   <time name="total">    1.11    1.11</time>
   <energy>
    <i name="e_fr_energy">     -2.75191274 </i>
    <i name="e_wo_entrp">     -2.71334845 </i>
    <i name="e_0_energy">     -2.73263060 </i>
   </energy>
  </scstep>
  <scstep>
   <time name="total">    1.11    1.11</time>
   <energy>
    <i name="e_fr_energy">      1.48580662 </i>
    <i name="e_wo_entrp">      1.52437058 </i>
    <i name="e_0_energy">      1.50508860 </i>
   </energy>
  </scstep>
  <scstep>
   <time name="total">    1.11    1.11</time>
   <energy>
    <i name="e_fr_energy">     -0.97864844 </i>
    <i name="e_wo_entrp">     -0.94008441 </i>
    <i name="e_0_energy">     -0.95936643 </i>
   </energy>
  </scstep>
  <scstep>
   <time name="total">    1.10    1.10</time>
   <energy>
    <i name="e_fr_energy">     -2.75186438 </i>
    <i name="e_wo_entrp">     -2.71330009 </i>
    <i name="e_0_energy">     -2.73258224 </i>
   </energy>
  </scstep>
  <scstep>
   <time name="total">    1.10    1.10</time>
   <energy>
    <i name="e_fr_energy">      1.48631114 </i>
    <i name="e_wo_entrp">      1.52487511 </i>
    <i name="e_0_energy">      1.50559313 </i>
   </energy>
  </scstep>
  <scstep>
   <time name="total">    1.11    1.11</time>
   <energy>
    <i name="e_fr_energy">     -0.97574279 </i>
    <i name="e_wo_entrp">     -0.93717876 </i>
    <i name="e_0_energy">     -0.95646078 </i>
   </energy>
  </scstep>
  <scstep>
   <time name="total">    1.11    1.11</time>
   <energy>
    <i name="e_fr_energy">     -2.75211426 </i>
    <i name="e_wo_entrp">     -2.71354997 </i>
    <i name="e_0_energy">     -2.73283211 </i>
   </energy>
  </scstep>
  <scstep>
   <time name="total">    1.11    1.11</time>
   <energy>
    <i name="e_fr_energy">      1.48656183 </i>
    <i name="e_wo_entrp">      1.52512579 </i>
    <i name="e_0_energy">      1.50584381 </i>
   </energy>
  </scstep>
  <scstep>
   <time name="total">    1.11    1.11</time>
   <energy>
    <i name="e_fr_energy">     -0.97868323 </i>
    <i name="e_wo_entrp">     -0.94011921 </i>
    <i name="e_0_energy">     -0.95940122 </i>
   </energy>
  </scstep>
  <scstep>
   <time name="total">    1.11    1.11</time>
   <energy>
    <i name="e_fr_energy">     -2.75174806 </i>
    <i name="e_wo_entrp">     -2.71318377 </i>
    <i name="e_0_energy">     -2.73246592 </i>
   </energy>
  </scstep>
  <scstep>
   <time name="total">    1.11    1.11</time>
   <energy>
    <i name="e_fr_energy">      1.48603724 </i>
    <i name="e_wo_entrp">      1.52460120 </i>
    <i name="e_0_energy">      1.50531922 </i>
   </energy>
  </scstep>
  <scstep>
   <time name="total">    1.11    1.11</time>
   <energy>
    <i name="e_fr_energy">     -0.97735841 </i>
    <i name="e_wo_entrp">     -0.93879438 </i>
    <i name="e_0_energy">     -0.95807640 </i>
   </energy>
  </scstep>
  <scstep>
   <time name="total">    1.10    1.10</time>
   <energy>
    <i name="e_fr_energy">     -2.75207427 </i>
    <i name="e_wo_entrp">     -2.71350998 </i>
    <i name="e_0_energy">     -2.73279213 </i>
   </energy>
[...]
        <r>    -3.5399     0.0000     0.0000     0.0000     0.0000     0.0000     0.0000     0.0000     0.0000     0.0000 </r>
        <r>    -3.2899     0.0000     0.0000     0.0000     0.0000     0.0000     0.0000     0.0000     0.0000     0.0000 </r>
        <r>    -3.0399     0.0000     0.0000     0.0000     0.0000     0.0000     0.0000     0.0000     0.0000     0.0000 </r>
        <r>    -2.7899     0.0000     0.0000     0.0000     0.0000     0.0000     0.0000     0.0000     0.0000     0.0000 </r>
        <r>    -2.5399     0.0000     0.0000     0.0000     0.0000     0.0000     0.0000     0.0000     0.0000     0.0000 </r>
        <r>    -2.2898     0.0000     0.0000     0.0000     0.0000     0.0000     0.0000     0.0000     0.0000     0.0000 </r>
        <r>    -2.0398     0.0000     0.0000     0.0000     0.0000     0.0000     0.0000     0.0000     0.0000     0.0000 </r>
        <r>    -1.7898     0.0000     0.0000     0.0000     0.0000     0.0000     0.0000     0.0000     0.0000     0.0000 </r>
        <r>    -1.5398     0.0000     0.0000     0.0000     0.0000     0.0000     0.0000     0.0000     0.0000     0.0000 </r>
        <r>    -1.2897     0.0000     0.0000     0.0000     0.0000     0.0000     0.0000     0.0000     0.0000     0.0000 </r>
        <r>    -1.0397     0.0000     0.4129     0.4097     0.4141     0.0000     0.0000     0.0000     0.0000     0.0000 </r>
        <r>    -0.7897     0.0000     0.0005     0.0005     0.0004     0.0000     0.0000     0.0000     0.0000     0.0000 </r>
        <r>    -0.5397     0.0000     0.0000     0.0000     0.0000     0.0000     0.0000     0.0000     0.0000     0.0000 </r>
        <r>    -0.2896     0.1022     0.0000     0.0000     0.0000     0.0000     0.0000     0.0000     0.0000     0.0000 </r>
        <r>    -0.0396     0.0053     0.0000     0.0000     0.0000     0.0000     0.0000     0.0000     0.0000     0.0000 </r>
        <r>     0.2104     0.0000     0.0000     0.0000     0.0000     0.0000     0.0000     0.0000     0.0000     0.0000 </r>
        <r>     0.4604     0.0000     0.0000     0.0000     0.0000     0.0000     0.0000     0.0000     0.0000     0.0000 </r>
        <r>     0.7105     0.0000     0.0000     0.0000     0.0000     0.0000     0.0000     0.0030     0.0000     0.0030 </r>
        <r>     0.9605     0.0000     0.0000     0.0000     0.0000     0.0000     0.0000     0.0238     0.0000     0.0238 </r>
        <r>     1.2105     0.0000     0.0000     0.0000     0.0000     0.0000     0.0000     0.0000     0.0000     0.0000 </r>
        <r>     1.4605     0.0000     0.1189     0.1170     0.1196     0.0000     0.0000     0.0000     0.0000     0.0000 </r>
        <r>     1.7106     0.1155     0.0291     0.0287     0.0293     0.0000     0.0000     0.0000     0.0000     0.0000 </r>
        <r>     1.9606     0.0005     0.0000     0.0000     0.0000     0.0624     0.0624     0.0000     0.0624     0.0000 </r>
        <r>     2.2106     0.0000     0.0000     0.0000     0.0000     0.0000     0.0000     0.0000     0.0000     0.0000 </r>
        <r>     2.4606     0.0000     0.0000     0.0000     0.0000     0.0000     0.0000     0.0167     0.0000     0.0167 </r>
        <r>     2.7107     0.0000     0.0000     0.0000     0.0000     0.0000     0.0000     0.0012     0.0000     0.0012 </r>
        <r>     2.9607     0.0000     0.0000     0.0000     0.0000     0.0000     0.0000     0.0000     0.0000     0.0000 </r>
        <r>     3.2107     0.0000     0.0000     0.0000     0.0000     0.0000     0.0000     0.0000     0.0000     0.0000 </r>
        <r>     3.4607     0.0000     0.1806     0.1853     0.1788     0.0000     0.0000     0.0000     0.0000     0.0000 </r>
        <r>     3.7107     0.1111     0.0003     0.0003     0.0003     0.0320     0.0320     0.0000     0.0320     0.0000 </r>
        <r>     3.9608     0.0040     0.0000     0.0000     0.0000     0.0016     0.0016     0.0000     0.0016     0.0000 </r>
        <r>     4.2108     0.0000     0.0063     0.0199     0.0008     0.0000     0.0000     0.0000     0.0000     0.0000 </r>
        <r>     4.4608     0.0000     0.0290     0.0923     0.0038     0.0000     0.0000     0.0000     0.0000     0.0000 </r>
        <r>     4.7108     0.0000     0.0000     0.0000     0.0000     0.0000     0.0000     0.0000     0.0000     0.0000 </r>
        <r>     4.9609     0.0000     0.0000     0.0000     0.0000     0.0000     0.0000     0.0000     0.0000     0.0000 </r>
        <r>     5.2109     0.0000     0.0000     0.0000     0.0000     0.0000     0.0000     0.0000     0.0000     0.0000 </r>
        <r>     5.4609     0.0000     0.0000     0.0000     0.0000     0.0000     0.0000     0.0000     0.0000     0.0000 </r>
        <r>     5.7109     0.0000     0.0000     0.0000     0.0000     0.0000     0.0000     0.0000     0.0000     0.0000 </r>
        <r>     5.9610     0.0000     0.0000     0.0000     0.0000     0.0000     0.0000     0.0000     0.0000     0.0000 </r>
        <r>     6.2110     0.0000     0.0000     0.0000     0.0000     0.0000     0.0000     0.0000     0.0000     0.0000 </r>
        <r>     6.4610     0.0000     0.0000     0.0000     0.0000     0.0000     0.0000     0.0000     0.0000     0.0000 </r>
        <r>     6.7110     0.0000     0.0000     0.0000     0.0000     0.0000     0.0000     0.0000     0.0000     0.0000 </r>
        <r>     6.9611     0.0000     0.0000     0.0000     0.0000     0.0000     0.0000     0.0000     0.0000     0.0000 </r>
        <r>     7.2111     0.0000     0.0000     0.0000     0.0000     0.0000     0.0000     0.0000     0.0000     0.0000 </r>
        <r>     7.4611     0.0000     0.0000     0.0000     0.0000     0.0000     0.0000     0.0000     0.0000     0.0000 </r>
        <r>     7.7111     0.0000     0.0000     0.0000     0.0000     0.0000     0.0000     0.0000     0.0000     0.0000 </r>
       </set>
      </set>
     </set>
    </array>
   </partial>
  </dos>
  <projected>
   <eigenvalues>
    <array>
     <dimension dim="1">band</dimension>
     <dimension dim="2">kpoint</dimension>
     <dimension dim="3">spin</dimension>
     <field>eigene</field>
     <field>occ</field>
     <set>
      <set comment="spin 1">
       <set comment="kpoint 1">
        <r>  -63.8867    1.0000 </r>
        <r>  -63.8865    1.0000 </r>
        <r>  -63.8865    1.0000 </r>
        <r>  -11.0623    1.0000 </r>
        <r>  -11.0623    1.0000 </r>
        <r>  -10.6966    1.0000 </r>
        <r>  -10.6966    1.0000 </r>
        <r>  -10.6966    1.0000 </r>
        <r>   -5.9566    0.0000 </r>
        <r>   -1.5115    0.0000 </r>
        <r>   -1.5115    0.0000 </r>
        <r>   -1.5092    0.0000 </r>
        <r>   -0.2912    0.0000 </r>
        <r>    0.8389    0.0000 </r>
        <r>    0.8389    0.0000 </r>
        <r>    1.4820    0.0000 </r>
        <r>    1.4820    0.0000 </r>
        <r>    1.4820    0.0000 </r>
        <r>    1.6310    0.0000 </r>
        <r>    1.8846    0.0000 </r>
        <r>    1.8846    0.0000 </r>
        <r>    1.8846    0.0000 </r>
        <r>    2.4911    0.0000 </r>
        <r>    2.4911    0.0000 </r>
        <r>    2.4911    0.0000 </r>
        <r>    2.4984    0.0000 </r>
        <r>    2.4984    0.0000 </r>
        <r>    3.3451    0.0000 </r>
        <r>    3.3468    0.0000 </r>
        <r>    3.3468    0.0000 </r>
        <r>    3.6357    0.0000 </r>
        <r>    3.7049    0.0000 </r>
        <r>    3.7569    0.0000 </r>
        <r>    3.7569    0.0000 </r>
        <r>    3.7569    0.0000 </r>
        <r>    4.3017    0.0000 </r>
       </set>
      </set>
      <set comment="spin 2">
       <set comment="kpoint 1">
        <r>  -59.7575    1.0000 </r>
        <r>  -59.7571    1.0000 </r>
        <r>  -59.7571    1.0000 </r>
        <r>   -7.3098    1.0000 </r>
        <r>   -7.3098    1.0000 </r>
        <r>   -7.3095    1.0000 </r>
        <r>   -6.7809    0.0000 </r>
        <r>   -6.7806    0.0000 </r>
        <r>   -5.0449    0.0000 </r>
        <r>   -1.1485    0.0000 </r>
        <r>   -1.1485    0.0000 </r>
        <r>   -1.1467    0.0000 </r>
        <r>   -0.3480    0.0000 </r>
        <r>    0.7537    0.0000 </r>
        <r>    0.7537    0.0000 </r>
        <r>    1.4303    0.0000 </r>
        <r>    1.4303    0.0000 </r>
        <r>    1.4304    0.0000 </r>
        <r>    1.6168    0.0000 </r>
        <r>    1.8314    0.0000 </r>
        <r>    1.8314    0.0000 </r>
        <r>    1.8314    0.0000 </r>
        <r>    2.3574    0.0000 </r>
        <r>    2.3574    0.0000 </r>
        <r>    2.3574    0.0000 </r>
        <r>    2.4076    0.0000 </r>
        <r>    2.4076    0.0000 </r>
        <r>    3.3573    0.0000 </r>
        <r>    3.3573    0.0000 </r>
        <r>    3.3582    0.0000 </r>
        <r>    3.5712    0.0000 </r>
        <r>    3.6467    0.0000 </r>
        <r>    3.6513    0.0000 </r>
        <r>    3.6513    0.0000 </r>
        <r>    3.6513    0.0000 </r>
        <r>    4.2435    0.0000 </r>
       </set>
      </set>
     </set>
    </array>
   </eigenvalues>
   <array>
    <dimension dim="1">ion</dimension>
    <dimension dim="2">band</dimension>
    <dimension dim="3">kpoint</dimension>
    <dimension dim="4">spin</dimension>
    <field>    s</field>
    <field>   py</field>
    <field>   pz</field>
    <field>   px</field>
    <field>  dxy</field>
    <field>  dyz</field>
    <field>  dz2</field>
    <field>  dxz</field>
    <field>x2-y2</field>
    <set>
     <set comment="spin1">
      <set comment="kpoint 1">
       <set comment="band 1">
        <r>  0.0000  0.2424  0.7312  0.0222  0.0000  0.0000  0.0000  0.0000  0.0000 </r>
       </set>
       <set comment="band 2">
        <r>  0.0000  0.7485  0.2473  0.0000  0.0000  0.0000  0.0000  0.0000  0.0000 </r>
       </set>
       <set comment="band 3">
        <r>  0.0000  0.0049  0.0173  0.9736  0.0000  0.0000  0.0000  0.0000  0.0000 </r>
       </set>
       <set comment="band 4">
        <r>  0.0000  0.0000  0.0000  0.0000  0.0000  0.0000  0.9459  0.0000  0.0004 </r>
       </set>
       <set comment="band 5">
        <r>  0.0000  0.0000  0.0000  0.0000  0.0000  0.0000  0.0004  0.0000  0.9459 </r>
       </set>
       <set comment="band 6">
        <r>  0.0000  0.0000  0.0000  0.0000  0.9419  0.0000  0.0000  0.0000  0.0000 </r>
       </set>
       <set comment="band 7">
        <r>  0.0000  0.0000  0.0000  0.0000  0.0000  0.9419  0.0000  0.0000  0.0000 </r>
       </set>
       <set comment="band 8">
        <r>  0.0000  0.0000  0.0000  0.0000  0.0000  0.0000  0.0000  0.9419  0.0000 </r>
       </set>
       <set comment="band 9">
        <r>  0.3147  0.0000  0.0000  0.0000  0.0000  0.0000  0.0000  0.0000  0.0000 </r>
       </set>
       <set comment="band 10">
        <r>  0.0000  0.1139  0.0386  0.0001  0.0000  0.0000  0.0000  0.0000  0.0000 </r>
       </set>
       <set comment="band 11">
        <r>  0.0000  0.0016  0.0020  0.1491  0.0000  0.0000  0.0000  0.0000  0.0000 </r>
       </set>
       <set comment="band 12">
        <r>  0.0000  0.0365  0.1101  0.0034  0.0000  0.0000  0.0000  0.0000  0.0000 </r>
       </set>
       <set comment="band 13">
        <r>  0.0253  0.0000  0.0000  0.0000  0.0000  0.0000  0.0000  0.0000  0.0000 </r>
       </set>
       <set comment="band 14">
        <r>  0.0000  0.0000  0.0000  0.0000  0.0000  0.0000  0.0000  0.0000  0.0042 </r>
       </set>
       <set comment="band 15">
        <r>  0.0000  0.0000  0.0000  0.0000  0.0000  0.0000  0.0042  0.0000  0.0000 </r>
       </set>
       <set comment="band 16">
        <r>  0.0000  0.0102  0.0308  0.0009  0.0000  0.0000  0.0000  0.0000  0.0000 </r>
       </set>
       <set comment="band 17">
        <r>  0.0000  0.0318  0.0107  0.0000  0.0000  0.0000  0.0000  0.0000  0.0000 </r>
       </set>
       <set comment="band 18">
        <r>  0.0000  0.0004  0.0006  0.0416  0.0000  0.0000  0.0000  0.0000  0.0000 </r>
       </set>
       <set comment="band 19">
        <r>  0.0282  0.0000  0.0000  0.0000  0.0000  0.0000  0.0000  0.0000  0.0000 </r>
       </set>
       <set comment="band 20">
        <r>  0.0000  0.0000  0.0000  0.0000  0.0000  0.0000  0.0000  0.0126  0.0000 </r>
       </set>
       <set comment="band 21">
        <r>  0.0000  0.0000  0.0000  0.0000  0.0000  0.0126  0.0000  0.0000  0.0000 </r>
       </set>
       <set comment="band 22">
        <r>  0.0000  0.0000  0.0000  0.0000  0.0126  0.0000  0.0000  0.0000  0.0000 </r>
       </set>
       <set comment="band 23">
        <r>  0.0000  0.0000  0.0000  0.0000  0.0000  0.0000  0.0000  0.0000  0.0000 </r>
       </set>
       <set comment="band 24">
        <r>  0.0000  0.0000  0.0000  0.0000  0.0000  0.0000  0.0000  0.0000  0.0000 </r>
       </set>
       <set comment="band 25">
        <r>  0.0000  0.0000  0.0000  0.0000  0.0000  0.0000  0.0000  0.0000  0.0000 </r>
       </set>
       <set comment="band 26">
        <r>  0.0000  0.0000  0.0000  0.0000  0.0000  0.0000  0.0000  0.0000  0.0037 </r>
       </set>
       <set comment="band 27">
        <r>  0.0000  0.0000  0.0000  0.0000  0.0000  0.0000  0.0037  0.0000  0.0000 </r>
       </set>
       <set comment="band 28">
        <r>  0.0000  0.0130  0.0392  0.0012  0.0000  0.0000  0.0000  0.0000  0.0000 </r>
       </set>
       <set comment="band 29">
        <r>  0.0000  0.0395  0.0132  0.0000  0.0000  0.0000  0.0000  0.0000  0.0000 </r>
       </set>
       <set comment="band 30">
        <r>  0.0000  0.0004  0.0008  0.0516  0.0000  0.0000  0.0000  0.0000  0.0000 </r>
       </set>
       <set comment="band 31">
        <r>  0.0324  0.0000  0.0000  0.0000  0.0000  0.0000  0.0000  0.0000  0.0000 </r>
       </set>
       <set comment="band 32">
        <r>  0.0000  0.0000  0.0000  0.0000  0.0000  0.0000  0.0000  0.0000  0.0000 </r>
       </set>
       <set comment="band 33">
        <r>  0.0000  0.0000  0.0000  0.0000  0.0000  0.0000  0.0000  0.0070  0.0000 </r>
       </set>
       <set comment="band 34">
        <r>  0.0000  0.0000  0.0000  0.0000  0.0000  0.0070  0.0000  0.0000  0.0000 </r>
       </set>
       <set comment="band 35">
        <r>  0.0000  0.0000  0.0000  0.0000  0.0070  0.0000  0.0000  0.0000  0.0000 </r>
       </set>
       <set comment="band 36">
        <r>  0.0000  0.0072  0.0218  0.0007  0.0000  0.0000  0.0000  0.0000  0.0000 </r>
       </set>
      </set>
     </set>
     <set comment="spin2">
      <set comment="kpoint 1">
       <set comment="band 1">
        <r>  0.0000  0.2344  0.7260  0.0356  0.0000  0.0000  0.0000  0.0000  0.0000 </r>
       </set>
       <set comment="band 2">
        <r>  0.0000  0.0112  0.0246  0.9603  0.0000  0.0000  0.0000  0.0000  0.0000 </r>
       </set>
       <set comment="band 3">
        <r>  0.0000  0.7505  0.2454  0.0002  0.0000  0.0000  0.0000  0.0000  0.0000 </r>
       </set>
       <set comment="band 4">
        <r>  0.0000  0.0000  0.0000  0.0000  0.0000  0.0000  0.0000  0.9206  0.0000 </r>
       </set>
       <set comment="band 5">
        <r>  0.0000  0.0000  0.0000  0.0000  0.0000  0.9206  0.0000  0.0000  0.0000 </r>
       </set>
       <set comment="band 6">
        <r>  0.0000  0.0000  0.0000  0.0000  0.9206  0.0000  0.0000  0.0000  0.0000 </r>
       </set>
       <set comment="band 7">
        <r>  0.0000  0.0000  0.0000  0.0000  0.0000  0.0000  0.0037  0.0000  0.9171 </r>
       </set>
       <set comment="band 8">
        <r>  0.0000  0.0000  0.0000  0.0000  0.0000  0.0000  0.9171  0.0000  0.0037 </r>
       </set>
       <set comment="band 9">
        <r>  0.2648  0.0000  0.0000  0.0000  0.0000  0.0000  0.0000  0.0000  0.0000 </r>
       </set>
       <set comment="band 10">
        <r>  0.0000  0.0776  0.0257  0.0004  0.0000  0.0000  0.0000  0.0000  0.0000 </r>
       </set>
       <set comment="band 11">
        <r>  0.0000  0.0021  0.0015  0.1001  0.0000  0.0000  0.0000  0.0000  0.0000 </r>
       </set>
       <set comment="band 12">
        <r>  0.0000  0.0237  0.0753  0.0031  0.0000  0.0000  0.0000  0.0000  0.0000 </r>
       </set>
       <set comment="band 13">
        <r>  0.0269  0.0000  0.0000  0.0000  0.0000  0.0000  0.0000  0.0000  0.0000 </r>
       </set>
       <set comment="band 14">
        <r>  0.0000  0.0000  0.0000  0.0000  0.0000  0.0000  0.0067  0.0000  0.0000 </r>
       </set>
       <set comment="band 15">
        <r>  0.0000  0.0000  0.0000  0.0000  0.0000  0.0000  0.0000  0.0000  0.0067 </r>
       </set>
       <set comment="band 16">
        <r>  0.0000  0.0278  0.0093  0.0002  0.0000  0.0000  0.0000  0.0000  0.0000 </r>
       </set>
       <set comment="band 17">
        <r>  0.0000  0.0009  0.0005  0.0359  0.0000  0.0000  0.0000  0.0000  0.0000 </r>
       </set>
       <set comment="band 18">
        <r>  0.0000  0.0084  0.0266  0.0011  0.0000  0.0000  0.0000  0.0000  0.0000 </r>
       </set>
       <set comment="band 19">
        <r>  0.0290  0.0000  0.0000  0.0000  0.0000  0.0000  0.0000  0.0000  0.0000 </r>
       </set>
       <set comment="band 20">
        <r>  0.0000  0.0000  0.0000  0.0000  0.0156  0.0000  0.0000  0.0000  0.0000 </r>
       </set>
       <set comment="band 21">
        <r>  0.0000  0.0000  0.0000  0.0000  0.0000  0.0156  0.0000  0.0000  0.0000 </r>
       </set>
       <set comment="band 22">
        <r>  0.0000  0.0000  0.0000  0.0000  0.0000  0.0000  0.0000  0.0156  0.0000 </r>
       </set>
       <set comment="band 23">
        <r>  0.0000  0.0000  0.0000  0.0000  0.0000  0.0000  0.0000  0.0000  0.0000 </r>
       </set>
       <set comment="band 24">
        <r>  0.0000  0.0000  0.0000  0.0000  0.0000  0.0000  0.0000  0.0000  0.0000 </r>
       </set>
       <set comment="band 25">
        <r>  0.0000  0.0000  0.0000  0.0000  0.0000  0.0000  0.0000  0.0000  0.0000 </r>
       </set>
       <set comment="band 26">
        <r>  0.0000  0.0000  0.0000  0.0000  0.0000  0.0000  0.0045  0.0000  0.0000 </r>
       </set>
       <set comment="band 27">
        <r>  0.0000  0.0000  0.0000  0.0000  0.0000  0.0000  0.0000  0.0000  0.0045 </r>
       </set>
       <set comment="band 28">
        <r>  0.0000  0.0333  0.0111  0.0003  0.0000  0.0000  0.0000  0.0000  0.0000 </r>
       </set>
       <set comment="band 29">
        <r>  0.0000  0.0010  0.0006  0.0431  0.0000  0.0000  0.0000  0.0000  0.0000 </r>
       </set>
       <set comment="band 30">
        <r>  0.0000  0.0109  0.0347  0.0014  0.0000  0.0000  0.0000  0.0000  0.0000 </r>
       </set>
       <set comment="band 31">
        <r>  0.0000  0.0000  0.0000  0.0000  0.0000  0.0000  0.0000  0.0000  0.0000 </r>
       </set>
       <set comment="band 32">
        <r>  0.0288  0.0000  0.0000  0.0000  0.0000  0.0000  0.0000  0.0000  0.0000 </r>
       </set>
       <set comment="band 33">
        <r>  0.0000  0.0000  0.0000  0.0000  0.0084  0.0000  0.0000  0.0000  0.0000 </r>
       </set>
       <set comment="band 34">
        <r>  0.0000  0.0000  0.0000  0.0000  0.0000  0.0084  0.0000  0.0000  0.0000 </r>
       </set>
       <set comment="band 35">
        <r>  0.0000  0.0000  0.0000  0.0000  0.0000  0.0000  0.0000  0.0084  0.0000 </r>
       </set>
       <set comment="band 36">
        <r>  0.0000  0.0088  0.0281  0.0012  0.0000  0.0000  0.0000  0.0000  0.0000 </r>
       </set>
      </set>
     </set>
    </set>
   </array>
  </projected>
 </calculation>
 <structure name="finalpos" >
  <crystal>
   <varray name="basis" >
    <v>      10.00000000       0.00000000       0.00000000 </v>
    <v>       0.00000000      10.00000000       0.00000000 </v>
    <v>       0.00000000       0.00000000      10.00000000 </v>
   </varray>
   <i name="volume">   1000.00000000 </i>
   <varray name="rec_basis" >
    <v>       0.10000000       0.00000000       0.00000000 </v>
    <v>       0.00000000       0.10000000       0.00000000 </v>
    <v>       0.00000000       0.00000000       0.10000000 </v>
   </varray>
  </crystal>
  <varray name="positions" >
   <v>       0.50000000       0.50000000       0.50000000 </v>
  </varray>
 </structure>
</modeling>
