       N       E                     dE             d eps       ncg     rms          ort
DAV:   1     0.205108103799E+03    0.20511E+03   -0.24404E+03    36   0.197E+02
DAV:   2     0.749084845054E+01   -0.19762E+03   -0.19761E+03    36   0.379E+01
DAV:   3     0.115277957278E+01   -0.63381E+01   -0.63324E+01    36   0.171E+01
DAV:   4     0.252605906578E+00   -0.90017E+00   -0.89228E+00    36   0.718E+00
DAV:   5     0.137609462596E-01   -0.23884E+00   -0.23264E+00    36   0.295E+00
SDA:   6    -0.315914600671E-01   -0.45352E-01   -0.15459E+00    36   0.386E+00 0.000E+00
DMP:   7    -0.132999542767E+00   -0.10141E+00   -0.13294E+00    36   0.288E+00 0.117E+00
DMP:   8     0.880396443025E-01    0.22104E+00   -0.36194E+01    36   0.960E+01-0.144E+01
DMP:   9     0.601908187057E+01    0.59310E+01   -0.10079E+03    36   0.261E+03-0.232E+02
DMP:  10     0.358145254437E+02    0.29795E+02   -0.12211E+03    36   0.323E+03-0.466E+02
DMP:  11     0.376281058821E+02    0.18136E+01   -0.22029E+03    36   0.589E+03-0.101E+03
DMP:  12     0.137611398949E+03    0.99983E+02   -0.58256E+03    36   0.161E+04-0.406E+03
DMP:  13     0.125569931221E+03   -0.12041E+02   -0.53364E+03    36   0.152E+04-0.482E+03
DMP:  14     0.611872716034E+02   -0.64383E+02   -0.36255E+03    36   0.103E+04-0.314E+03
DMP:  15     0.614684374737E+02    0.28117E+00   -0.30222E+03    36   0.867E+03-0.292E+03
DMP:  16     0.424038173354E+02   -0.19065E+02   -0.16141E+03    36   0.485E+03-0.213E+03
DMP:  17     0.467561475442E+02    0.43523E+01   -0.20931E+03    36   0.607E+03-0.220E+03
DMP:  18     0.626452312486E+02    0.15889E+02   -0.29300E+03    36   0.872E+03-0.365E+03
DMP:  19     0.513554888519E+02   -0.11290E+02   -0.22837E+03    36   0.715E+03-0.376E+03
DMP:  20     0.341058835538E+02   -0.17250E+02   -0.14522E+03    36   0.468E+03-0.276E+03
DMP:  21     0.229148509981E+02   -0.11191E+02   -0.88302E+02    36   0.295E+03-0.193E+03
DMP:  22     0.140486785652E+02   -0.88662E+01   -0.51271E+02    36   0.175E+03-0.124E+03
DMP:  23     0.101756029133E+02   -0.38731E+01   -0.35050E+02    36   0.121E+03-0.884E+02
DMP:  24     0.643534936960E+01   -0.37403E+01   -0.19781E+02    36   0.726E+02-0.606E+02
DMP:  25     0.257479951754E+01   -0.38605E+01   -0.65165E+01    36   0.269E+02-0.277E+02
DMP:  26     0.406427672306E+00   -0.21684E+01   -0.65612E+00    36   0.363E+01-0.520E+01
DMP:  27    -0.211011157135E-01   -0.42753E+00   -0.20871E+00    36   0.349E+00 0.452E+00
DMP:  28    -0.371210908357E-01   -0.16020E-01   -0.27237E+00    36   0.857E+00-0.461E+00
DMP:  29    -0.157644713753E+00   -0.12052E+00   -0.30661E-01    36   0.109E+00-0.836E-01
DMP:  30    -0.183308116738E+00   -0.25663E-01   -0.36370E-01    36   0.719E-01 0.498E-01
DMP:  31    -0.200143776001E+00   -0.16836E-01   -0.10616E-01    36   0.293E-01-0.735E-02
DMP:  32    -0.209018993978E+00   -0.88752E-02   -0.70027E-02    36   0.108E-01 0.177E-01
DMP:  33    -0.213403467146E+00   -0.43845E-02   -0.31546E-02    36   0.622E-02 0.437E-02
DMP:  34    -0.216217751877E+00   -0.28143E-02   -0.23406E-02    36   0.349E-02 0.617E-02
DMP:  35    -0.218096836980E+00   -0.18791E-02   -0.14824E-02    36   0.236E-02 0.354E-02
DMP:  36    -0.219478038434E+00   -0.13812E-02   -0.12494E-02    36   0.190E-02 0.320E-02
DMP:  37    -0.220601167346E+00   -0.11231E-02   -0.99915E-03    36   0.155E-02 0.249E-02
DMP:  38    -0.221535714575E+00   -0.93455E-03   -0.84602E-03    36   0.129E-02 0.217E-02
DMP:  39    -0.222319540165E+00   -0.78383E-03   -0.70784E-03    36   0.108E-02 0.180E-02
DMP:  40    -0.222973287924E+00   -0.65375E-03   -0.58306E-03    36   0.886E-03 0.150E-02
DMP:  41    -0.223505048271E+00   -0.53176E-03   -0.47923E-03    36   0.740E-03 0.120E-02
DMP:  42    -0.223930450616E+00   -0.42540E-03   -0.38815E-03    36   0.617E-03 0.926E-03
DMP:  43    -0.224265617632E+00   -0.33517E-03   -0.30154E-03    36   0.485E-03 0.703E-03
DMP:  44    -0.224524866826E+00   -0.25925E-03   -0.22131E-03    36   0.347E-03 0.540E-03
DMP:  45    -0.224717543067E+00   -0.19268E-03   -0.16044E-03    36   0.245E-03 0.408E-03
DMP:  46    -0.224854660062E+00   -0.13712E-03   -0.11868E-03    36   0.189E-03 0.283E-03
DMP:  47    -0.224946558907E+00   -0.91899E-04   -0.95346E-04    36   0.177E-03 0.162E-03
DMP:  48    -0.225005824302E+00   -0.59265E-04   -0.83580E-04    36   0.187E-03 0.572E-04
DMP:  49    -0.225043976405E+00   -0.38152E-04   -0.74144E-04    36   0.192E-03-0.187E-04
DMP:  50    -0.225070277413E+00   -0.26301E-04   -0.61713E-04    36   0.175E-03-0.541E-04
DMP:  51    -0.225088983868E+00   -0.18706E-04   -0.50392E-04    36   0.149E-03-0.609E-04
DMP:  52    -0.225102187408E+00   -0.13204E-04   -0.40325E-04    36   0.124E-03-0.600E-04
   1 F= -.22510219E+00 E0= -.20581940E+00  d E =-.225102E+00  mag=     1.0000
