<?xml version="1.0" encoding="ISO-8859-1"?>
<modeling>
 <generator>
  <i name="program" type="string">vasp </i>
  <i name="version" type="string">5.4.4.18Apr17-6-g9f103f2a35  </i>
  <i name="subversion" type="string">(build Nov 08 2019 15:19:53) gamma-only         parallel </i>
  <i name="platform" type="string">LinuxIFC </i>
  <i name="date" type="string">2020 11 30 </i>
  <i name="time" type="string">09:31:13 </i>
 </generator>
 <incar>
  <i type="string" name="PREC">accurate</i>
  <i type="string" name="ALGO"> D</i>
  <i type="int" name="ISPIN">     2</i>
  <i type="int" name="NELM">   300</i>
  <i type="int" name="IBRION">     2</i>
  <i name="EDIFF">      0.00005000</i>
  <i type="int" name="NSW">    99</i>
  <i type="int" name="ISIF">     2</i>
  <i name="ENCUT">    520.00000000</i>
  <v name="MAGMOM">      0.60000000</v>
  <i type="string" name="LREAL"> Auto</i>
  <i type="int" name="ISMEAR">     0</i>
  <i name="SIGMA">      0.05000000</i>
  <i type="logical" name="LWAVE"> F  </i>
  <i type="int" name="LORBIT">    11</i>
  <i type="logical" name="LASPH"> T  </i>
  <v type="int" name="KPOINT_BSE">    -1     0     0     0</v>
  <i type="int" name="NELM">   300</i>
  <i type="logical" name="LASPH"> T  </i>
 </incar>
 <structure name="primitive_cell" >
  <crystal>
   <varray name="basis" >
    <v>      10.00000000       0.00000000       0.00000000 </v>
    <v>       0.00000000      10.00000000       0.00000000 </v>
    <v>       0.00000000       0.00000000      10.00000000 </v>
   </varray>
   <i name="volume">   1000.00000000 </i>
   <varray name="rec_basis" >
    <v>       0.10000000       0.00000000       0.00000000 </v>
    <v>       0.00000000       0.10000000       0.00000000 </v>
    <v>       0.00000000       0.00000000       0.10000000 </v>
   </varray>
  </crystal>
  <varray name="positions" >
   <v>      -0.50000000      -0.50000000      -0.50000000 </v>
  </varray>
 </structure>
 <varray name="primitive_index" >
  <v type="int" >        1 </v>
 </varray>
 <kpoints>
  <generation param="Gamma">
   <v type="int" name="divisions">       1        1        1 </v>
   <v name="usershift">      0.00000000       0.00000000       0.00000000 </v>
   <v name="genvec1">      1.00000000       0.00000000       0.00000000 </v>
   <v name="genvec2">      0.00000000       1.00000000       0.00000000 </v>
   <v name="genvec3">      0.00000000       0.00000000       1.00000000 </v>
   <v name="shift">      0.00000000       0.00000000       0.00000000 </v>
  </generation>
  <varray name="kpointlist" >
   <v>       0.00000000       0.00000000       0.00000000 </v>
  </varray>
  <varray name="weights" >
   <v>       1.00000000 </v>
  </varray>
 </kpoints>
 <parameters>
  <separator name="general" >
   <i type="string" name="SYSTEM">unknown system</i>
   <i type="logical" name="LCOMPAT"> F  </i>
  </separator>
  <separator name="electronic" >
   <i type="string" name="PREC">accura</i>
   <i name="ENMAX">    520.00000000</i>
   <i name="ENAUG">    298.79800000</i>
   <i name="EDIFF">      0.00005000</i>
   <i type="int" name="IALGO">    53</i>
   <i type="int" name="IWAVPR">    11</i>
   <i type="int" name="NBANDS">    36</i>
   <i name="NELECT">      9.00000000</i>
   <i type="int" name="TURBO">     0</i>
   <i type="int" name="IRESTART">     0</i>
   <i type="int" name="NREBOOT">     0</i>
   <i type="int" name="NMIN">     0</i>
   <i name="EREF">      0.00000000</i>
   <separator name="electronic smearing" >
    <i type="int" name="ISMEAR">     0</i>
    <i name="SIGMA">      0.05000000</i>
    <i name="KSPACING">      0.50000000</i>
    <i type="logical" name="KGAMMA"> T  </i>
   </separator>
   <separator name="electronic projectors" >
    <i type="logical" name="LREAL"> T  </i>
    <v name="ROPT">     -0.00025000</v>
    <i type="int" name="LMAXPAW">  -100</i>
    <i type="int" name="LMAXMIX">     2</i>
    <i type="logical" name="NLSPLINE"> F  </i>
   </separator>
   <separator name="electronic startup" >
    <i type="int" name="ISTART">     0</i>
    <i type="int" name="ICHARG">     2</i>
    <i type="int" name="INIWAV">     1</i>
   </separator>
   <separator name="electronic spin" >
    <i type="int" name="ISPIN">     2</i>
    <i type="logical" name="LNONCOLLINEAR"> F  </i>
    <v name="MAGMOM">      0.60000000</v>
    <i name="NUPDOWN">     -1.00000000</i>
    <i type="logical" name="LSORBIT"> F  </i>
    <v name="SAXIS">      0.00000000      0.00000000      1.00000000</v>
    <i type="logical" name="LSPIRAL"> F  </i>
    <v name="QSPIRAL">      0.00000000      0.00000000      0.00000000</v>
    <i type="logical" name="LZEROZ"> F  </i>
   </separator>
   <separator name="electronic exchange-correlation" >
    <i type="logical" name="LASPH"> T  </i>
    <i type="logical" name="LMETAGGA"> F  </i>
   </separator>
   <separator name="electronic convergence" >
    <i type="int" name="NELM">   300</i>
    <i type="int" name="NELMDL">    -5</i>
    <i type="int" name="NELMIN">     2</i>
    <i name="ENINI">    520.00000000</i>
    <separator name="electronic convergence detail" >
     <i type="logical" name="LDIAG"> T  </i>
     <i type="logical" name="LSUBROT"> F  </i>
     <i name="WEIMIN">      0.00100000</i>
     <i name="EBREAK">      0.00000035</i>
     <i name="DEPER">      0.30000000</i>
     <i type="int" name="NRMM">     4</i>
     <i name="TIME">      0.40000000</i>
    </separator>
   </separator>
   <separator name="electronic mixer" >
    <i name="AMIX">      0.40000000</i>
    <i name="BMIX">      1.00000000</i>
    <i name="AMIN">      0.10000000</i>
    <i name="AMIX_MAG">      1.60000000</i>
    <i name="BMIX_MAG">      1.00000000</i>
    <separator name="electronic mixer details" >
     <i type="int" name="IMIX">     4</i>
     <i type="logical" name="MIXFIRST"> F  </i>
     <i type="int" name="MAXMIX">   -45</i>
     <i name="WC">    100.00000000</i>
     <i type="int" name="INIMIX">     1</i>
     <i type="int" name="MIXPRE">     1</i>
     <i type="int" name="MREMOVE">     5</i>
    </separator>
   </separator>
   <separator name="electronic dipolcorrection" >
    <i type="logical" name="LDIPOL"> F  </i>
    <i type="logical" name="LMONO"> F  </i>
    <i type="int" name="IDIPOL">     0</i>
    <i name="EPSILON">      1.00000000</i>
    <v name="DIPOL">   -100.00000000   -100.00000000   -100.00000000</v>
    <i name="EFIELD">      0.00000000</i>
   </separator>
  </separator>
  <separator name="grids" >
   <i type="int" name="NGX">    80</i>
   <i type="int" name="NGY">    80</i>
   <i type="int" name="NGZ">    80</i>
   <i type="int" name="NGXF">   160</i>
   <i type="int" name="NGYF">   160</i>
   <i type="int" name="NGZF">   160</i>
   <i type="logical" name="ADDGRID"> F  </i>
  </separator>
  <separator name="ionic" >
   <i type="int" name="NSW">    99</i>
   <i type="int" name="IBRION">     2</i>
   <i type="int" name="MDALGO">     0</i>
   <i type="int" name="ISIF">     2</i>
   <i name="PSTRESS">      0.00000000</i>
   <i name="EDIFFG">      0.00050000</i>
   <i type="int" name="NFREE">     1</i>
   <i name="POTIM">      0.50000000</i>
   <i name="SMASS">     -3.00000000</i>
   <i name="SCALEE">      1.00000000</i>
  </separator>
  <separator name="ionic md" >
   <i name="TEBEG">      0.00010000</i>
   <i name="TEEND">      0.00010000</i>
   <i type="int" name="NBLOCK">     1</i>
   <i type="int" name="KBLOCK">    99</i>
   <i type="int" name="NPACO">   256</i>
   <i name="APACO">     16.00000000</i>
  </separator>
  <separator name="symmetry" >
   <i type="int" name="ISYM">     2</i>
   <i name="SYMPREC">      0.00001000</i>
  </separator>
  <separator name="dos" >
   <i type="int" name="LORBIT">    11</i>
   <v name="RWIGS">     -1.00000000</v>
   <i type="int" name="NEDOS">   301</i>
   <i name="EMIN">     10.00000000</i>
   <i name="EMAX">    -10.00000000</i>
   <i name="EFERMI">      0.00000000</i>
  </separator>
  <separator name="writing" >
   <i type="int" name="NWRITE">     2</i>
   <i type="logical" name="LWAVE"> F  </i>
   <i type="logical" name="LDOWNSAMPLE"> F  </i>
   <i type="logical" name="LCHARG"> T  </i>
   <i type="logical" name="LPARD"> F  </i>
   <i type="logical" name="LVTOT"> F  </i>
   <i type="logical" name="LVHAR"> F  </i>
   <i type="logical" name="LELF"> F  </i>
   <i type="logical" name="LOPTICS"> F  </i>
   <v name="STM">      0.00000000      0.00000000      0.00000000      0.00000000      0.00000000      0.00000000      0.00000000</v>
  </separator>
  <separator name="performance" >
   <i type="int" name="NPAR">    36</i>
   <i type="int" name="NSIM">     4</i>
   <i type="int" name="NBLK">    -1</i>
   <i type="logical" name="LPLANE"> T  </i>
   <i type="logical" name="LSCALAPACK"> T  </i>
   <i type="logical" name="LSCAAWARE"> F  </i>
   <i type="logical" name="LSCALU"> F  </i>
   <i type="logical" name="LASYNC"> F  </i>
   <i type="logical" name="LORBITALREAL"> F  </i>
  </separator>
  <separator name="miscellaneous" >
   <i type="int" name="IDIOT">     3</i>
   <i type="int" name="ISPECIAL">     0</i>
   <i type="logical" name="LMUSIC"> F  </i>
   <v name="POMASS">    174.96700000</v>
   <v name="DARWINR">      0.00000000</v>
   <v name="DARWINV">      1.00000000</v>
   <i type="logical" name="LCORR"> T  </i>
  </separator>
  <i type="logical" name="GGA_COMPAT"> T  </i>
  <i type="logical" name="LBERRY"> F  </i>
  <i type="int" name="ICORELEVEL">     0</i>
  <i type="logical" name="LDAU"> F  </i>
  <i type="int" name="I_CONSTRAINED_M">     0</i>
  <separator name="electronic exchange-correlation" >
   <i type="string" name="GGA">--</i>
   <i type="int" name="VOSKOWN">     0</i>
   <i type="logical" name="LHFCALC"> F  </i>
   <i type="string" name="PRECFOCK"></i>
   <i type="logical" name="LSYMGRAD"> F  </i>
   <i type="logical" name="LHFONE"> F  </i>
   <i type="logical" name="LRHFCALC"> F  </i>
   <i type="logical" name="LTHOMAS"> F  </i>
   <i type="logical" name="LMODELHF"> F  </i>
   <i name="ENCUT4O">     -1.00000000</i>
   <i type="int" name="EXXOEP">     0</i>
   <i type="int" name="FOURORBIT">     0</i>
   <i name="AEXX">      0.00000000</i>
   <i name="HFALPHA">      0.00000000</i>
   <i name="MCALPHA">      0.00000000</i>
   <i name="ALDAX">      1.00000000</i>
   <i name="AGGAX">      1.00000000</i>
   <i name="ALDAC">      1.00000000</i>
   <i name="AGGAC">      1.00000000</i>
   <i type="int" name="NKREDX">     1</i>
   <i type="int" name="NKREDY">     1</i>
   <i type="int" name="NKREDZ">     1</i>
   <i type="logical" name="SHIFTRED"> F  </i>
   <i type="logical" name="ODDONLY"> F  </i>
   <i type="logical" name="EVENONLY"> F  </i>
   <i type="int" name="LMAXFOCK">     0</i>
   <i type="int" name="NMAXFOCKAE">     0</i>
   <i type="logical" name="LFOCKAEDFT"> F  </i>
   <i name="HFSCREEN">      0.00000000</i>
   <i name="HFSCREENC">      0.00000000</i>
   <i type="int" name="NBANDSGWLOW">     0</i>
  </separator>
  <separator name="vdW DFT" >
   <i type="logical" name="LUSE_VDW"> F  </i>
   <i name="Zab_VDW">     -0.84910000</i>
   <i name="PARAM1">      0.12340000</i>
   <i name="PARAM2">      1.00000000</i>
   <i name="PARAM3">      0.00000000</i>
  </separator>
  <separator name="model GW" >
   <i type="int" name="MODEL_GW">     0</i>
   <i name="MODEL_EPS0">    600.00000000</i>
   <i name="MODEL_ALPHA">      1.00000000</i>
  </separator>
  <separator name="linear response parameters" >
   <i type="logical" name="LEPSILON"> F  </i>
   <i type="logical" name="LRPA"> F  </i>
   <i type="logical" name="LNABLA"> F  </i>
   <i type="logical" name="LVEL"> F  </i>
   <i type="int" name="KINTER">     0</i>
   <i name="CSHIFT">      0.10000000</i>
   <i name="OMEGAMAX">     -1.00000000</i>
   <i name="DEG_THRESHOLD">      0.00200000</i>
   <i name="RTIME">     -0.10000000</i>
   <i name="WPLASMAI">      0.00000000</i>
   <v name="DFIELD">      0.00000000      0.00000000      0.00000000</v>
   <v name="WPLASMA">      0.00000000      0.00000000      0.00000000      0.00000000      0.00000000      0.00000000      0.00000000      0.00000000      0.00000000</v>
  </separator>
  <separator name="orbital magnetization" >
   <i type="logical" name="NUCIND"> F  </i>
   <v name="MAGPOS">      0.00000000      0.00000000      0.00000000</v>
   <i type="logical" name="LNICSALL"> T  </i>
   <i type="logical" name="ORBITALMAG"> F  </i>
   <i type="logical" name="LMAGBLOCH"> F  </i>
   <i type="logical" name="LCHIMAG"> F  </i>
   <i type="logical" name="LGAUGE"> T  </i>
   <i type="int" name="MAGATOM">     0</i>
   <v name="MAGDIPOL">      0.00000000      0.00000000      0.00000000</v>
   <v name="AVECCONST">      0.00000000      0.00000000      0.00000000</v>
  </separator>
  <separator name="response functions" >
   <i type="logical" name="LADDER"> F  </i>
   <i type="logical" name="LRPAFORCE"> F  </i>
   <i type="logical" name="LFXC"> F  </i>
   <i type="logical" name="LHARTREE"> T  </i>
   <i type="int" name="IBSE">     0</i>
   <v type="int" name="KPOINT">    -1     0     0     0</v>
   <i type="logical" name="LTCTE"> F  </i>
   <i type="logical" name="LTETE"> F  </i>
   <i type="logical" name="LTRIPLET"> F  </i>
   <i type="logical" name="LFXCEPS"> F  </i>
   <i type="logical" name="LFXHEG"> F  </i>
   <i type="int" name="NATURALO">     2</i>
   <i type="logical" name="L2ORDER"> F  </i>
   <i type="logical" name="LMP2LT"> F  </i>
   <i type="logical" name="LUSEW"> F  </i>
   <i name="ENCUTGW">     -2.00000000</i>
   <i name="ENCUTGWSOFT">     -2.00000000</i>
   <i name="ENCUTLF">     -1.00000000</i>
   <i type="int" name="LMAXMP2">    -1</i>
   <i name="SCISSOR">      0.00000000</i>
   <i type="int" name="NOMEGA">     0</i>
   <i type="int" name="NOMEGAR">     0</i>
   <i type="int" name="NBANDSGW">    -1</i>
   <i type="int" name="NBANDSO">    -1</i>
   <i type="int" name="NBANDSV">    -1</i>
   <i type="int" name="NELM">   300</i>
   <i type="int" name="NELMHF">     1</i>
   <i type="int" name="DIM">     3</i>
   <i type="int" name="ANTIRES">     0</i>
   <i name="OMEGAMAX">    -30.00000000</i>
   <i name="OMEGAMIN">    -30.00000000</i>
   <i name="OMEGATL">   -200.00000000</i>
   <i type="int" name="OMEGAGRID">   140</i>
   <i name="CSHIFT">     -0.10000000</i>
   <i type="logical" name="SELFENERGY"> F  </i>
   <i type="logical" name="LSPECTRAL"> F  </i>
   <i type="logical" name="LSPECTRALGW"> F  </i>
   <i type="logical" name="LSINGLES"> F  </i>
   <i type="logical" name="LFERMIGW"> F  </i>
   <i type="logical" name="ODDONLYGW"> F  </i>
   <i type="logical" name="EVENONLYGW"> F  </i>
   <i type="int" name="NKREDLFX">     1</i>
   <i type="int" name="NKREDLFY">     1</i>
   <i type="int" name="NKREDLFZ">     1</i>
   <i type="int" name="MAXMEM">  2800</i>
   <i type="int" name="TELESCOPE">     0</i>
   <i type="int" name="TAUPAR">     1</i>
   <i type="int" name="OMEGAPAR">    -1</i>
   <i name="LAMBDA">      1.00000000</i>
  </separator>
  <separator name="External order field" >
   <i name="OFIELD_KAPPA">      0.00000000</i>
   <v name="OFIELD_K">      0.00000000      0.00000000      0.00000000</v>
   <i name="OFIELD_Q6_NEAR">      0.00000000</i>
   <i name="OFIELD_Q6_FAR">      0.00000000</i>
   <i name="OFIELD_A">      0.00000000</i>
  </separator>
 </parameters>
 <atominfo>
  <atoms>       1 </atoms>
  <types>       1 </types>
  <array name="atoms" >
   <dimension dim="1">ion</dimension>
   <field type="string">element</field>
   <field type="int">atomtype</field>
   <set>
    <rc><c>Lu</c><c>   1</c></rc>
   </set>
  </array>
  <array name="atomtypes" >
   <dimension dim="1">type</dimension>
   <field type="int">atomspertype</field>
   <field type="string">element</field>
   <field>mass</field>
   <field>valence</field>
   <field type="string">pseudopotential</field>
   <set>
    <rc><c>   1</c><c>Lu</c><c>    174.96700000</c><c>      9.00000000</c><c>  PAW_PBE Lu_3 06Sep2000                </c></rc>
   </set>
  </array>
 </atominfo>
 <structure name="initialpos" >
  <crystal>
   <varray name="basis" >
    <v>      10.00000000       0.00000000       0.00000000 </v>
    <v>       0.00000000      10.00000000       0.00000000 </v>
    <v>       0.00000000       0.00000000      10.00000000 </v>
   </varray>
   <i name="volume">   1000.00000000 </i>
   <varray name="rec_basis" >
    <v>       0.10000000       0.00000000       0.00000000 </v>
    <v>       0.00000000       0.10000000       0.00000000 </v>
    <v>       0.00000000       0.00000000       0.10000000 </v>
   </varray>
  </crystal>
  <varray name="positions" >
   <v>       0.50000000       0.50000000       0.50000000 </v>
  </varray>
 </structure>
 <calculation>
  <scstep>
   <time name="total">    0.79    0.80</time>
   <energy>
    <i name="alphaZ">      1.66191399 </i>
    <i name="ewald">   -165.46874404 </i>
    <i name="hartreedc">   -366.06809625 </i>
    <i name="XCdc">     -6.23670225 </i>
    <i name="pawpsdc">    533.63960981 </i>
    <i name="pawaedc">   -502.87329842 </i>
    <i name="eentropy">     -0.00003791 </i>
    <i name="bandstr">      6.60660289 </i>
    <i name="atom">    703.84685599 </i>
    <i name="e_fr_energy">    205.10810380 </i>
    <i name="e_wo_entrp">    205.10814171 </i>
    <i name="e_0_energy">    205.10812276 </i>
   </energy>
  </scstep>
  <scstep>
   <time name="total">    0.37    0.37</time>
   <energy>
    <i name="e_fr_energy">      7.49084845 </i>
    <i name="e_wo_entrp">      7.50940983 </i>
    <i name="e_0_energy">      7.50012914 </i>
   </energy>
  </scstep>
  <scstep>
   <time name="total">    0.37    0.37</time>
   <energy>
    <i name="e_fr_energy">      1.15277957 </i>
    <i name="e_wo_entrp">      1.15808267 </i>
    <i name="e_0_energy">      1.15543112 </i>
   </energy>
  </scstep>
  <scstep>
   <time name="total">    0.37    0.37</time>
   <energy>
    <i name="e_fr_energy">      0.25260591 </i>
    <i name="e_wo_entrp">      0.27032973 </i>
    <i name="e_0_energy">      0.26146782 </i>
   </energy>
  </scstep>
  <scstep>
   <time name="total">    0.58    0.59</time>
   <energy>
    <i name="e_fr_energy">      0.01376095 </i>
    <i name="e_wo_entrp">      0.04720713 </i>
    <i name="e_0_energy">      0.03048404 </i>
   </energy>
  </scstep>
  <scstep>
   <time name="total">    0.98    0.99</time>
   <energy>
    <i name="e_fr_energy">     -0.03159146 </i>
    <i name="e_wo_entrp">      0.00182108 </i>
    <i name="e_0_energy">     -0.01488519 </i>
   </energy>
  </scstep>
  <scstep>
   <time name="total">    0.91    0.91</time>
   <energy>
    <i name="e_fr_energy">     -0.13299954 </i>
    <i name="e_wo_entrp">     -0.09896945 </i>
    <i name="e_0_energy">     -0.11598450 </i>
   </energy>
  </scstep>
  <scstep>
   <time name="total">    0.91    0.91</time>
   <energy>
    <i name="e_fr_energy">      0.08803964 </i>
    <i name="e_wo_entrp">      0.12240779 </i>
    <i name="e_0_energy">      0.10522371 </i>
   </energy>
  </scstep>
  <scstep>
   <time name="total">    0.91    0.91</time>
   <energy>
    <i name="e_fr_energy">      6.01908187 </i>
    <i name="e_wo_entrp">      6.01908201 </i>
    <i name="e_0_energy">      6.01908194 </i>
   </energy>
  </scstep>
  <scstep>
   <time name="total">    0.91    0.91</time>
   <energy>
    <i name="e_fr_energy">     35.81452544 </i>
    <i name="e_wo_entrp">     35.81452544 </i>
    <i name="e_0_energy">     35.81452544 </i>
   </energy>
  </scstep>
  <scstep>
   <time name="total">    0.91    0.91</time>
   <energy>
    <i name="e_fr_energy">     37.62810588 </i>
    <i name="e_wo_entrp">     37.62810615 </i>
    <i name="e_0_energy">     37.62810601 </i>
   </energy>
  </scstep>
  <scstep>
   <time name="total">    0.91    0.91</time>
   <energy>
    <i name="e_fr_energy">    137.61139895 </i>
    <i name="e_wo_entrp">    137.61139896 </i>
    <i name="e_0_energy">    137.61139895 </i>
   </energy>
  </scstep>
  <scstep>
   <time name="total">    0.91    0.91</time>
   <energy>
    <i name="e_fr_energy">    125.56993122 </i>
    <i name="e_wo_entrp">    125.57171960 </i>
    <i name="e_0_energy">    125.57082541 </i>
   </energy>
  </scstep>
  <scstep>
   <time name="total">    0.91    0.91</time>
   <energy>
    <i name="e_fr_energy">     61.18727160 </i>
    <i name="e_wo_entrp">     61.20551059 </i>
    <i name="e_0_energy">     61.19639109 </i>
   </energy>
  </scstep>
  <scstep>
   <time name="total">    0.91    0.91</time>
   <energy>
    <i name="e_fr_energy">     61.46843747 </i>
    <i name="e_wo_entrp">     61.49612335 </i>
    <i name="e_0_energy">     61.48228041 </i>
   </energy>
  </scstep>
  <scstep>
   <time name="total">    0.92    0.92</time>
   <energy>
    <i name="e_fr_energy">     42.40381734 </i>
    <i name="e_wo_entrp">     42.40943821 </i>
    <i name="e_0_energy">     42.40662777 </i>
   </energy>
  </scstep>
  <scstep>
   <time name="total">    0.91    0.91</time>
   <energy>
    <i name="e_fr_energy">     46.75614754 </i>
    <i name="e_wo_entrp">     46.75615555 </i>
    <i name="e_0_energy">     46.75615155 </i>
   </energy>
  </scstep>
  <scstep>
   <time name="total">    0.90    0.90</time>
   <energy>
    <i name="e_fr_energy">     62.64523125 </i>
    <i name="e_wo_entrp">     62.64523125 </i>
    <i name="e_0_energy">     62.64523125 </i>
   </energy>
  </scstep>
  <scstep>
   <time name="total">    0.91    0.91</time>
   <energy>
    <i name="e_fr_energy">     51.35548885 </i>
    <i name="e_wo_entrp">     51.35548885 </i>
    <i name="e_0_energy">     51.35548885 </i>
   </energy>
  </scstep>
  <scstep>
   <time name="total">    0.89    0.89</time>
   <energy>
    <i name="e_fr_energy">     34.10588355 </i>
    <i name="e_wo_entrp">     34.10588355 </i>
    <i name="e_0_energy">     34.10588355 </i>
   </energy>
  </scstep>
  <scstep>
   <time name="total">    0.90    0.90</time>
   <energy>
    <i name="e_fr_energy">     22.91485100 </i>
    <i name="e_wo_entrp">     22.91485100 </i>
    <i name="e_0_energy">     22.91485100 </i>
   </energy>
  </scstep>
  <scstep>
   <time name="total">    0.91    0.91</time>
   <energy>
    <i name="e_fr_energy">     14.04867857 </i>
    <i name="e_wo_entrp">     14.04867947 </i>
    <i name="e_0_energy">     14.04867902 </i>
   </energy>
  </scstep>
  <scstep>
   <time name="total">    0.90    0.90</time>
   <energy>
    <i name="e_fr_energy">     10.17560291 </i>
    <i name="e_wo_entrp">     10.17566395 </i>
    <i name="e_0_energy">     10.17563343 </i>
   </energy>
  </scstep>
  <scstep>
   <time name="total">    0.91    0.91</time>
   <energy>
    <i name="e_fr_energy">      6.43534937 </i>
    <i name="e_wo_entrp">      6.43612946 </i>
    <i name="e_0_energy">      6.43573941 </i>
   </energy>
  </scstep>
  <scstep>
   <time name="total">    0.90    0.90</time>
   <energy>
    <i name="e_fr_energy">      2.57479952 </i>
    <i name="e_wo_entrp">      2.57844207 </i>
    <i name="e_0_energy">      2.57662079 </i>
   </energy>
  </scstep>
  <scstep>
   <time name="total">    0.90    0.90</time>
   <energy>
    <i name="e_fr_energy">      0.40642767 </i>
    <i name="e_wo_entrp">      0.41707428 </i>
    <i name="e_0_energy">      0.41175098 </i>
   </energy>
  </scstep>
  <scstep>
   <time name="total">    0.90    0.90</time>
   <energy>
    <i name="e_fr_energy">     -0.02110112 </i>
    <i name="e_wo_entrp">      0.00004363 </i>
    <i name="e_0_energy">     -0.01052874 </i>
   </energy>
  </scstep>
  <scstep>
   <time name="total">    0.91    0.91</time>
   <energy>
    <i name="e_fr_energy">     -0.03712109 </i>
    <i name="e_wo_entrp">     -0.00746035 </i>
    <i name="e_0_energy">     -0.02229072 </i>
   </energy>
  </scstep>
  <scstep>
   <time name="total">    0.98    0.98</time>
   <energy>
    <i name="e_fr_energy">     -0.15764471 </i>
    <i name="e_wo_entrp">     -0.12311673 </i>
    <i name="e_0_energy">     -0.14038072 </i>
   </energy>
  </scstep>
  <scstep>
   <time name="total">    0.92    0.92</time>
   <energy>
    <i name="e_fr_energy">     -0.18330812 </i>
    <i name="e_wo_entrp">     -0.14645431 </i>
    <i name="e_0_energy">     -0.16488121 </i>
   </energy>
  </scstep>
  <scstep>
   <time name="total">    0.91    0.91</time>
   <energy>
    <i name="e_fr_energy">     -0.20014378 </i>
    <i name="e_wo_entrp">     -0.16228323 </i>
    <i name="e_0_energy">     -0.18121350 </i>
   </energy>
  </scstep>
  <scstep>
   <time name="total">    0.90    0.90</time>
   <energy>
    <i name="e_fr_energy">     -0.20901899 </i>
    <i name="e_wo_entrp">     -0.17074486 </i>
    <i name="e_0_energy">     -0.18988193 </i>
   </energy>
  </scstep>
  <scstep>
   <time name="total">    0.89    0.90</time>
   <energy>
    <i name="e_fr_energy">     -0.21340347 </i>
    <i name="e_wo_entrp">     -0.17496281 </i>
    <i name="e_0_energy">     -0.19418314 </i>
   </energy>
  </scstep>
  <scstep>
   <time name="total">    0.91    0.91</time>
   <energy>
    <i name="e_fr_energy">     -0.21621775 </i>
    <i name="e_wo_entrp">     -0.17770927 </i>
    <i name="e_0_energy">     -0.19696351 </i>
   </energy>
  </scstep>
  <scstep>
   <time name="total">    0.92    0.92</time>
   <energy>
    <i name="e_fr_energy">     -0.21809684 </i>
    <i name="e_wo_entrp">     -0.17955945 </i>
    <i name="e_0_energy">     -0.19882814 </i>
   </energy>
  </scstep>
  <scstep>
   <time name="total">    0.93    0.93</time>
   <energy>
    <i name="e_fr_energy">     -0.21947804 </i>
    <i name="e_wo_entrp">     -0.18092737 </i>
    <i name="e_0_energy">     -0.20020270 </i>
   </energy>
  </scstep>
  <scstep>
   <time name="total">    0.91    0.91</time>
   <energy>
    <i name="e_fr_energy">     -0.22060117 </i>
    <i name="e_wo_entrp">     -0.18204384 </i>
    <i name="e_0_energy">     -0.20132250 </i>
   </energy>
  </scstep>
  <scstep>
   <time name="total">    0.91    0.91</time>
   <energy>
    <i name="e_fr_energy">     -0.22153571 </i>
    <i name="e_wo_entrp">     -0.18297480 </i>
    <i name="e_0_energy">     -0.20225526 </i>
   </energy>
  </scstep>
  <scstep>
   <time name="total">    0.90    0.91</time>
   <energy>
    <i name="e_fr_energy">     -0.22231954 </i>
    <i name="e_wo_entrp">     -0.18375661 </i>
    <i name="e_0_energy">     -0.20303807 </i>
   </energy>
  </scstep>
  <scstep>
   <time name="total">    0.90    0.90</time>
   <energy>
    <i name="e_fr_energy">     -0.22297329 </i>
    <i name="e_wo_entrp">     -0.18440920 </i>
    <i name="e_0_energy">     -0.20369125 </i>
   </energy>
  </scstep>
  <scstep>
   <time name="total">    0.90    0.90</time>
   <energy>
    <i name="e_fr_energy">     -0.22350505 </i>
    <i name="e_wo_entrp">     -0.18494031 </i>
    <i name="e_0_energy">     -0.20422268 </i>
   </energy>
  </scstep>
  <scstep>
   <time name="total">    0.92    0.92</time>
   <energy>
    <i name="e_fr_energy">     -0.22393045 </i>
    <i name="e_wo_entrp">     -0.18536535 </i>
    <i name="e_0_energy">     -0.20464790 </i>
   </energy>
  </scstep>
  <scstep>
   <time name="total">    0.91    0.91</time>
   <energy>
    <i name="e_fr_energy">     -0.22426562 </i>
    <i name="e_wo_entrp">     -0.18570031 </i>
    <i name="e_0_energy">     -0.20498296 </i>
   </energy>
  </scstep>
  <scstep>
   <time name="total">    0.91    0.91</time>
   <energy>
    <i name="e_fr_energy">     -0.22452487 </i>
    <i name="e_wo_entrp">     -0.18595944 </i>
    <i name="e_0_energy">     -0.20524215 </i>
   </energy>
  </scstep>
  <scstep>
   <time name="total">    0.90    0.90</time>
   <energy>
    <i name="e_fr_energy">     -0.22471754 </i>
    <i name="e_wo_entrp">     -0.18615205 </i>
    <i name="e_0_energy">     -0.20543480 </i>
   </energy>
  </scstep>
  <scstep>
   <time name="total">    0.90    0.90</time>
   <energy>
    <i name="e_fr_energy">     -0.22485466 </i>
    <i name="e_wo_entrp">     -0.18628913 </i>
    <i name="e_0_energy">     -0.20557190 </i>
   </energy>
  </scstep>
  <scstep>
   <time name="total">    0.91    0.91</time>
   <energy>
    <i name="e_fr_energy">     -0.22494656 </i>
    <i name="e_wo_entrp">     -0.18638101 </i>
    <i name="e_0_energy">     -0.20566378 </i>
   </energy>
  </scstep>
  <scstep>
   <time name="total">    0.90    0.90</time>
   <energy>
    <i name="e_fr_energy">     -0.22500582 </i>
    <i name="e_wo_entrp">     -0.18644026 </i>
    <i name="e_0_energy">     -0.20572304 </i>
   </energy>
  </scstep>
  <scstep>
   <time name="total">    0.90    0.91</time>
   <energy>
    <i name="e_fr_energy">     -0.22504398 </i>
    <i name="e_wo_entrp">     -0.18647841 </i>
    <i name="e_0_energy">     -0.20576119 </i>
   </energy>
  </scstep>
  <scstep>
   <time name="total">    0.90    0.90</time>
   <energy>
    <i name="e_fr_energy">     -0.22507028 </i>
    <i name="e_wo_entrp">     -0.18650470 </i>
    <i name="e_0_energy">     -0.20578749 </i>
   </energy>
  </scstep>
  <scstep>
   <time name="total">    0.91    0.91</time>
   <energy>
    <i name="e_fr_energy">     -0.22508898 </i>
    <i name="e_wo_entrp">     -0.18652341 </i>
    <i name="e_0_energy">     -0.20580620 </i>
   </energy>
  </scstep>
  <scstep>
   <time name="total">    0.96    0.96</time>
   <energy>
    <i name="alphaZ">      1.66191399 </i>
    <i name="ewald">   -165.46874404 </i>
    <i name="hartreedc">   -366.57124319 </i>
    <i name="XCdc">     -6.15525263 </i>
    <i name="pawpsdc">    536.27171929 </i>
    <i name="pawaedc">   -505.42312107 </i>
    <i name="eentropy">     -0.03856558 </i>
    <i name="bandstr">   -198.34866494 </i>
    <i name="atom">    703.84685599 </i>
    <i name="e_fr_energy">     -0.22510219 </i>
    <i name="e_wo_entrp">     -0.18653661 </i>
    <i name="e_0_energy">     -0.20581940 </i>
   </energy>
  </scstep>
  <structure>
   <crystal>
    <varray name="basis" >
     <v>      10.00000000       0.00000000       0.00000000 </v>
     <v>       0.00000000      10.00000000       0.00000000 </v>
     <v>       0.00000000       0.00000000      10.00000000 </v>
    </varray>
    <i name="volume">   1000.00000000 </i>
    <varray name="rec_basis" >
     <v>       0.10000000       0.00000000       0.00000000 </v>
     <v>       0.00000000       0.10000000       0.00000000 </v>
     <v>       0.00000000       0.00000000       0.10000000 </v>
    </varray>
   </crystal>
   <varray name="positions" >
    <v>       0.50000000       0.50000000       0.50000000 </v>
   </varray>
  </structure>
  <varray name="forces" >
   <v>       0.00000000       0.00000000       0.00000000 </v>
  </varray>
  <varray name="stress" >
   <v>      -0.07619769      -0.00000000      -0.00000000 </v>
   <v>      -0.00000000      -0.07619769       0.00000000 </v>
   <v>       0.00000000       0.00000000      -0.07619769 </v>
  </varray>
  <energy>
   <i name="e_fr_energy">     -0.22510219 </i>
   <i name="e_wo_entrp">     -0.20581940 </i>
   <i name="e_0_energy">     -0.03856558 </i>
  </energy>
  <time name="totalsc">   57.27   57.43</time>
  <eigenvalues>
   <array>
    <dimension dim="1">band</dimension>
    <dimension dim="2">kpoint</dimension>
    <dimension dim="3">spin</dimension>
    <field>eigene</field>
    <field>occ</field>
    <set>
     <set comment="spin 1">
      <set comment="kpoint 1">
       <r>  -31.4838    1.0000 </r>
       <r>  -31.4838    1.0000 </r>
       <r>  -31.4838    1.0000 </r>
       <r>   -4.5678    1.0000 </r>
       <r>   -1.7728    0.3335 </r>
       <r>   -1.7728    0.3334 </r>
       <r>   -1.7728    0.3332 </r>
       <r>   -1.5102    0.0000 </r>
       <r>   -1.5102    0.0000 </r>
       <r>   -1.0935    0.0000 </r>
       <r>   -1.0935    0.0000 </r>
       <r>   -1.0935    0.0000 </r>
       <r>   -0.3082    0.0000 </r>
       <r>    0.8873    0.0000 </r>
       <r>    0.8873    0.0000 </r>
       <r>    1.5067    0.0000 </r>
       <r>    1.5068    0.0000 </r>
       <r>    1.5071    0.0000 </r>
       <r>    1.7354    0.0000 </r>
       <r>    2.0767    0.0000 </r>
       <r>    2.0767    0.0000 </r>
       <r>    2.0767    0.0000 </r>
       <r>    2.1699    0.0000 </r>
       <r>    2.1702    0.0000 </r>
       <r>    2.1706    0.0000 </r>
       <r>    2.4643    0.0000 </r>
       <r>    2.4643    0.0000 </r>
       <r>    3.2967    0.0000 </r>
       <r>    3.5773    0.0000 </r>
       <r>    3.6084    0.0000 </r>
       <r>    3.7285    0.0000 </r>
       <r>    3.7315    0.0000 </r>
       <r>    3.7390    0.0000 </r>
       <r>    3.7786    0.0000 </r>
       <r>    4.3587    0.0000 </r>
       <r>    4.5880    0.0000 </r>
      </set>
     </set>
     <set comment="spin 2">
      <set comment="kpoint 1">
       <r>  -31.1386    1.0000 </r>
       <r>  -31.1386    1.0000 </r>
       <r>  -31.1386    1.0000 </r>
       <r>   -4.1409    1.0000 </r>
       <r>   -1.3062    0.0000 </r>
       <r>   -1.3062    0.0000 </r>
       <r>   -1.1357    0.0000 </r>
       <r>   -1.1357    0.0000 </r>
       <r>   -1.1356    0.0000 </r>
       <r>   -0.8047    0.0000 </r>
       <r>   -0.8047    0.0000 </r>
       <r>   -0.8047    0.0000 </r>
       <r>   -0.2170    0.0000 </r>
       <r>    0.9473    0.0000 </r>
       <r>    0.9473    0.0000 </r>
       <r>    1.6066    0.0000 </r>
       <r>    1.6066    0.0000 </r>
       <r>    1.6067    0.0000 </r>
       <r>    1.7834    0.0000 </r>
       <r>    2.2562    0.0000 </r>
       <r>    2.2562    0.0000 </r>
       <r>    2.2568    0.0000 </r>
       <r>    2.2771    0.0000 </r>
       <r>    2.2772    0.0000 </r>
       <r>    2.2772    0.0000 </r>
       <r>    2.4855    0.0000 </r>
       <r>    2.4856    0.0000 </r>
       <r>    3.4050    0.0000 </r>
       <r>    3.6731    0.0000 </r>
       <r>    3.7693    0.0000 </r>
       <r>    3.7804    0.0000 </r>
       <r>    3.8348    0.0000 </r>
       <r>    3.8440    0.0000 </r>
       <r>    3.8463    0.0000 </r>
       <r>    4.7376    0.0000 </r>
       <r>    4.8097    0.0000 </r>
      </set>
     </set>
    </set>
   </array>
  </eigenvalues>
  <separator name="orbital magnetization" >
   <v name="MAGDIPOLOUT">      0.00000000      0.00000000      0.00000000</v>
  </separator>
  <dos>
   <i name="efermi">     -1.78798471 </i>
   <total>
    <array>
     <dimension dim="1">gridpoints</dimension>
     <dimension dim="2">spin</dimension>
     <field>energy</field>
     <field>total</field>
     <field>integrated</field>
     <set>
      <set comment="spin 1">
       <r>   -33.2985     0.0000     0.0000 </r>
       <r>   -33.1654     0.0000     0.0000 </r>
       <r>   -33.0323     0.0000     0.0000 </r>
       <r>   -32.8993     0.0000     0.0000 </r>
       <r>   -32.7662     0.0000     0.0000 </r>
       <r>   -32.6331     0.0000     0.0000 </r>
       <r>   -32.5000     0.0000     0.0000 </r>
       <r>   -32.3670     0.0000     0.0000 </r>
       <r>   -32.2339     0.0000     0.0000 </r>
       <r>   -32.1008     0.0000     0.0000 </r>
       <r>   -31.9677     0.0000     0.0000 </r>
       <r>   -31.8347     0.0000     0.0000 </r>
       <r>   -31.7016     0.0000     0.0000 </r>
       <r>   -31.5685     0.1872     0.0249 </r>
       <r>   -31.4354    20.4276     2.7433 </r>
       <r>   -31.3024     1.9287     3.0000 </r>
       <r>   -31.1693     0.0000     3.0000 </r>
       <r>   -31.0362     0.0000     3.0000 </r>
       <r>   -30.9031     0.0000     3.0000 </r>
       <r>   -30.7701     0.0000     3.0000 </r>
       <r>   -30.6370     0.0000     3.0000 </r>
       <r>   -30.5039     0.0000     3.0000 </r>
       <r>   -30.3708     0.0000     3.0000 </r>
       <r>   -30.2377     0.0000     3.0000 </r>
       <r>   -30.1047     0.0000     3.0000 </r>
       <r>   -29.9716     0.0000     3.0000 </r>
       <r>   -29.8385     0.0000     3.0000 </r>
       <r>   -29.7054     0.0000     3.0000 </r>
       <r>   -29.5724     0.0000     3.0000 </r>
       <r>   -29.4393     0.0000     3.0000 </r>
       <r>   -29.3062     0.0000     3.0000 </r>
       <r>   -29.1731     0.0000     3.0000 </r>
       <r>   -29.0401     0.0000     3.0000 </r>
       <r>   -28.9070     0.0000     3.0000 </r>
       <r>   -28.7739     0.0000     3.0000 </r>
       <r>   -28.6408     0.0000     3.0000 </r>
       <r>   -28.5078     0.0000     3.0000 </r>
       <r>   -28.3747     0.0000     3.0000 </r>
       <r>   -28.2416     0.0000     3.0000 </r>
       <r>   -28.1085     0.0000     3.0000 </r>
       <r>   -27.9755     0.0000     3.0000 </r>
       <r>   -27.8424     0.0000     3.0000 </r>
       <r>   -27.7093     0.0000     3.0000 </r>
       <r>   -27.5762     0.0000     3.0000 </r>
       <r>   -27.4431     0.0000     3.0000 </r>
       <r>   -27.3101     0.0000     3.0000 </r>
       <r>   -27.1770     0.0000     3.0000 </r>
       <r>   -27.0439     0.0000     3.0000 </r>
       <r>   -26.9108     0.0000     3.0000 </r>
       <r>   -26.7778     0.0000     3.0000 </r>
       <r>   -26.6447     0.0000     3.0000 </r>
       <r>   -26.5116     0.0000     3.0000 </r>
       <r>   -26.3785     0.0000     3.0000 </r>
       <r>   -26.2455     0.0000     3.0000 </r>
       <r>   -26.1124     0.0000     3.0000 </r>
       <r>   -25.9793     0.0000     3.0000 </r>
       <r>   -25.8462     0.0000     3.0000 </r>
       <r>   -25.7132     0.0000     3.0000 </r>
       <r>   -25.5801     0.0000     3.0000 </r>
       <r>   -25.4470     0.0000     3.0000 </r>
       <r>   -25.3139     0.0000     3.0000 </r>
       <r>   -25.1809     0.0000     3.0000 </r>
       <r>   -25.0478     0.0000     3.0000 </r>
       <r>   -24.9147     0.0000     3.0000 </r>
       <r>   -24.7816     0.0000     3.0000 </r>
       <r>   -24.6485     0.0000     3.0000 </r>
       <r>   -24.5155     0.0000     3.0000 </r>
       <r>   -24.3824     0.0000     3.0000 </r>
       <r>   -24.2493     0.0000     3.0000 </r>
       <r>   -24.1162     0.0000     3.0000 </r>
       <r>   -23.9832     0.0000     3.0000 </r>
       <r>   -23.8501     0.0000     3.0000 </r>
       <r>   -23.7170     0.0000     3.0000 </r>
       <r>   -23.5839     0.0000     3.0000 </r>
       <r>   -23.4509     0.0000     3.0000 </r>
       <r>   -23.3178     0.0000     3.0000 </r>
       <r>   -23.1847     0.0000     3.0000 </r>
       <r>   -23.0516     0.0000     3.0000 </r>
       <r>   -22.9186     0.0000     3.0000 </r>
       <r>   -22.7855     0.0000     3.0000 </r>
       <r>   -22.6524     0.0000     3.0000 </r>
       <r>   -22.5193     0.0000     3.0000 </r>
       <r>   -22.3863     0.0000     3.0000 </r>
       <r>   -22.2532     0.0000     3.0000 </r>
       <r>   -22.1201     0.0000     3.0000 </r>
       <r>   -21.9870     0.0000     3.0000 </r>
       <r>   -21.8539     0.0000     3.0000 </r>
       <r>   -21.7209     0.0000     3.0000 </r>
       <r>   -21.5878     0.0000     3.0000 </r>
       <r>   -21.4547     0.0000     3.0000 </r>
       <r>   -21.3216     0.0000     3.0000 </r>
       <r>   -21.1886     0.0000     3.0000 </r>
       <r>   -21.0555     0.0000     3.0000 </r>
       <r>   -20.9224     0.0000     3.0000 </r>
       <r>   -20.7893     0.0000     3.0000 </r>
       <r>   -20.6563     0.0000     3.0000 </r>
       <r>   -20.5232     0.0000     3.0000 </r>
       <r>   -20.3901     0.0000     3.0000 </r>
       <r>   -20.2570     0.0000     3.0000 </r>
       <r>   -20.1240     0.0000     3.0000 </r>
       <r>   -19.9909     0.0000     3.0000 </r>
       <r>   -19.8578     0.0000     3.0000 </r>
       <r>   -19.7247     0.0000     3.0000 </r>
       <r>   -19.5917     0.0000     3.0000 </r>
       <r>   -19.4586     0.0000     3.0000 </r>
       <r>   -19.3255     0.0000     3.0000 </r>
       <r>   -19.1924     0.0000     3.0000 </r>
       <r>   -19.0594     0.0000     3.0000 </r>
       <r>   -18.9263     0.0000     3.0000 </r>
       <r>   -18.7932     0.0000     3.0000 </r>
       <r>   -18.6601     0.0000     3.0000 </r>
       <r>   -18.5270     0.0000     3.0000 </r>
       <r>   -18.3940     0.0000     3.0000 </r>
       <r>   -18.2609     0.0000     3.0000 </r>
       <r>   -18.1278     0.0000     3.0000 </r>
       <r>   -17.9947     0.0000     3.0000 </r>
       <r>   -17.8617     0.0000     3.0000 </r>
       <r>   -17.7286     0.0000     3.0000 </r>
       <r>   -17.5955     0.0000     3.0000 </r>
       <r>   -17.4624     0.0000     3.0000 </r>
       <r>   -17.3294     0.0000     3.0000 </r>
       <r>   -17.1963     0.0000     3.0000 </r>
       <r>   -17.0632     0.0000     3.0000 </r>
       <r>   -16.9301     0.0000     3.0000 </r>
       <r>   -16.7971     0.0000     3.0000 </r>
       <r>   -16.6640     0.0000     3.0000 </r>
       <r>   -16.5309     0.0000     3.0000 </r>
       <r>   -16.3978     0.0000     3.0000 </r>
       <r>   -16.2648     0.0000     3.0000 </r>
       <r>   -16.1317     0.0000     3.0000 </r>
       <r>   -15.9986     0.0000     3.0000 </r>
       <r>   -15.8655     0.0000     3.0000 </r>
       <r>   -15.7324     0.0000     3.0000 </r>
       <r>   -15.5994     0.0000     3.0000 </r>
       <r>   -15.4663     0.0000     3.0000 </r>
       <r>   -15.3332     0.0000     3.0000 </r>
       <r>   -15.2001     0.0000     3.0000 </r>
       <r>   -15.0671     0.0000     3.0000 </r>
       <r>   -14.9340     0.0000     3.0000 </r>
       <r>   -14.8009     0.0000     3.0000 </r>
       <r>   -14.6678     0.0000     3.0000 </r>
       <r>   -14.5348     0.0000     3.0000 </r>
       <r>   -14.4017     0.0000     3.0000 </r>
       <r>   -14.2686     0.0000     3.0000 </r>
       <r>   -14.1355     0.0000     3.0000 </r>
       <r>   -14.0025     0.0000     3.0000 </r>
       <r>   -13.8694     0.0000     3.0000 </r>
       <r>   -13.7363     0.0000     3.0000 </r>
       <r>   -13.6032     0.0000     3.0000 </r>
       <r>   -13.4702     0.0000     3.0000 </r>
       <r>   -13.3371     0.0000     3.0000 </r>
       <r>   -13.2040     0.0000     3.0000 </r>
       <r>   -13.0709     0.0000     3.0000 </r>
       <r>   -12.9378     0.0000     3.0000 </r>
       <r>   -12.8048     0.0000     3.0000 </r>
       <r>   -12.6717     0.0000     3.0000 </r>
       <r>   -12.5386     0.0000     3.0000 </r>
       <r>   -12.4055     0.0000     3.0000 </r>
       <r>   -12.2725     0.0000     3.0000 </r>
       <r>   -12.1394     0.0000     3.0000 </r>
       <r>   -12.0063     0.0000     3.0000 </r>
       <r>   -11.8732     0.0000     3.0000 </r>
       <r>   -11.7402     0.0000     3.0000 </r>
       <r>   -11.6071     0.0000     3.0000 </r>
       <r>   -11.4740     0.0000     3.0000 </r>
       <r>   -11.3409     0.0000     3.0000 </r>
       <r>   -11.2079     0.0000     3.0000 </r>
       <r>   -11.0748     0.0000     3.0000 </r>
       <r>   -10.9417     0.0000     3.0000 </r>
       <r>   -10.8086     0.0000     3.0000 </r>
       <r>   -10.6756     0.0000     3.0000 </r>
       <r>   -10.5425     0.0000     3.0000 </r>
       <r>   -10.4094     0.0000     3.0000 </r>
       <r>   -10.2763     0.0000     3.0000 </r>
       <r>   -10.1433     0.0000     3.0000 </r>
       <r>   -10.0102     0.0000     3.0000 </r>
       <r>    -9.8771     0.0000     3.0000 </r>
       <r>    -9.7440     0.0000     3.0000 </r>
       <r>    -9.6109     0.0000     3.0000 </r>
       <r>    -9.4779     0.0000     3.0000 </r>
       <r>    -9.3448     0.0000     3.0000 </r>
       <r>    -9.2117     0.0000     3.0000 </r>
       <r>    -9.0786     0.0000     3.0000 </r>
       <r>    -8.9456     0.0000     3.0000 </r>
       <r>    -8.8125     0.0000     3.0000 </r>
       <r>    -8.6794     0.0000     3.0000 </r>
       <r>    -8.5463     0.0000     3.0000 </r>
       <r>    -8.4133     0.0000     3.0000 </r>
       <r>    -8.2802     0.0000     3.0000 </r>
       <r>    -8.1471     0.0000     3.0000 </r>
       <r>    -8.0140     0.0000     3.0000 </r>
       <r>    -7.8810     0.0000     3.0000 </r>
       <r>    -7.7479     0.0000     3.0000 </r>
       <r>    -7.6148     0.0000     3.0000 </r>
       <r>    -7.4817     0.0000     3.0000 </r>
       <r>    -7.3487     0.0000     3.0000 </r>
       <r>    -7.2156     0.0000     3.0000 </r>
       <r>    -7.0825     0.0000     3.0000 </r>
       <r>    -6.9494     0.0000     3.0000 </r>
       <r>    -6.8163     0.0000     3.0000 </r>
       <r>    -6.6833     0.0000     3.0000 </r>
       <r>    -6.5502     0.0000     3.0000 </r>
       <r>    -6.4171     0.0000     3.0000 </r>
       <r>    -6.2840     0.0000     3.0000 </r>
       <r>    -6.1510     0.0000     3.0000 </r>
       <r>    -6.0179     0.0000     3.0000 </r>
       <r>    -5.8848     0.0000     3.0000 </r>
       <r>    -5.7517     0.0000     3.0000 </r>
       <r>    -5.6187     0.0000     3.0000 </r>
       <r>    -5.4856     0.0000     3.0000 </r>
       <r>    -5.3525     0.0000     3.0000 </r>
       <r>    -5.2194     0.0000     3.0000 </r>
       <r>    -5.0864     0.0000     3.0000 </r>
       <r>    -4.9533     0.0000     3.0000 </r>
       <r>    -4.8202     0.0000     3.0000 </r>
       <r>    -4.6871     0.0028     3.0004 </r>
       <r>    -4.5541     4.8945     3.6517 </r>
       <r>    -4.4210     2.6170     4.0000 </r>
       <r>    -4.2879     0.0001     4.0000 </r>
       <r>    -4.1548     0.0000     4.0000 </r>
       <r>    -4.0217     0.0000     4.0000 </r>
       <r>    -3.8887     0.0000     4.0000 </r>
       <r>    -3.7556     0.0000     4.0000 </r>
       <r>    -3.6225     0.0000     4.0000 </r>
       <r>    -3.4894     0.0000     4.0000 </r>
       <r>    -3.3564     0.0000     4.0000 </r>
       <r>    -3.2233     0.0000     4.0000 </r>
       <r>    -3.0902     0.0000     4.0000 </r>
       <r>    -2.9571     0.0000     4.0000 </r>
       <r>    -2.8241     0.0000     4.0000 </r>
       <r>    -2.6910     0.0000     4.0000 </r>
       <r>    -2.5579     0.0000     4.0000 </r>
       <r>    -2.4248     0.0000     4.0000 </r>
       <r>    -2.2918     0.0000     4.0000 </r>
       <r>    -2.1587     0.0000     4.0000 </r>
       <r>    -2.0256     0.0000     4.0000 </r>
       <r>    -1.8925     0.0079     4.0011 </r>
       <r>    -1.7595    14.5693     5.9399 </r>
       <r>    -1.6264     7.9735     7.0010 </r>
       <r>    -1.4933    10.2701     8.3677 </r>
       <r>    -1.3602     4.7515     9.0000 </r>
       <r>    -1.2271     0.0019     9.0002 </r>
       <r>    -1.0941    11.1140    10.4792 </r>
       <r>    -0.9610    11.4257    11.9997 </r>
       <r>    -0.8279     0.0020    12.0000 </r>
       <r>    -0.6948     0.0000    12.0000 </r>
       <r>    -0.5618     0.0000    12.0000 </r>
       <r>    -0.4287     0.0025    12.0003 </r>
       <r>    -0.2956     4.8036    12.6396 </r>
       <r>    -0.1625     2.7083    13.0000 </r>
       <r>    -0.0295     0.0001    13.0000 </r>
       <r>     0.1036     0.0000    13.0000 </r>
       <r>     0.2367     0.0000    13.0000 </r>
       <r>     0.3698     0.0000    13.0000 </r>
       <r>     0.5028     0.0000    13.0000 </r>
       <r>     0.6359     0.0000    13.0000 </r>
       <r>     0.7690     0.0062    13.0008 </r>
       <r>     0.9021     9.9408    14.3237 </r>
       <r>     1.0351     5.0819    15.0000 </r>
       <r>     1.1682     0.0002    15.0000 </r>
       <r>     1.3013     0.0000    15.0000 </r>
       <r>     1.4344     0.4552    15.0606 </r>
       <r>     1.5674    21.1132    17.8702 </r>
       <r>     1.7005     2.1937    18.1622 </r>
       <r>     1.8336     6.2754    18.9973 </r>
       <r>     1.9667     0.0415    19.0028 </r>
       <r>     2.0998    17.2473    21.2980 </r>
       <r>     2.2328    26.9537    24.8849 </r>
       <r>     2.3659     0.9054    25.0054 </r>
       <r>     2.4990    12.5333    26.6733 </r>
       <r>     2.6321     2.4553    27.0000 </r>
       <r>     2.7651     0.0000    27.0000 </r>
       <r>     2.8982     0.0000    27.0000 </r>
       <r>     3.0313     0.0000    27.0000 </r>
       <r>     3.1644     0.0007    27.0001 </r>
       <r>     3.2974     3.8173    27.5081 </r>
       <r>     3.4305     3.6961    27.9999 </r>
       <r>     3.5636     3.3913    28.4512 </r>
       <r>     3.6967    15.1395    30.4660 </r>
       <r>     3.8297    25.9266    33.9162 </r>
       <r>     3.9628     0.6300    34.0000 </r>
       <r>     4.0959     0.0000    34.0000 </r>
       <r>     4.2290     0.0009    34.0001 </r>
       <r>     4.3620     4.0412    34.5379 </r>
       <r>     4.4951     3.5043    35.0042 </r>
       <r>     4.6282     6.5218    35.8721 </r>
       <r>     4.7613     0.9608    36.0000 </r>
       <r>     4.8944     0.0000    36.0000 </r>
       <r>     5.0274     0.0000    36.0000 </r>
       <r>     5.1605     0.0000    36.0000 </r>
       <r>     5.2936     0.0000    36.0000 </r>
       <r>     5.4267     0.0000    36.0000 </r>
       <r>     5.5597     0.0000    36.0000 </r>
       <r>     5.6928     0.0000    36.0000 </r>
       <r>     5.8259     0.0000    36.0000 </r>
       <r>     5.9590     0.0000    36.0000 </r>
       <r>     6.0920     0.0000    36.0000 </r>
       <r>     6.2251     0.0000    36.0000 </r>
       <r>     6.3582     0.0000    36.0000 </r>
       <r>     6.4913     0.0000    36.0000 </r>
       <r>     6.6243     0.0000    36.0000 </r>
      </set>
      <set comment="spin 2">
       <r>   -33.2985     0.0000     0.0000 </r>
       <r>   -33.1654     0.0000     0.0000 </r>
       <r>   -33.0323     0.0000     0.0000 </r>
       <r>   -32.8993     0.0000     0.0000 </r>
       <r>   -32.7662     0.0000     0.0000 </r>
       <r>   -32.6331     0.0000     0.0000 </r>
       <r>   -32.5000     0.0000     0.0000 </r>
       <r>   -32.3670     0.0000     0.0000 </r>
       <r>   -32.2339     0.0000     0.0000 </r>
       <r>   -32.1008     0.0000     0.0000 </r>
       <r>   -31.9677     0.0000     0.0000 </r>
       <r>   -31.8347     0.0000     0.0000 </r>
       <r>   -31.7016     0.0000     0.0000 </r>
       <r>   -31.5685     0.0000     0.0000 </r>
       <r>   -31.4354     0.0000     0.0000 </r>
       <r>   -31.3024     0.0000     0.0000 </r>
       <r>   -31.1693     4.3387     0.5774 </r>
       <r>   -31.0362    18.1620     2.9943 </r>
       <r>   -30.9031     0.0427     3.0000 </r>
       <r>   -30.7701     0.0000     3.0000 </r>
       <r>   -30.6370     0.0000     3.0000 </r>
       <r>   -30.5039     0.0000     3.0000 </r>
       <r>   -30.3708     0.0000     3.0000 </r>
       <r>   -30.2377     0.0000     3.0000 </r>
       <r>   -30.1047     0.0000     3.0000 </r>
       <r>   -29.9716     0.0000     3.0000 </r>
       <r>   -29.8385     0.0000     3.0000 </r>
       <r>   -29.7054     0.0000     3.0000 </r>
       <r>   -29.5724     0.0000     3.0000 </r>
       <r>   -29.4393     0.0000     3.0000 </r>
       <r>   -29.3062     0.0000     3.0000 </r>
       <r>   -29.1731     0.0000     3.0000 </r>
       <r>   -29.0401     0.0000     3.0000 </r>
       <r>   -28.9070     0.0000     3.0000 </r>
       <r>   -28.7739     0.0000     3.0000 </r>
       <r>   -28.6408     0.0000     3.0000 </r>
       <r>   -28.5078     0.0000     3.0000 </r>
       <r>   -28.3747     0.0000     3.0000 </r>
       <r>   -28.2416     0.0000     3.0000 </r>
       <r>   -28.1085     0.0000     3.0000 </r>
       <r>   -27.9755     0.0000     3.0000 </r>
       <r>   -27.8424     0.0000     3.0000 </r>
       <r>   -27.7093     0.0000     3.0000 </r>
       <r>   -27.5762     0.0000     3.0000 </r>
       <r>   -27.4431     0.0000     3.0000 </r>
       <r>   -27.3101     0.0000     3.0000 </r>
       <r>   -27.1770     0.0000     3.0000 </r>
       <r>   -27.0439     0.0000     3.0000 </r>
       <r>   -26.9108     0.0000     3.0000 </r>
       <r>   -26.7778     0.0000     3.0000 </r>
       <r>   -26.6447     0.0000     3.0000 </r>
       <r>   -26.5116     0.0000     3.0000 </r>
       <r>   -26.3785     0.0000     3.0000 </r>
       <r>   -26.2455     0.0000     3.0000 </r>
       <r>   -26.1124     0.0000     3.0000 </r>
       <r>   -25.9793     0.0000     3.0000 </r>
       <r>   -25.8462     0.0000     3.0000 </r>
       <r>   -25.7132     0.0000     3.0000 </r>
       <r>   -25.5801     0.0000     3.0000 </r>
       <r>   -25.4470     0.0000     3.0000 </r>
       <r>   -25.3139     0.0000     3.0000 </r>
       <r>   -25.1809     0.0000     3.0000 </r>
       <r>   -25.0478     0.0000     3.0000 </r>
       <r>   -24.9147     0.0000     3.0000 </r>
       <r>   -24.7816     0.0000     3.0000 </r>
       <r>   -24.6485     0.0000     3.0000 </r>
       <r>   -24.5155     0.0000     3.0000 </r>
       <r>   -24.3824     0.0000     3.0000 </r>
       <r>   -24.2493     0.0000     3.0000 </r>
       <r>   -24.1162     0.0000     3.0000 </r>
       <r>   -23.9832     0.0000     3.0000 </r>
       <r>   -23.8501     0.0000     3.0000 </r>
       <r>   -23.7170     0.0000     3.0000 </r>
       <r>   -23.5839     0.0000     3.0000 </r>
       <r>   -23.4509     0.0000     3.0000 </r>
       <r>   -23.3178     0.0000     3.0000 </r>
       <r>   -23.1847     0.0000     3.0000 </r>
       <r>   -23.0516     0.0000     3.0000 </r>
       <r>   -22.9186     0.0000     3.0000 </r>
       <r>   -22.7855     0.0000     3.0000 </r>
       <r>   -22.6524     0.0000     3.0000 </r>
       <r>   -22.5193     0.0000     3.0000 </r>
       <r>   -22.3863     0.0000     3.0000 </r>
       <r>   -22.2532     0.0000     3.0000 </r>
       <r>   -22.1201     0.0000     3.0000 </r>
       <r>   -21.9870     0.0000     3.0000 </r>
       <r>   -21.8539     0.0000     3.0000 </r>
       <r>   -21.7209     0.0000     3.0000 </r>
       <r>   -21.5878     0.0000     3.0000 </r>
       <r>   -21.4547     0.0000     3.0000 </r>
       <r>   -21.3216     0.0000     3.0000 </r>
       <r>   -21.1886     0.0000     3.0000 </r>
       <r>   -21.0555     0.0000     3.0000 </r>
       <r>   -20.9224     0.0000     3.0000 </r>
       <r>   -20.7893     0.0000     3.0000 </r>
       <r>   -20.6563     0.0000     3.0000 </r>
       <r>   -20.5232     0.0000     3.0000 </r>
       <r>   -20.3901     0.0000     3.0000 </r>
       <r>   -20.2570     0.0000     3.0000 </r>
       <r>   -20.1240     0.0000     3.0000 </r>
       <r>   -19.9909     0.0000     3.0000 </r>
       <r>   -19.8578     0.0000     3.0000 </r>
       <r>   -19.7247     0.0000     3.0000 </r>
       <r>   -19.5917     0.0000     3.0000 </r>
       <r>   -19.4586     0.0000     3.0000 </r>
       <r>   -19.3255     0.0000     3.0000 </r>
       <r>   -19.1924     0.0000     3.0000 </r>
       <r>   -19.0594     0.0000     3.0000 </r>
       <r>   -18.9263     0.0000     3.0000 </r>
       <r>   -18.7932     0.0000     3.0000 </r>
       <r>   -18.6601     0.0000     3.0000 </r>
       <r>   -18.5270     0.0000     3.0000 </r>
       <r>   -18.3940     0.0000     3.0000 </r>
       <r>   -18.2609     0.0000     3.0000 </r>
       <r>   -18.1278     0.0000     3.0000 </r>
       <r>   -17.9947     0.0000     3.0000 </r>
       <r>   -17.8617     0.0000     3.0000 </r>
       <r>   -17.7286     0.0000     3.0000 </r>
       <r>   -17.5955     0.0000     3.0000 </r>
       <r>   -17.4624     0.0000     3.0000 </r>
       <r>   -17.3294     0.0000     3.0000 </r>
       <r>   -17.1963     0.0000     3.0000 </r>
       <r>   -17.0632     0.0000     3.0000 </r>
       <r>   -16.9301     0.0000     3.0000 </r>
       <r>   -16.7971     0.0000     3.0000 </r>
       <r>   -16.6640     0.0000     3.0000 </r>
       <r>   -16.5309     0.0000     3.0000 </r>
       <r>   -16.3978     0.0000     3.0000 </r>
       <r>   -16.2648     0.0000     3.0000 </r>
       <r>   -16.1317     0.0000     3.0000 </r>
       <r>   -15.9986     0.0000     3.0000 </r>
       <r>   -15.8655     0.0000     3.0000 </r>
       <r>   -15.7324     0.0000     3.0000 </r>
       <r>   -15.5994     0.0000     3.0000 </r>
       <r>   -15.4663     0.0000     3.0000 </r>
       <r>   -15.3332     0.0000     3.0000 </r>
       <r>   -15.2001     0.0000     3.0000 </r>
       <r>   -15.0671     0.0000     3.0000 </r>
       <r>   -14.9340     0.0000     3.0000 </r>
       <r>   -14.8009     0.0000     3.0000 </r>
       <r>   -14.6678     0.0000     3.0000 </r>
       <r>   -14.5348     0.0000     3.0000 </r>
       <r>   -14.4017     0.0000     3.0000 </r>
       <r>   -14.2686     0.0000     3.0000 </r>
       <r>   -14.1355     0.0000     3.0000 </r>
       <r>   -14.0025     0.0000     3.0000 </r>
       <r>   -13.8694     0.0000     3.0000 </r>
       <r>   -13.7363     0.0000     3.0000 </r>
       <r>   -13.6032     0.0000     3.0000 </r>
       <r>   -13.4702     0.0000     3.0000 </r>
       <r>   -13.3371     0.0000     3.0000 </r>
       <r>   -13.2040     0.0000     3.0000 </r>
       <r>   -13.0709     0.0000     3.0000 </r>
       <r>   -12.9378     0.0000     3.0000 </r>
       <r>   -12.8048     0.0000     3.0000 </r>
       <r>   -12.6717     0.0000     3.0000 </r>
       <r>   -12.5386     0.0000     3.0000 </r>
       <r>   -12.4055     0.0000     3.0000 </r>
       <r>   -12.2725     0.0000     3.0000 </r>
       <r>   -12.1394     0.0000     3.0000 </r>
       <r>   -12.0063     0.0000     3.0000 </r>
       <r>   -11.8732     0.0000     3.0000 </r>
       <r>   -11.7402     0.0000     3.0000 </r>
       <r>   -11.6071     0.0000     3.0000 </r>
       <r>   -11.4740     0.0000     3.0000 </r>
       <r>   -11.3409     0.0000     3.0000 </r>
       <r>   -11.2079     0.0000     3.0000 </r>
       <r>   -11.0748     0.0000     3.0000 </r>
       <r>   -10.9417     0.0000     3.0000 </r>
       <r>   -10.8086     0.0000     3.0000 </r>
       <r>   -10.6756     0.0000     3.0000 </r>
       <r>   -10.5425     0.0000     3.0000 </r>
       <r>   -10.4094     0.0000     3.0000 </r>
       <r>   -10.2763     0.0000     3.0000 </r>
       <r>   -10.1433     0.0000     3.0000 </r>
       <r>   -10.0102     0.0000     3.0000 </r>
       <r>    -9.8771     0.0000     3.0000 </r>
       <r>    -9.7440     0.0000     3.0000 </r>
       <r>    -9.6109     0.0000     3.0000 </r>
       <r>    -9.4779     0.0000     3.0000 </r>
       <r>    -9.3448     0.0000     3.0000 </r>
       <r>    -9.2117     0.0000     3.0000 </r>
       <r>    -9.0786     0.0000     3.0000 </r>
       <r>    -8.9456     0.0000     3.0000 </r>
       <r>    -8.8125     0.0000     3.0000 </r>
       <r>    -8.6794     0.0000     3.0000 </r>
       <r>    -8.5463     0.0000     3.0000 </r>
       <r>    -8.4133     0.0000     3.0000 </r>
       <r>    -8.2802     0.0000     3.0000 </r>
       <r>    -8.1471     0.0000     3.0000 </r>
       <r>    -8.0140     0.0000     3.0000 </r>
       <r>    -7.8810     0.0000     3.0000 </r>
       <r>    -7.7479     0.0000     3.0000 </r>
       <r>    -7.6148     0.0000     3.0000 </r>
       <r>    -7.4817     0.0000     3.0000 </r>
       <r>    -7.3487     0.0000     3.0000 </r>
       <r>    -7.2156     0.0000     3.0000 </r>
       <r>    -7.0825     0.0000     3.0000 </r>
       <r>    -6.9494     0.0000     3.0000 </r>
       <r>    -6.8163     0.0000     3.0000 </r>
       <r>    -6.6833     0.0000     3.0000 </r>
       <r>    -6.5502     0.0000     3.0000 </r>
       <r>    -6.4171     0.0000     3.0000 </r>
       <r>    -6.2840     0.0000     3.0000 </r>
       <r>    -6.1510     0.0000     3.0000 </r>
       <r>    -6.0179     0.0000     3.0000 </r>
       <r>    -5.8848     0.0000     3.0000 </r>
       <r>    -5.7517     0.0000     3.0000 </r>
       <r>    -5.6187     0.0000     3.0000 </r>
       <r>    -5.4856     0.0000     3.0000 </r>
       <r>    -5.3525     0.0000     3.0000 </r>
       <r>    -5.2194     0.0000     3.0000 </r>
       <r>    -5.0864     0.0000     3.0000 </r>
       <r>    -4.9533     0.0000     3.0000 </r>
       <r>    -4.8202     0.0000     3.0000 </r>
       <r>    -4.6871     0.0000     3.0000 </r>
       <r>    -4.5541     0.0000     3.0000 </r>
       <r>    -4.4210     0.0000     3.0000 </r>
       <r>    -4.2879     0.0001     3.0000 </r>
       <r>    -4.1548     2.6097     3.3473 </r>
       <r>    -4.0217     4.9019     3.9996 </r>
       <r>    -3.8887     0.0028     4.0000 </r>
       <r>    -3.7556     0.0000     4.0000 </r>
       <r>    -3.6225     0.0000     4.0000 </r>
       <r>    -3.4894     0.0000     4.0000 </r>
       <r>    -3.3564     0.0000     4.0000 </r>
       <r>    -3.2233     0.0000     4.0000 </r>
       <r>    -3.0902     0.0000     4.0000 </r>
       <r>    -2.9571     0.0000     4.0000 </r>
       <r>    -2.8241     0.0000     4.0000 </r>
       <r>    -2.6910     0.0000     4.0000 </r>
       <r>    -2.5579     0.0000     4.0000 </r>
       <r>    -2.4248     0.0000     4.0000 </r>
       <r>    -2.2918     0.0000     4.0000 </r>
       <r>    -2.1587     0.0000     4.0000 </r>
       <r>    -2.0256     0.0000     4.0000 </r>
       <r>    -1.8925     0.0000     4.0000 </r>
       <r>    -1.7595     0.0000     4.0000 </r>
       <r>    -1.6264     0.0000     4.0000 </r>
       <r>    -1.4933     0.0000     4.0000 </r>
       <r>    -1.3602     0.9493     4.1263 </r>
       <r>    -1.2271    13.9976     5.9891 </r>
       <r>    -1.0941    19.9247     8.6406 </r>
       <r>    -0.9610     2.7010     9.0000 </r>
       <r>    -0.8279     5.7580     9.7663 </r>
       <r>    -0.6948    16.7640    11.9972 </r>
       <r>    -0.5618     0.0213    12.0000 </r>
       <r>    -0.4287     0.0000    12.0000 </r>
       <r>    -0.2956     0.0982    12.0131 </r>
       <r>    -0.1625     6.9518    12.9382 </r>
       <r>    -0.0295     0.4645    13.0000 </r>
       <r>     0.1036     0.0000    13.0000 </r>
       <r>     0.2367     0.0000    13.0000 </r>
       <r>     0.3698     0.0000    13.0000 </r>
       <r>     0.5028     0.0000    13.0000 </r>
       <r>     0.6359     0.0000    13.0000 </r>
       <r>     0.7690     0.0000    13.0000 </r>
       <r>     0.9021     1.5063    13.2005 </r>
       <r>     1.0351    13.4250    14.9870 </r>
       <r>     1.1682     0.0977    15.0000 </r>
       <r>     1.3013     0.0000    15.0000 </r>
       <r>     1.4344     0.0000    15.0000 </r>
       <r>     1.5674     3.0167    15.4015 </r>
       <r>     1.7005    19.5091    17.9976 </r>
       <r>     1.8336     6.9470    18.9221 </r>
       <r>     1.9667     0.5852    19.0000 </r>
       <r>     2.0998     0.0001    19.0000 </r>
       <r>     2.2328     8.0571    20.0722 </r>
       <r>     2.3659    36.8768    24.9797 </r>
       <r>     2.4990     9.8897    26.2957 </r>
       <r>     2.6321     5.2919    27.0000 </r>
       <r>     2.7651     0.0003    27.0000 </r>
       <r>     2.8982     0.0000    27.0000 </r>
       <r>     3.0313     0.0000    27.0000 </r>
       <r>     3.1644     0.0000    27.0000 </r>
       <r>     3.2974     0.0088    27.0012 </r>
       <r>     3.4305     5.7354    27.7644 </r>
       <r>     3.5636     1.7776    28.0010 </r>
       <r>     3.6967     5.8303    28.7769 </r>
       <r>     3.8297    24.0776    31.9810 </r>
       <r>     3.9628    15.1640    33.9990 </r>
       <r>     4.0959     0.0077    34.0000 </r>
       <r>     4.2290     0.0000    34.0000 </r>
       <r>     4.3620     0.0000    34.0000 </r>
       <r>     4.4951     0.0000    34.0000 </r>
       <r>     4.6282     0.0074    34.0010 </r>
       <r>     4.7613     6.2589    34.8339 </r>
       <r>     4.8944     8.7002    35.9917 </r>
       <r>     5.0274     0.0624    36.0000 </r>
       <r>     5.1605     0.0000    36.0000 </r>
       <r>     5.2936     0.0000    36.0000 </r>
       <r>     5.4267     0.0000    36.0000 </r>
       <r>     5.5597     0.0000    36.0000 </r>
       <r>     5.6928     0.0000    36.0000 </r>
       <r>     5.8259     0.0000    36.0000 </r>
       <r>     5.9590     0.0000    36.0000 </r>
       <r>     6.0920     0.0000    36.0000 </r>
       <r>     6.2251     0.0000    36.0000 </r>
       <r>     6.3582     0.0000    36.0000 </r>
       <r>     6.4913     0.0000    36.0000 </r>
       <r>     6.6243     0.0000    36.0000 </r>
      </set>
     </set>
    </array>
   </total>
   <partial>
    <array>
     <dimension dim="1">gridpoints</dimension>
     <dimension dim="2">spin</dimension>
     <dimension dim="3">ion</dimension>
     <field>energy</field>
     <field>    s</field>
     <field>   py</field>
     <field>   pz</field>
     <field>   px</field>
     <field>  dxy</field>
     <field>  dyz</field>
     <field>  dz2</field>
     <field>  dxz</field>
     <field>x2-y2</field>
     <set>
      <set comment="ion 1">
       <set comment="spin 1">
        <r>   -33.2985     0.0000     0.0000     0.0000     0.0000     0.0000     0.0000     0.0000     0.0000     0.0000 </r>
        <r>   -33.1654     0.0000     0.0000     0.0000     0.0000     0.0000     0.0000     0.0000     0.0000     0.0000 </r>
        <r>   -33.0323     0.0000     0.0000     0.0000     0.0000     0.0000     0.0000     0.0000     0.0000     0.0000 </r>
        <r>   -32.8993     0.0000     0.0000     0.0000     0.0000     0.0000     0.0000     0.0000     0.0000     0.0000 </r>
        <r>   -32.7662     0.0000     0.0000     0.0000     0.0000     0.0000     0.0000     0.0000     0.0000     0.0000 </r>
        <r>   -32.6331     0.0000     0.0000     0.0000     0.0000     0.0000     0.0000     0.0000     0.0000     0.0000 </r>
        <r>   -32.5000     0.0000     0.0000     0.0000     0.0000     0.0000     0.0000     0.0000     0.0000     0.0000 </r>
        <r>   -32.3670     0.0000     0.0000     0.0000     0.0000     0.0000     0.0000     0.0000     0.0000     0.0000 </r>
        <r>   -32.2339     0.0000     0.0000     0.0000     0.0000     0.0000     0.0000     0.0000     0.0000     0.0000 </r>
        <r>   -32.1008     0.0000     0.0000     0.0000     0.0000     0.0000     0.0000     0.0000     0.0000     0.0000 </r>
        <r>   -31.9677     0.0000     0.0000     0.0000     0.0000     0.0000     0.0000     0.0000     0.0000     0.0000 </r>
        <r>   -31.8347     0.0000     0.0000     0.0000     0.0000     0.0000     0.0000     0.0000     0.0000     0.0000 </r>
        <r>   -31.7016     0.0000     0.0000     0.0000     0.0000     0.0000     0.0000     0.0000     0.0000     0.0000 </r>
        <r>   -31.5685     0.0000     0.0620     0.0619     0.0619     0.0000     0.0000     0.0000     0.0000     0.0000 </r>
        <r>   -31.4354     0.0000     6.7602     6.7597     6.7601     0.0000     0.0000     0.0000     0.0000     0.0000 </r>
        <r>   -31.3024     0.0000     0.6382     0.6384     0.6382     0.0000     0.0000     0.0000     0.0000     0.0000 </r>
        <r>   -31.1693     0.0000     0.0000     0.0000     0.0000     0.0000     0.0000     0.0000     0.0000     0.0000 </r>
        <r>   -31.0362     0.0000     0.0000     0.0000     0.0000     0.0000     0.0000     0.0000     0.0000     0.0000 </r>
        <r>   -30.9031     0.0000     0.0000     0.0000     0.0000     0.0000     0.0000     0.0000     0.0000     0.0000 </r>
        <r>   -30.7701     0.0000     0.0000     0.0000     0.0000     0.0000     0.0000     0.0000     0.0000     0.0000 </r>
        <r>   -30.6370     0.0000     0.0000     0.0000     0.0000     0.0000     0.0000     0.0000     0.0000     0.0000 </r>
        <r>   -30.5039     0.0000     0.0000     0.0000     0.0000     0.0000     0.0000     0.0000     0.0000     0.0000 </r>
        <r>   -30.3708     0.0000     0.0000     0.0000     0.0000     0.0000     0.0000     0.0000     0.0000     0.0000 </r>
        <r>   -30.2377     0.0000     0.0000     0.0000     0.0000     0.0000     0.0000     0.0000     0.0000     0.0000 </r>
        <r>   -30.1047     0.0000     0.0000     0.0000     0.0000     0.0000     0.0000     0.0000     0.0000     0.0000 </r>
        <r>   -29.9716     0.0000     0.0000     0.0000     0.0000     0.0000     0.0000     0.0000     0.0000     0.0000 </r>
        <r>   -29.8385     0.0000     0.0000     0.0000     0.0000     0.0000     0.0000     0.0000     0.0000     0.0000 </r>
        <r>   -29.7054     0.0000     0.0000     0.0000     0.0000     0.0000     0.0000     0.0000     0.0000     0.0000 </r>
        <r>   -29.5724     0.0000     0.0000     0.0000     0.0000     0.0000     0.0000     0.0000     0.0000     0.0000 </r>
        <r>   -29.4393     0.0000     0.0000     0.0000     0.0000     0.0000     0.0000     0.0000     0.0000     0.0000 </r>
        <r>   -29.3062     0.0000     0.0000     0.0000     0.0000     0.0000     0.0000     0.0000     0.0000     0.0000 </r>
        <r>   -29.1731     0.0000     0.0000     0.0000     0.0000     0.0000     0.0000     0.0000     0.0000     0.0000 </r>
        <r>   -29.0401     0.0000     0.0000     0.0000     0.0000     0.0000     0.0000     0.0000     0.0000     0.0000 </r>
        <r>   -28.9070     0.0000     0.0000     0.0000     0.0000     0.0000     0.0000     0.0000     0.0000     0.0000 </r>
        <r>   -28.7739     0.0000     0.0000     0.0000     0.0000     0.0000     0.0000     0.0000     0.0000     0.0000 </r>
        <r>   -28.6408     0.0000     0.0000     0.0000     0.0000     0.0000     0.0000     0.0000     0.0000     0.0000 </r>
        <r>   -28.5078     0.0000     0.0000     0.0000     0.0000     0.0000     0.0000     0.0000     0.0000     0.0000 </r>
        <r>   -28.3747     0.0000     0.0000     0.0000     0.0000     0.0000     0.0000     0.0000     0.0000     0.0000 </r>
        <r>   -28.2416     0.0000     0.0000     0.0000     0.0000     0.0000     0.0000     0.0000     0.0000     0.0000 </r>
        <r>   -28.1085     0.0000     0.0000     0.0000     0.0000     0.0000     0.0000     0.0000     0.0000     0.0000 </r>
        <r>   -27.9755     0.0000     0.0000     0.0000     0.0000     0.0000     0.0000     0.0000     0.0000     0.0000 </r>
        <r>   -27.8424     0.0000     0.0000     0.0000     0.0000     0.0000     0.0000     0.0000     0.0000     0.0000 </r>
        <r>   -27.7093     0.0000     0.0000     0.0000     0.0000     0.0000     0.0000     0.0000     0.0000     0.0000 </r>
        <r>   -27.5762     0.0000     0.0000     0.0000     0.0000     0.0000     0.0000     0.0000     0.0000     0.0000 </r>
        <r>   -27.4431     0.0000     0.0000     0.0000     0.0000     0.0000     0.0000     0.0000     0.0000     0.0000 </r>
        <r>   -27.3101     0.0000     0.0000     0.0000     0.0000     0.0000     0.0000     0.0000     0.0000     0.0000 </r>
        <r>   -27.1770     0.0000     0.0000     0.0000     0.0000     0.0000     0.0000     0.0000     0.0000     0.0000 </r>
        <r>   -27.0439     0.0000     0.0000     0.0000     0.0000     0.0000     0.0000     0.0000     0.0000     0.0000 </r>
        <r>   -26.9108     0.0000     0.0000     0.0000     0.0000     0.0000     0.0000     0.0000     0.0000     0.0000 </r>
        <r>   -26.7778     0.0000     0.0000     0.0000     0.0000     0.0000     0.0000     0.0000     0.0000     0.0000 </r>
        <r>   -26.6447     0.0000     0.0000     0.0000     0.0000     0.0000     0.0000     0.0000     0.0000     0.0000 </r>
        <r>   -26.5116     0.0000     0.0000     0.0000     0.0000     0.0000     0.0000     0.0000     0.0000     0.0000 </r>
        <r>   -26.3785     0.0000     0.0000     0.0000     0.0000     0.0000     0.0000     0.0000     0.0000     0.0000 </r>
        <r>   -26.2455     0.0000     0.0000     0.0000     0.0000     0.0000     0.0000     0.0000     0.0000     0.0000 </r>
        <r>   -26.1124     0.0000     0.0000     0.0000     0.0000     0.0000     0.0000     0.0000     0.0000     0.0000 </r>
        <r>   -25.9793     0.0000     0.0000     0.0000     0.0000     0.0000     0.0000     0.0000     0.0000     0.0000 </r>
        <r>   -25.8462     0.0000     0.0000     0.0000     0.0000     0.0000     0.0000     0.0000     0.0000     0.0000 </r>
        <r>   -25.7132     0.0000     0.0000     0.0000     0.0000     0.0000     0.0000     0.0000     0.0000     0.0000 </r>
        <r>   -25.5801     0.0000     0.0000     0.0000     0.0000     0.0000     0.0000     0.0000     0.0000     0.0000 </r>
        <r>   -25.4470     0.0000     0.0000     0.0000     0.0000     0.0000     0.0000     0.0000     0.0000     0.0000 </r>
        <r>   -25.3139     0.0000     0.0000     0.0000     0.0000     0.0000     0.0000     0.0000     0.0000     0.0000 </r>
        <r>   -25.1809     0.0000     0.0000     0.0000     0.0000     0.0000     0.0000     0.0000     0.0000     0.0000 </r>
        <r>   -25.0478     0.0000     0.0000     0.0000     0.0000     0.0000     0.0000     0.0000     0.0000     0.0000 </r>
        <r>   -24.9147     0.0000     0.0000     0.0000     0.0000     0.0000     0.0000     0.0000     0.0000     0.0000 </r>
        <r>   -24.7816     0.0000     0.0000     0.0000     0.0000     0.0000     0.0000     0.0000     0.0000     0.0000 </r>
        <r>   -24.6485     0.0000     0.0000     0.0000     0.0000     0.0000     0.0000     0.0000     0.0000     0.0000 </r>
        <r>   -24.5155     0.0000     0.0000     0.0000     0.0000     0.0000     0.0000     0.0000     0.0000     0.0000 </r>
        <r>   -24.3824     0.0000     0.0000     0.0000     0.0000     0.0000     0.0000     0.0000     0.0000     0.0000 </r>
        <r>   -24.2493     0.0000     0.0000     0.0000     0.0000     0.0000     0.0000     0.0000     0.0000     0.0000 </r>
        <r>   -24.1162     0.0000     0.0000     0.0000     0.0000     0.0000     0.0000     0.0000     0.0000     0.0000 </r>
        <r>   -23.9832     0.0000     0.0000     0.0000     0.0000     0.0000     0.0000     0.0000     0.0000     0.0000 </r>
        <r>   -23.8501     0.0000     0.0000     0.0000     0.0000     0.0000     0.0000     0.0000     0.0000     0.0000 </r>
        <r>   -23.7170     0.0000     0.0000     0.0000     0.0000     0.0000     0.0000     0.0000     0.0000     0.0000 </r>
        <r>   -23.5839     0.0000     0.0000     0.0000     0.0000     0.0000     0.0000     0.0000     0.0000     0.0000 </r>
        <r>   -23.4509     0.0000     0.0000     0.0000     0.0000     0.0000     0.0000     0.0000     0.0000     0.0000 </r>
        <r>   -23.3178     0.0000     0.0000     0.0000     0.0000     0.0000     0.0000     0.0000     0.0000     0.0000 </r>
        <r>   -23.1847     0.0000     0.0000     0.0000     0.0000     0.0000     0.0000     0.0000     0.0000     0.0000 </r>
        <r>   -23.0516     0.0000     0.0000     0.0000     0.0000     0.0000     0.0000     0.0000     0.0000     0.0000 </r>
        <r>   -22.9186     0.0000     0.0000     0.0000     0.0000     0.0000     0.0000     0.0000     0.0000     0.0000 </r>
        <r>   -22.7855     0.0000     0.0000     0.0000     0.0000     0.0000     0.0000     0.0000     0.0000     0.0000 </r>
        <r>   -22.6524     0.0000     0.0000     0.0000     0.0000     0.0000     0.0000     0.0000     0.0000     0.0000 </r>
        <r>   -22.5193     0.0000     0.0000     0.0000     0.0000     0.0000     0.0000     0.0000     0.0000     0.0000 </r>
        <r>   -22.3863     0.0000     0.0000     0.0000     0.0000     0.0000     0.0000     0.0000     0.0000     0.0000 </r>
        <r>   -22.2532     0.0000     0.0000     0.0000     0.0000     0.0000     0.0000     0.0000     0.0000     0.0000 </r>
        <r>   -22.1201     0.0000     0.0000     0.0000     0.0000     0.0000     0.0000     0.0000     0.0000     0.0000 </r>
        <r>   -21.9870     0.0000     0.0000     0.0000     0.0000     0.0000     0.0000     0.0000     0.0000     0.0000 </r>
        <r>   -21.8539     0.0000     0.0000     0.0000     0.0000     0.0000     0.0000     0.0000     0.0000     0.0000 </r>
        <r>   -21.7209     0.0000     0.0000     0.0000     0.0000     0.0000     0.0000     0.0000     0.0000     0.0000 </r>
        <r>   -21.5878     0.0000     0.0000     0.0000     0.0000     0.0000     0.0000     0.0000     0.0000     0.0000 </r>
        <r>   -21.4547     0.0000     0.0000     0.0000     0.0000     0.0000     0.0000     0.0000     0.0000     0.0000 </r>
        <r>   -21.3216     0.0000     0.0000     0.0000     0.0000     0.0000     0.0000     0.0000     0.0000     0.0000 </r>
        <r>   -21.1886     0.0000     0.0000     0.0000     0.0000     0.0000     0.0000     0.0000     0.0000     0.0000 </r>
        <r>   -21.0555     0.0000     0.0000     0.0000     0.0000     0.0000     0.0000     0.0000     0.0000     0.0000 </r>
        <r>   -20.9224     0.0000     0.0000     0.0000     0.0000     0.0000     0.0000     0.0000     0.0000     0.0000 </r>
        <r>   -20.7893     0.0000     0.0000     0.0000     0.0000     0.0000     0.0000     0.0000     0.0000     0.0000 </r>
        <r>   -20.6563     0.0000     0.0000     0.0000     0.0000     0.0000     0.0000     0.0000     0.0000     0.0000 </r>
        <r>   -20.5232     0.0000     0.0000     0.0000     0.0000     0.0000     0.0000     0.0000     0.0000     0.0000 </r>
        <r>   -20.3901     0.0000     0.0000     0.0000     0.0000     0.0000     0.0000     0.0000     0.0000     0.0000 </r>
        <r>   -20.2570     0.0000     0.0000     0.0000     0.0000     0.0000     0.0000     0.0000     0.0000     0.0000 </r>
        <r>   -20.1240     0.0000     0.0000     0.0000     0.0000     0.0000     0.0000     0.0000     0.0000     0.0000 </r>
        <r>   -19.9909     0.0000     0.0000     0.0000     0.0000     0.0000     0.0000     0.0000     0.0000     0.0000 </r>
        <r>   -19.8578     0.0000     0.0000     0.0000     0.0000     0.0000     0.0000     0.0000     0.0000     0.0000 </r>
        <r>   -19.7247     0.0000     0.0000     0.0000     0.0000     0.0000     0.0000     0.0000     0.0000     0.0000 </r>
        <r>   -19.5917     0.0000     0.0000     0.0000     0.0000     0.0000     0.0000     0.0000     0.0000     0.0000 </r>
        <r>   -19.4586     0.0000     0.0000     0.0000     0.0000     0.0000     0.0000     0.0000     0.0000     0.0000 </r>
        <r>   -19.3255     0.0000     0.0000     0.0000     0.0000     0.0000     0.0000     0.0000     0.0000     0.0000 </r>
        <r>   -19.1924     0.0000     0.0000     0.0000     0.0000     0.0000     0.0000     0.0000     0.0000     0.0000 </r>
        <r>   -19.0594     0.0000     0.0000     0.0000     0.0000     0.0000     0.0000     0.0000     0.0000     0.0000 </r>
        <r>   -18.9263     0.0000     0.0000     0.0000     0.0000     0.0000     0.0000     0.0000     0.0000     0.0000 </r>
        <r>   -18.7932     0.0000     0.0000     0.0000     0.0000     0.0000     0.0000     0.0000     0.0000     0.0000 </r>
        <r>   -18.6601     0.0000     0.0000     0.0000     0.0000     0.0000     0.0000     0.0000     0.0000     0.0000 </r>
        <r>   -18.5270     0.0000     0.0000     0.0000     0.0000     0.0000     0.0000     0.0000     0.0000     0.0000 </r>
        <r>   -18.3940     0.0000     0.0000     0.0000     0.0000     0.0000     0.0000     0.0000     0.0000     0.0000 </r>
        <r>   -18.2609     0.0000     0.0000     0.0000     0.0000     0.0000     0.0000     0.0000     0.0000     0.0000 </r>
        <r>   -18.1278     0.0000     0.0000     0.0000     0.0000     0.0000     0.0000     0.0000     0.0000     0.0000 </r>
        <r>   -17.9947     0.0000     0.0000     0.0000     0.0000     0.0000     0.0000     0.0000     0.0000     0.0000 </r>
        <r>   -17.8617     0.0000     0.0000     0.0000     0.0000     0.0000     0.0000     0.0000     0.0000     0.0000 </r>
        <r>   -17.7286     0.0000     0.0000     0.0000     0.0000     0.0000     0.0000     0.0000     0.0000     0.0000 </r>
        <r>   -17.5955     0.0000     0.0000     0.0000     0.0000     0.0000     0.0000     0.0000     0.0000     0.0000 </r>
        <r>   -17.4624     0.0000     0.0000     0.0000     0.0000     0.0000     0.0000     0.0000     0.0000     0.0000 </r>
        <r>   -17.3294     0.0000     0.0000     0.0000     0.0000     0.0000     0.0000     0.0000     0.0000     0.0000 </r>
        <r>   -17.1963     0.0000     0.0000     0.0000     0.0000     0.0000     0.0000     0.0000     0.0000     0.0000 </r>
[...]
        <r>     0.6359     0.0000     0.0000     0.0000     0.0000     0.0000     0.0000     0.0000     0.0000     0.0000 </r>
        <r>     0.7690     0.0000     0.0000     0.0000     0.0000     0.0000     0.0000     0.0000     0.0000     0.0000 </r>
        <r>     0.9021     0.0000     0.0000     0.0000     0.0000     0.0000     0.0000     0.0642     0.0000     0.0641 </r>
        <r>     1.0351     0.0000     0.0000     0.0000     0.0000     0.0000     0.0000     0.5717     0.0000     0.5713 </r>
        <r>     1.1682     0.0000     0.0000     0.0000     0.0000     0.0000     0.0000     0.0042     0.0000     0.0042 </r>
        <r>     1.3013     0.0000     0.0000     0.0000     0.0000     0.0000     0.0000     0.0000     0.0000     0.0000 </r>
        <r>     1.4344     0.0000     0.0000     0.0000     0.0000     0.0000     0.0000     0.0000     0.0000     0.0000 </r>
        <r>     1.5674     0.0000     0.0579     0.0584     0.0584     0.0000     0.0000     0.0000     0.0000     0.0000 </r>
        <r>     1.7005     0.0028     0.3733     0.3763     0.3762     0.0000     0.0000     0.0000     0.0000     0.0000 </r>
        <r>     1.8336     0.2643     0.0017     0.0017     0.0017     0.0000     0.0000     0.0000     0.0000     0.0000 </r>
        <r>     1.9667     0.0226     0.0000     0.0000     0.0000     0.0000     0.0000     0.0000     0.0000     0.0000 </r>
        <r>     2.0998     0.0000     0.0000     0.0000     0.0000     0.0000     0.0000     0.0000     0.0000     0.0000 </r>
        <r>     2.2328     0.0000     0.0000     0.0000     0.0000     0.0833     0.0824     0.0000     0.0821     0.0000 </r>
        <r>     2.3659     0.0000     0.0001     0.0001     0.0000     0.6939     0.6939     0.0001     0.6932     0.0001 </r>
        <r>     2.4990     0.0000     0.0001     0.0000     0.0000     0.0047     0.0047     0.1263     0.0047     0.1260 </r>
        <r>     2.6321     0.0000     0.0000     0.0000     0.0000     0.0000     0.0000     0.0687     0.0000     0.0685 </r>
        <r>     2.7651     0.0000     0.0000     0.0000     0.0000     0.0000     0.0000     0.0000     0.0000     0.0000 </r>
        <r>     2.8982     0.0000     0.0000     0.0000     0.0000     0.0000     0.0000     0.0000     0.0000     0.0000 </r>
        <r>     3.0313     0.0000     0.0000     0.0000     0.0000     0.0000     0.0000     0.0000     0.0000     0.0000 </r>
        <r>     3.1644     0.0000     0.0000     0.0000     0.0000     0.0000     0.0000     0.0000     0.0000     0.0000 </r>
        <r>     3.2974     0.0000     0.0000     0.0000     0.0000     0.0000     0.0000     0.0000     0.0000     0.0000 </r>
        <r>     3.4305     0.0000     0.0002     0.0090     0.0046     0.0000     0.0000     0.0000     0.0000     0.0000 </r>
        <r>     3.5636     0.0000     0.0001     0.0029     0.0014     0.0000     0.0000     0.0000     0.0000     0.0000 </r>
        <r>     3.6967     0.0042     0.0548     0.0703     0.0069     0.0039     0.0004     0.0006     0.0004     0.0003 </r>
        <r>     3.8297     0.1817     0.0258     0.0825     0.1861     0.1253     0.1231     0.0158     0.1173     0.0076 </r>
        <r>     3.9628     0.0206     0.0027     0.0116     0.0403     0.1707     0.1733     0.0044     0.1817     0.0021 </r>
        <r>     4.0959     0.0000     0.0000     0.0000     0.0000     0.0001     0.0001     0.0000     0.0001     0.0000 </r>
        <r>     4.2290     0.0000     0.0000     0.0000     0.0000     0.0000     0.0000     0.0000     0.0000     0.0000 </r>
        <r>     4.3620     0.0000     0.0000     0.0000     0.0000     0.0000     0.0000     0.0000     0.0000     0.0000 </r>
        <r>     4.4951     0.0000     0.0000     0.0000     0.0000     0.0000     0.0000     0.0000     0.0000     0.0000 </r>
        <r>     4.6282     0.0002     0.0000     0.0000     0.0000     0.0000     0.0000     0.0000     0.0000     0.0002 </r>
        <r>     4.7613     0.1673     0.0119     0.0230     0.0021     0.0001     0.0000     0.0139     0.0000     0.1559 </r>
        <r>     4.8944     0.1631     0.0238     0.0104     0.0016     0.0001     0.0000     0.1250     0.0002     0.1570 </r>
        <r>     5.0274     0.0010     0.0002     0.0000     0.0000     0.0000     0.0000     0.0011     0.0000     0.0010 </r>
        <r>     5.1605     0.0000     0.0000     0.0000     0.0000     0.0000     0.0000     0.0000     0.0000     0.0000 </r>
        <r>     5.2936     0.0000     0.0000     0.0000     0.0000     0.0000     0.0000     0.0000     0.0000     0.0000 </r>
        <r>     5.4267     0.0000     0.0000     0.0000     0.0000     0.0000     0.0000     0.0000     0.0000     0.0000 </r>
        <r>     5.5597     0.0000     0.0000     0.0000     0.0000     0.0000     0.0000     0.0000     0.0000     0.0000 </r>
        <r>     5.6928     0.0000     0.0000     0.0000     0.0000     0.0000     0.0000     0.0000     0.0000     0.0000 </r>
        <r>     5.8259     0.0000     0.0000     0.0000     0.0000     0.0000     0.0000     0.0000     0.0000     0.0000 </r>
        <r>     5.9590     0.0000     0.0000     0.0000     0.0000     0.0000     0.0000     0.0000     0.0000     0.0000 </r>
        <r>     6.0920     0.0000     0.0000     0.0000     0.0000     0.0000     0.0000     0.0000     0.0000     0.0000 </r>
        <r>     6.2251     0.0000     0.0000     0.0000     0.0000     0.0000     0.0000     0.0000     0.0000     0.0000 </r>
        <r>     6.3582     0.0000     0.0000     0.0000     0.0000     0.0000     0.0000     0.0000     0.0000     0.0000 </r>
        <r>     6.4913     0.0000     0.0000     0.0000     0.0000     0.0000     0.0000     0.0000     0.0000     0.0000 </r>
        <r>     6.6243     0.0000     0.0000     0.0000     0.0000     0.0000     0.0000     0.0000     0.0000     0.0000 </r>
       </set>
      </set>
     </set>
    </array>
   </partial>
  </dos>
  <projected>
   <eigenvalues>
    <array>
     <dimension dim="1">band</dimension>
     <dimension dim="2">kpoint</dimension>
     <dimension dim="3">spin</dimension>
     <field>eigene</field>
     <field>occ</field>
     <set>
      <set comment="spin 1">
       <set comment="kpoint 1">
        <r>  -31.4838    1.0000 </r>
        <r>  -31.4838    1.0000 </r>
        <r>  -31.4838    1.0000 </r>
        <r>   -4.5678    1.0000 </r>
        <r>   -1.7728    0.3334 </r>
        <r>   -1.7728    0.3333 </r>
        <r>   -1.7728    0.3333 </r>
        <r>   -1.5102    0.0000 </r>
        <r>   -1.5102    0.0000 </r>
        <r>   -1.0935    0.0000 </r>
        <r>   -1.0935    0.0000 </r>
        <r>   -1.0935    0.0000 </r>
        <r>   -0.3082    0.0000 </r>
        <r>    0.8873    0.0000 </r>
        <r>    0.8873    0.0000 </r>
        <r>    1.5067    0.0000 </r>
        <r>    1.5068    0.0000 </r>
        <r>    1.5071    0.0000 </r>
        <r>    1.7354    0.0000 </r>
        <r>    2.0767    0.0000 </r>
        <r>    2.0767    0.0000 </r>
        <r>    2.0767    0.0000 </r>
        <r>    2.1699    0.0000 </r>
        <r>    2.1702    0.0000 </r>
        <r>    2.1706    0.0000 </r>
        <r>    2.4643    0.0000 </r>
        <r>    2.4643    0.0000 </r>
        <r>    3.2967    0.0000 </r>
        <r>    3.5773    0.0000 </r>
        <r>    3.6084    0.0000 </r>
        <r>    3.7285    0.0000 </r>
        <r>    3.7315    0.0000 </r>
        <r>    3.7390    0.0000 </r>
        <r>    3.7786    0.0000 </r>
        <r>    4.3587    0.0000 </r>
        <r>    4.5880    0.0000 </r>
       </set>
      </set>
      <set comment="spin 2">
       <set comment="kpoint 1">
        <r>  -31.1386    1.0000 </r>
        <r>  -31.1386    1.0000 </r>
        <r>  -31.1386    1.0000 </r>
        <r>   -4.1409    1.0000 </r>
        <r>   -1.3062    0.0000 </r>
        <r>   -1.3062    0.0000 </r>
        <r>   -1.1357    0.0000 </r>
        <r>   -1.1357    0.0000 </r>
        <r>   -1.1356    0.0000 </r>
        <r>   -0.8047    0.0000 </r>
        <r>   -0.8047    0.0000 </r>
        <r>   -0.8047    0.0000 </r>
        <r>   -0.2170    0.0000 </r>
        <r>    0.9473    0.0000 </r>
        <r>    0.9473    0.0000 </r>
        <r>    1.6066    0.0000 </r>
        <r>    1.6066    0.0000 </r>
        <r>    1.6067    0.0000 </r>
        <r>    1.7834    0.0000 </r>
        <r>    2.2562    0.0000 </r>
        <r>    2.2562    0.0000 </r>
        <r>    2.2568    0.0000 </r>
        <r>    2.2771    0.0000 </r>
        <r>    2.2772    0.0000 </r>
        <r>    2.2772    0.0000 </r>
        <r>    2.4855    0.0000 </r>
        <r>    2.4856    0.0000 </r>
        <r>    3.4050    0.0000 </r>
        <r>    3.6731    0.0000 </r>
        <r>    3.7693    0.0000 </r>
        <r>    3.7804    0.0000 </r>
        <r>    3.8348    0.0000 </r>
        <r>    3.8440    0.0000 </r>
        <r>    3.8463    0.0000 </r>
        <r>    4.7376    0.0000 </r>
        <r>    4.8097    0.0000 </r>
       </set>
      </set>
     </set>
    </array>
   </eigenvalues>
   <array>
    <dimension dim="1">ion</dimension>
    <dimension dim="2">band</dimension>
    <dimension dim="3">kpoint</dimension>
    <dimension dim="4">spin</dimension>
    <field>    s</field>
    <field>   py</field>
    <field>   pz</field>
    <field>   px</field>
    <field>  dxy</field>
    <field>  dyz</field>
    <field>  dz2</field>
    <field>  dxz</field>
    <field>x2-y2</field>
    <set>
     <set comment="spin1">
      <set comment="kpoint 1">
       <set comment="band 1">
        <r>  0.0000  0.8212  0.0045  0.1671  0.0000  0.0000  0.0000  0.0000  0.0000 </r>
       </set>
       <set comment="band 2">
        <r>  0.0000  0.1646  0.0030  0.8251  0.0000  0.0000  0.0000  0.0000  0.0000 </r>
       </set>
       <set comment="band 3">
        <r>  0.0000  0.0070  0.9852  0.0005  0.0000  0.0000  0.0000  0.0000  0.0000 </r>
       </set>
       <set comment="band 4">
        <r>  0.3538  0.0000  0.0000  0.0000  0.0000  0.0000  0.0000  0.0000  0.0000 </r>
       </set>
       <set comment="band 5">
        <r>  0.0000  0.0000  0.0000  0.0000  0.0330  0.5809  0.0000  0.0238  0.0000 </r>
       </set>
       <set comment="band 6">
        <r>  0.0000  0.0000  0.0000  0.0000  0.0766  0.0447  0.0000  0.5164  0.0000 </r>
       </set>
       <set comment="band 7">
        <r>  0.0000  0.0000  0.0000  0.0000  0.5281  0.0121  0.0000  0.0975  0.0000 </r>
       </set>
       <set comment="band 8">
        <r>  0.0000  0.0000  0.0000  0.0000  0.0000  0.0000  0.4669  0.0000  0.1443 </r>
       </set>
       <set comment="band 9">
        <r>  0.0000  0.0000  0.0000  0.0000  0.0000  0.0000  0.1443  0.0000  0.4668 </r>
       </set>
       <set comment="band 10">
        <r>  0.0000  0.1371  0.0002  0.0640  0.0000  0.0000  0.0000  0.0000  0.0000 </r>
       </set>
       <set comment="band 11">
        <r>  0.0000  0.0172  0.1548  0.0293  0.0000  0.0000  0.0000  0.0000  0.0000 </r>
       </set>
       <set comment="band 12">
        <r>  0.0000  0.0463  0.0462  0.1068  0.0000  0.0000  0.0000  0.0000  0.0000 </r>
       </set>
       <set comment="band 13">
        <r>  0.0418  0.0000  0.0000  0.0000  0.0000  0.0000  0.0000  0.0000  0.0000 </r>
       </set>
       <set comment="band 14">
        <r>  0.0000  0.0000  0.0000  0.0000  0.0000  0.0000  0.0197  0.0000  0.0592 </r>
       </set>
       <set comment="band 15">
        <r>  0.0000  0.0000  0.0000  0.0000  0.0000  0.0000  0.0592  0.0000  0.0197 </r>
       </set>
       <set comment="band 16">
        <r>  0.0000  0.0029  0.0490  0.0090  0.0000  0.0000  0.0000  0.0000  0.0000 </r>
       </set>
       <set comment="band 17">
        <r>  0.0000  0.0002  0.0099  0.0501  0.0000  0.0000  0.0000  0.0000  0.0000 </r>
       </set>
       <set comment="band 18">
        <r>  0.0000  0.0557  0.0017  0.0013  0.0000  0.0000  0.0000  0.0000  0.0000 </r>
       </set>
       <set comment="band 19">
        <r>  0.0383  0.0000  0.0000  0.0000  0.0000  0.0000  0.0000  0.0000  0.0000 </r>
       </set>
       <set comment="band 20">
        <r>  0.0000  0.0000  0.0000  0.0000  0.0567  0.0031  0.0000  0.0370  0.0000 </r>
       </set>
       <set comment="band 21">
        <r>  0.0000  0.0000  0.0000  0.0000  0.0296  0.0441  0.0000  0.0231  0.0000 </r>
       </set>
       <set comment="band 22">
        <r>  0.0000  0.0000  0.0000  0.0000  0.0105  0.0495  0.0000  0.0366  0.0000 </r>
       </set>
       <set comment="band 23">
        <r>  0.0000  0.0000  0.0000  0.0000  0.0000  0.0000  0.0000  0.0000  0.0000 </r>
       </set>
       <set comment="band 24">
        <r>  0.0000  0.0000  0.0000  0.0000  0.0000  0.0000  0.0000  0.0000  0.0000 </r>
       </set>
       <set comment="band 25">
        <r>  0.0000  0.0000  0.0000  0.0000  0.0000  0.0000  0.0000  0.0000  0.0000 </r>
       </set>
       <set comment="band 26">
        <r>  0.0000  0.0000  0.0000  0.0000  0.0000  0.0000  0.0062  0.0000  0.0183 </r>
       </set>
       <set comment="band 27">
        <r>  0.0000  0.0000  0.0000  0.0000  0.0000  0.0000  0.0183  0.0000  0.0062 </r>
       </set>
       <set comment="band 28">
        <r>  0.0002  0.0094  0.0011  0.0024  0.0000  0.0001  0.0003  0.0003  0.0002 </r>
       </set>
       <set comment="band 29">
        <r>  0.0000  0.0044  0.0070  0.0367  0.0001  0.0003  0.0000  0.0008  0.0006 </r>
       </set>
       <set comment="band 30">
        <r>  0.0000  0.0015  0.0230  0.0133  0.0003  0.0010  0.0009  0.0013  0.0000 </r>
       </set>
       <set comment="band 31">
        <r>  0.0001  0.0009  0.0001  0.0001  0.0311  0.0002  0.0000  0.0030  0.0000 </r>
       </set>
       <set comment="band 32">
        <r>  0.0000  0.0000  0.0000  0.0000  0.0006  0.0228  0.0000  0.0116  0.0000 </r>
       </set>
       <set comment="band 33">
        <r>  0.0028  0.0012  0.0006  0.0028  0.0026  0.0091  0.0004  0.0149  0.0003 </r>
       </set>
       <set comment="band 34">
        <r>  0.0296  0.0003  0.0000  0.0009  0.0000  0.0012  0.0001  0.0023  0.0004 </r>
       </set>
       <set comment="band 35">
        <r>  0.0006  0.0095  0.0243  0.0076  0.0000  0.0000  0.0167  0.0002  0.0052 </r>
       </set>
       <set comment="band 36">
        <r>  0.0312  0.0000  0.0101  0.0000  0.0002  0.0001  0.0025  0.0000  0.0069 </r>
       </set>
      </set>
     </set>
     <set comment="spin2">
      <set comment="kpoint 1">
       <set comment="band 1">
        <r>  0.0000  0.6810  0.1955  0.1156  0.0000  0.0000  0.0000  0.0000  0.0000 </r>
       </set>
       <set comment="band 2">
        <r>  0.0000  0.0867  0.0290  0.8764  0.0000  0.0000  0.0000  0.0000  0.0000 </r>
       </set>
       <set comment="band 3">
        <r>  0.0000  0.2243  0.7676  0.0001  0.0000  0.0000  0.0000  0.0000  0.0000 </r>
       </set>
       <set comment="band 4">
        <r>  0.3407  0.0000  0.0000  0.0000  0.0000  0.0000  0.0000  0.0000  0.0000 </r>
       </set>
       <set comment="band 5">
        <r>  0.0000  0.0000  0.0000  0.0000  0.0000  0.0000  0.5598  0.0000  0.0352 </r>
       </set>
       <set comment="band 6">
        <r>  0.0000  0.0000  0.0000  0.0000  0.0000  0.0000  0.0353  0.0000  0.5598 </r>
       </set>
       <set comment="band 7">
        <r>  0.0000  0.0000  0.0000  0.0000  0.0262  0.2881  0.0000  0.2962  0.0000 </r>
       </set>
       <set comment="band 8">
        <r>  0.0000  0.0000  0.0000  0.0000  0.0296  0.2668  0.0000  0.3140  0.0000 </r>
       </set>
       <set comment="band 9">
        <r>  0.0000  0.0000  0.0000  0.0000  0.5547  0.0557  0.0000  0.0001  0.0000 </r>
       </set>
       <set comment="band 10">
        <r>  0.0000  0.1674  0.0001  0.0157  0.0000  0.0000  0.0000  0.0000  0.0000 </r>
       </set>
       <set comment="band 11">
        <r>  0.0000  0.0000  0.1819  0.0028  0.0000  0.0000  0.0000  0.0000  0.0000 </r>
       </set>
       <set comment="band 12">
        <r>  0.0000  0.0159  0.0027  0.1663  0.0000  0.0000  0.0000  0.0000  0.0000 </r>
       </set>
       <set comment="band 13">
        <r>  0.0425  0.0000  0.0000  0.0000  0.0000  0.0000  0.0000  0.0000  0.0000 </r>
       </set>
       <set comment="band 14">
        <r>  0.0000  0.0000  0.0000  0.0000  0.0000  0.0000  0.0717  0.0000  0.0135 </r>
       </set>
       <set comment="band 15">
        <r>  0.0000  0.0000  0.0000  0.0000  0.0000  0.0000  0.0135  0.0000  0.0716 </r>
       </set>
       <set comment="band 16">
        <r>  0.0000  0.0000  0.0572  0.0008  0.0000  0.0000  0.0000  0.0000  0.0000 </r>
       </set>
       <set comment="band 17">
        <r>  0.0000  0.0179  0.0007  0.0389  0.0000  0.0000  0.0000  0.0000  0.0000 </r>
       </set>
       <set comment="band 18">
        <r>  0.0000  0.0397  0.0001  0.0183  0.0000  0.0000  0.0000  0.0000  0.0000 </r>
       </set>
       <set comment="band 19">
        <r>  0.0385  0.0000  0.0000  0.0000  0.0000  0.0000  0.0000  0.0000  0.0000 </r>
       </set>
       <set comment="band 20">
        <r>  0.0000  0.0000  0.0000  0.0000  0.0000  0.0003  0.0000  0.0000  0.0000 </r>
       </set>
       <set comment="band 21">
        <r>  0.0000  0.0000  0.0000  0.0000  0.0000  0.0000  0.0000  0.0004  0.0000 </r>
       </set>
       <set comment="band 22">
        <r>  0.0000  0.0000  0.0000  0.0000  0.0012  0.0000  0.0000  0.0000  0.0000 </r>
       </set>
       <set comment="band 23">
        <r>  0.0000  0.0000  0.0000  0.0000  0.0460  0.0562  0.0000  0.0007  0.0000 </r>
       </set>
       <set comment="band 24">
        <r>  0.0000  0.0000  0.0000  0.0000  0.0567  0.0453  0.0000  0.0014  0.0000 </r>
       </set>
       <set comment="band 25">
        <r>  0.0000  0.0000  0.0000  0.0000  0.0001  0.0020  0.0000  0.1012  0.0000 </r>
       </set>
       <set comment="band 26">
        <r>  0.0000  0.0000  0.0000  0.0000  0.0000  0.0000  0.0113  0.0000  0.0147 </r>
       </set>
       <set comment="band 27">
        <r>  0.0000  0.0000  0.0000  0.0000  0.0000  0.0000  0.0147  0.0000  0.0112 </r>
       </set>
       <set comment="band 28">
        <r>  0.0000  0.0000  0.0016  0.0008  0.0000  0.0000  0.0000  0.0000  0.0000 </r>
       </set>
       <set comment="band 29">
        <r>  0.0003  0.0098  0.0124  0.0008  0.0007  0.0000  0.0001  0.0000  0.0000 </r>
       </set>
       <set comment="band 30">
        <r>  0.0106  0.0002  0.0034  0.0115  0.0000  0.0009  0.0010  0.0006  0.0004 </r>
       </set>
       <set comment="band 31">
        <r>  0.0147  0.0006  0.0044  0.0120  0.0020  0.0035  0.0009  0.0026  0.0005 </r>
       </set>
       <set comment="band 32">
        <r>  0.0018  0.0003  0.0013  0.0060  0.0224  0.0046  0.0006  0.0052  0.0003 </r>
       </set>
       <set comment="band 33">
        <r>  0.0000  0.0002  0.0001  0.0003  0.0010  0.0265  0.0000  0.0117  0.0000 </r>
       </set>
       <set comment="band 34">
        <r>  0.0001  0.0000  0.0004  0.0005  0.0140  0.0041  0.0001  0.0196  0.0000 </r>
       </set>
       <set comment="band 35">
        <r>  0.0279  0.0018  0.0041  0.0004  0.0000  0.0000  0.0004  0.0000  0.0260 </r>
       </set>
       <set comment="band 36">
        <r>  0.0162  0.0030  0.0004  0.0001  0.0000  0.0000  0.0183  0.0000  0.0158 </r>
       </set>
      </set>
     </set>
    </set>
   </array>
  </projected>
 </calculation>
 <structure name="finalpos" >
  <crystal>
   <varray name="basis" >
    <v>      10.00000000       0.00000000       0.00000000 </v>
    <v>       0.00000000      10.00000000       0.00000000 </v>
    <v>       0.00000000       0.00000000      10.00000000 </v>
   </varray>
   <i name="volume">   1000.00000000 </i>
   <varray name="rec_basis" >
    <v>       0.10000000       0.00000000       0.00000000 </v>
    <v>       0.00000000       0.10000000       0.00000000 </v>
    <v>       0.00000000       0.00000000       0.10000000 </v>
   </varray>
  </crystal>
  <varray name="positions" >
   <v>       0.50000000       0.50000000       0.50000000 </v>
  </varray>
 </structure>
</modeling>
