<?xml version="1.0" encoding="ISO-8859-1"?>
<modeling>
 <generator>
  <i name="program" type="string">vasp </i>
  <i name="version" type="string">5.4.4.18Apr17-6-g9f103f2a35  </i>
  <i name="subversion" type="string">(build Apr 25 2017 10:43:04) complex            parallel </i>
  <i name="platform" type="string">LinuxIFC </i>
  <i name="date" type="string">2017 12 01 </i>
  <i name="time" type="string">13:34:54 </i>
 </generator>
 <incar>
  <i type="string" name="PREC">a</i>
  <i type="string" name="ALGO"> N</i>
  <i type="int" name="ISPIN">     2</i>
  <i type="int" name="NELM">   100</i>
  <i type="int" name="NELMIN">     4</i>
  <i type="int" name="IBRION">     2</i>
  <i name="EDIFF">      0.00010000</i>
  <i name="EDIFFG">     -0.05000000</i>
  <i type="int" name="NSW">   100</i>
  <i type="int" name="ISIF">     2</i>
  <i name="NUPDOWN">      2.00000000</i>
  <i type="logical" name="LREAL"> F  </i>
  <i type="int" name="ISMEAR">     0</i>
  <i name="SIGMA">      0.05000000</i>
  <i type="logical" name="LWAVE"> F  </i>
  <i type="logical" name="LCHARG"> T  </i>
  <i type="int" name="LORBIT">    12</i>
  <i type="logical" name="LASPH"> T  </i>
  <v type="int" name="KPOINT_BSE">    -1     0     0     0</v>
  <i type="int" name="NELM">   100</i>
  <i type="string" name="GGA"> PS</i>
  <i type="logical" name="LEPSILON"> F  </i>
  <i type="logical" name="LRPA"> F  </i>
  <i type="logical" name="LASPH"> T  </i>
 </incar>
 <structure name="primitive_cell" >
  <crystal>
   <varray name="basis" >
    <v>      20.00000000       0.00000000       0.00000000 </v>
    <v>       0.00000000      20.00000000       0.00000000 </v>
    <v>       0.00000000       0.00000000      20.00000000 </v>
   </varray>
   <i name="volume">   8000.00000000 </i>
   <varray name="rec_basis" >
    <v>       0.05000000       0.00000000       0.00000000 </v>
    <v>       0.00000000       0.05000000       0.00000000 </v>
    <v>       0.00000000       0.00000000       0.05000000 </v>
   </varray>
  </crystal>
  <varray name="positions" >
   <v>      -0.00052685       0.00000000       0.00000000 </v>
   <v>       0.06090185       0.00000000       0.00000000 </v>
  </varray>
 </structure>
 <varray name="primitive_index" >
  <v type="int" >        1 </v>
  <v type="int" >        2 </v>
 </varray>
 <kpoints>
  <generation param="Monkhorst-Pack">
   <v type="int" name="divisions">       1        1        1 </v>
   <v name="usershift">      0.00000000       0.00000000       0.00000000 </v>
   <v name="genvec1">      1.00000000       0.00000000       0.00000000 </v>
   <v name="genvec2">      0.00000000       1.00000000       0.00000000 </v>
   <v name="genvec3">      0.00000000       0.00000000       1.00000000 </v>
   <v name="energy_shift">      0.00000000       0.00000000       0.00000000 </v>
  </generation>
  <varray name="kpointlist" >
   <v>       0.00000000       0.00000000       0.00000000 </v>
  </varray>
  <varray name="weights" >
   <v>       1.00000000 </v>
  </varray>
 </kpoints>
 <parameters>
  <separator name="general" >
   <i type="string" name="SYSTEM">unknown system</i>
   <i type="logical" name="LCOMPAT"> F  </i>
  </separator>
  <separator name="electronic" >
   <i type="string" name="PREC">a</i>
   <i name="ENMAX">    400.00000000</i>
   <i name="ENAUG">    605.39200000</i>
   <i name="EDIFF">      0.00010000</i>
   <i type="int" name="IALGO">    38</i>
   <i type="int" name="IWAVPR">    11</i>
   <i type="int" name="NBANDS">    12</i>
   <i name="NELECT">     12.00000000</i>
   <i type="int" name="TURBO">     0</i>
   <i type="int" name="IRESTART">     0</i>
   <i type="int" name="NREBOOT">     0</i>
   <i type="int" name="NMIN">     0</i>
   <i name="EREF">      0.00000000</i>
   <separator name="electronic smearing" >
    <i type="int" name="ISMEAR">     0</i>
    <i name="SIGMA">      0.05000000</i>
    <i name="KSPACING">      0.50000000</i>
    <i type="logical" name="KGAMMA"> T  </i>
   </separator>
   <separator name="electronic projectors" >
    <i type="logical" name="LREAL"> F  </i>
    <v name="ROPT">      0.00000000</v>
    <i type="int" name="LMAXPAW">  -100</i>
    <i type="int" name="LMAXMIX">     2</i>
    <i type="logical" name="NLSPLINE"> F  </i>
   </separator>
   <separator name="electronic startup" >
    <i type="int" name="ISTART">     0</i>
    <i type="int" name="ICHARG">     2</i>
    <i type="int" name="INIWAV">     1</i>
   </separator>
   <separator name="electronic spin" >
    <i type="int" name="ISPIN">     2</i>
    <i type="logical" name="LNONCOLLINEAR"> F  </i>
    <v name="MAGMOM">      1.00000000      1.00000000</v>
    <i name="NUPDOWN">      2.00000000</i>
    <i type="logical" name="LSORBIT"> F  </i>
    <v name="SAXIS">      0.00000000      0.00000000      1.00000000</v>
    <i type="logical" name="LSPIRAL"> F  </i>
    <v name="QSPIRAL">      0.00000000      0.00000000      0.00000000</v>
    <i type="logical" name="LZEROZ"> F  </i>
   </separator>
   <separator name="electronic exchange-correlation" >
    <i type="logical" name="LASPH"> T  </i>
    <i type="logical" name="LMETAGGA"> F  </i>
   </separator>
   <separator name="electronic convergence" >
    <i type="int" name="NELM">   100</i>
    <i type="int" name="NELMDL">     0</i>
    <i type="int" name="NELMIN">     4</i>
    <i name="ENINI">    400.00000000</i>
    <separator name="electronic convergence detail" >
     <i type="logical" name="LDIAG"> T  </i>
     <i type="logical" name="LSUBROT"> F  </i>
     <i name="WEIMIN">      0.00100000</i>
     <i name="EBREAK">      0.00000208</i>
     <i name="DEPER">      0.30000000</i>
     <i type="int" name="NRMM">     4</i>
     <i name="TIME">      0.40000000</i>
    </separator>
   </separator>
   <separator name="electronic mixer" >
    <i name="AMIX">      0.40000000</i>
    <i name="BMIX">      1.00000000</i>
    <i name="AMIN">      0.10000000</i>
    <i name="AMIX_MAG">      1.60000000</i>
    <i name="BMIX_MAG">      1.00000000</i>
    <separator name="electronic mixer details" >
     <i type="int" name="IMIX">     4</i>
     <i type="logical" name="MIXFIRST"> F  </i>
     <i type="int" name="MAXMIX">   -45</i>
     <i name="WC">    100.00000000</i>
     <i type="int" name="INIMIX">     1</i>
     <i type="int" name="MIXPRE">     1</i>
     <i type="int" name="MREMOVE">     5</i>
    </separator>
   </separator>
   <separator name="electronic dipolcorrection" >
    <i type="logical" name="LDIPOL"> F  </i>
    <i type="logical" name="LMONO"> F  </i>
    <i type="int" name="IDIPOL">     0</i>
    <i name="EPSILON">      1.00000000</i>
    <v name="DIPOL">   -100.00000000   -100.00000000   -100.00000000</v>
    <i name="EFIELD">      0.00000000</i>
   </separator>
  </separator>
  <separator name="grids" >
   <i type="int" name="NGX">   140</i>
   <i type="int" name="NGY">   140</i>
   <i type="int" name="NGZ">   140</i>
   <i type="int" name="NGXF">   280</i>
   <i type="int" name="NGYF">   280</i>
   <i type="int" name="NGZF">   280</i>
   <i type="logical" name="ADDGRID"> F  </i>
  </separator>
  <separator name="ionic" >
   <i type="int" name="NSW">   100</i>
   <i type="int" name="IBRION">     2</i>
   <i type="int" name="MDALGO">     0</i>
   <i type="int" name="ISIF">     2</i>
   <i name="PSTRESS">      0.00000000</i>
   <i name="EDIFFG">     -0.05000000</i>
   <i type="int" name="NFREE">     1</i>
   <i name="POTIM">      0.50000000</i>
   <i name="SMASS">     -3.00000000</i>
   <i name="SCALEE">      1.00000000</i>
  </separator>
  <separator name="ionic md" >
   <i name="TEBEG">      0.00010000</i>
   <i name="TEEND">      0.00010000</i>
   <i type="int" name="NBLOCK">     1</i>
   <i type="int" name="KBLOCK">   100</i>
   <i type="int" name="NPACO">   256</i>
   <i name="APACO">     16.00000000</i>
  </separator>
  <separator name="symmetry" >
   <i type="int" name="ISYM">     2</i>
   <i name="SYMPREC">      0.00001000</i>
  </separator>
  <separator name="dos" >
   <i type="int" name="LORBIT">    12</i>
   <v name="RWIGS">     -1.00000000</v>
   <i type="int" name="NEDOS">   301</i>
   <i name="EMIN">     10.00000000</i>
   <i name="EMAX">    -10.00000000</i>
   <i name="EFERMI">      0.00000000</i>
  </separator>
  <separator name="writing" >
   <i type="int" name="NWRITE">     2</i>
   <i type="logical" name="LWAVE"> F  </i>
   <i type="logical" name="LDOWNSAMPLE"> F  </i>
   <i type="logical" name="LCHARG"> T  </i>
   <i type="logical" name="LPARD"> F  </i>
   <i type="logical" name="LVTOT"> F  </i>
   <i type="logical" name="LVHAR"> F  </i>
   <i type="logical" name="LELF"> F  </i>
   <i type="logical" name="LOPTICS"> F  </i>
   <v name="STM">      0.00000000      0.00000000      0.00000000      0.00000000      0.00000000      0.00000000      0.00000000</v>
  </separator>
  <separator name="performance" >
   <i type="int" name="NPAR">     4</i>
   <i type="int" name="NSIM">     4</i>
   <i type="int" name="NBLK">    -1</i>
   <i type="logical" name="LPLANE"> T  </i>
   <i type="logical" name="LSCALAPACK"> T  </i>
   <i type="logical" name="LSCAAWARE"> F  </i>
   <i type="logical" name="LSCALU"> F  </i>
   <i type="logical" name="LASYNC"> F  </i>
   <i type="logical" name="LORBITALREAL"> F  </i>
  </separator>
  <separator name="miscellaneous" >
   <i type="int" name="IDIOT">     3</i>
   <i type="int" name="ISPECIAL">     0</i>
   <i type="logical" name="LMUSIC"> F  </i>
   <v name="POMASS">     16.00000000</v>
   <v name="DARWINR">      0.00000000</v>
   <v name="DARWINV">      1.00000000</v>
   <i type="logical" name="LCORR"> T  </i>
  </separator>
  <i type="logical" name="GGA_COMPAT"> T  </i>
  <i type="logical" name="LBERRY"> F  </i>
  <i type="int" name="ICORELEVEL">     0</i>
  <i type="logical" name="LDAU"> F  </i>
  <i type="int" name="I_CONSTRAINED_M">     0</i>
  <separator name="electronic exchange-correlation" >
   <i type="string" name="GGA">PS</i>
   <i type="int" name="VOSKOWN">     0</i>
   <i type="logical" name="LHFCALC"> F  </i>
   <i type="string" name="PRECFOCK"></i>
   <i type="logical" name="LSYMGRAD"> F  </i>
   <i type="logical" name="LHFONE"> F  </i>
   <i type="logical" name="LRHFCALC"> F  </i>
   <i type="logical" name="LTHOMAS"> F  </i>
   <i type="logical" name="LMODELHF"> F  </i>
   <i name="ENCUT4O">     -1.00000000</i>
   <i type="int" name="EXXOEP">     0</i>
   <i type="int" name="FOURORBIT">     0</i>
   <i name="AEXX">      0.00000000</i>
   <i name="HFALPHA">      0.00000000</i>
   <i name="MCALPHA">      0.00000000</i>
   <i name="ALDAX">      1.00000000</i>
   <i name="AGGAX">      1.00000000</i>
   <i name="ALDAC">      1.00000000</i>
   <i name="AGGAC">      1.00000000</i>
   <i type="int" name="NKREDX">     1</i>
   <i type="int" name="NKREDY">     1</i>
   <i type="int" name="NKREDZ">     1</i>
   <i type="logical" name="SHIFTRED"> F  </i>
   <i type="logical" name="ODDONLY"> F  </i>
   <i type="logical" name="EVENONLY"> F  </i>
   <i type="int" name="LMAXFOCK">     0</i>
   <i type="int" name="NMAXFOCKAE">     0</i>
   <i type="logical" name="LFOCKAEDFT"> F  </i>
   <i name="HFSCREEN">      0.00000000</i>
   <i name="HFSCREENC">      0.00000000</i>
   <i type="int" name="NBANDSGWLOW">     0</i>
  </separator>
  <separator name="vdW DFT" >
   <i type="logical" name="LUSE_VDW"> F  </i>
   <i name="Zab_VDW">     -0.84910000</i>
   <i name="PARAM1">      0.12340000</i>
   <i name="PARAM2">      1.00000000</i>
   <i name="PARAM3">      0.00000000</i>
  </separator>
  <separator name="model GW" >
   <i type="int" name="MODEL_GW">     0</i>
   <i name="MODEL_EPS0">   2400.00000000</i>
   <i name="MODEL_ALPHA">      1.00000000</i>
  </separator>
  <separator name="linear response parameters" >
   <i type="logical" name="LEPSILON"> F  </i>
   <i type="logical" name="LRPA"> F  </i>
   <i type="logical" name="LNABLA"> F  </i>
   <i type="logical" name="LVEL"> F  </i>
   <i type="int" name="KINTER">     0</i>
   <i name="CSHIFT">      0.10000000</i>
   <i name="OMEGAMAX">     -1.00000000</i>
   <i name="DEG_THRESHOLD">      0.00200000</i>
   <i name="RTIME">     -0.10000000</i>
   <i name="WPLASMAI">      0.00000000</i>
   <v name="DFIELD">      0.00000000      0.00000000      0.00000000</v>
   <v name="WPLASMA">      0.00000000      0.00000000      0.00000000      0.00000000      0.00000000      0.00000000      0.00000000      0.00000000      0.00000000</v>
  </separator>
  <separator name="orbital magnetization" >
   <i type="logical" name="NUCIND"> F  </i>
   <v name="MAGPOS">      0.00000000      0.00000000      0.00000000</v>
   <i type="logical" name="LNICSALL"> T  </i>
   <i type="logical" name="ORBITALMAG"> F  </i>
   <i type="logical" name="LMAGBLOCH"> F  </i>
   <i type="logical" name="LCHIMAG"> F  </i>
   <i type="logical" name="LGAUGE"> T  </i>
   <i type="int" name="MAGATOM">     0</i>
   <v name="MAGDIPOL">      0.00000000      0.00000000      0.00000000</v>
   <v name="AVECCONST">      0.00000000      0.00000000      0.00000000</v>
  </separator>
  <separator name="response functions" >
   <i type="logical" name="LADDER"> T  </i>
   <i type="logical" name="LRPAFORCE"> F  </i>
   <i type="logical" name="LFXC"> F  </i>
   <i type="logical" name="LHARTREE"> T  </i>
   <i type="int" name="IBSE">     0</i>
   <v type="int" name="KPOINT">    -1     0     0     0</v>
   <i type="logical" name="LTCTE"> F  </i>
   <i type="logical" name="LTETE"> F  </i>
   <i type="logical" name="LTRIPLET"> F  </i>
   <i type="logical" name="LFXCEPS"> F  </i>
   <i type="logical" name="LFXHEG"> F  </i>
   <i type="int" name="NATURALO">     2</i>
   <i type="logical" name="L2ORDER"> F  </i>
   <i type="logical" name="LMP2LT"> F  </i>
   <i type="logical" name="LUSEW"> F  </i>
   <i name="ENCUTGW">     -2.00000000</i>
   <i name="ENCUTGWSOFT">     -2.00000000</i>
   <i name="ENCUTLF">     -1.00000000</i>
   <i type="int" name="LMAXMP2">    -1</i>
   <i name="SCISSOR">      0.00000000</i>
   <i type="int" name="NOMEGA">     0</i>
   <i type="int" name="NOMEGAR">     0</i>
   <i type="int" name="NBANDSGW">    -1</i>
   <i type="int" name="NBANDSO">    -1</i>
   <i type="int" name="NBANDSV">    -1</i>
   <i type="int" name="NELM">   100</i>
   <i type="int" name="NELMHF">     1</i>
   <i type="int" name="DIM">     3</i>
   <i type="int" name="ANTIRES">     0</i>
   <i name="OMEGAMAX">    -30.00000000</i>
   <i name="OMEGAMIN">    -30.00000000</i>
   <i name="OMEGATL">   -200.00000000</i>
   <i type="int" name="OMEGAGRID">   140</i>
   <i name="CSHIFT">     -0.10000000</i>
   <i type="logical" name="SELFENERGY"> F  </i>
   <i type="logical" name="LSPECTRAL"> F  </i>
   <i type="logical" name="LSPECTRALGW"> F  </i>
   <i type="logical" name="LSINGLES"> F  </i>
   <i type="logical" name="LFERMIGW"> F  </i>
   <i type="logical" name="ODDONLYGW"> F  </i>
   <i type="logical" name="EVENONLYGW"> F  </i>
   <i type="int" name="NKREDLFX">     1</i>
   <i type="int" name="NKREDLFY">     1</i>
   <i type="int" name="NKREDLFZ">     1</i>
   <i type="int" name="MAXMEM">  2800</i>
   <i type="int" name="TELESCOPE">     0</i>
   <i type="int" name="TAUPAR">     1</i>
   <i type="int" name="OMEGAPAR">    -1</i>
   <i name="LAMBDA">      1.00000000</i>
  </separator>
  <separator name="External order field" >
   <i name="OFIELD_KAPPA">      0.00000000</i>
   <v name="OFIELD_K">      0.00000000      0.00000000      0.00000000</v>
   <i name="OFIELD_Q6_NEAR">      0.00000000</i>
   <i name="OFIELD_Q6_FAR">      0.00000000</i>
   <i name="OFIELD_A">      0.00000000</i>
  </separator>
 </parameters>
 <atominfo>
  <atoms>       2 </atoms>
  <types>       1 </types>
  <array name="atoms" >
   <dimension dim="1">ion</dimension>
   <field type="string">element</field>
   <field type="int">atomtype</field>
   <set>
    <rc><c>O </c><c>   1</c></rc>
    <rc><c>O </c><c>   1</c></rc>
   </set>
  </array>
  <array name="atomtypes" >
   <dimension dim="1">type</dimension>
   <field type="int">atomspertype</field>
   <field type="string">element</field>
   <field>mass</field>
   <field>valence</field>
   <field type="string">pseudopotential</field>
   <set>
    <rc><c>   2</c><c>O </c><c>     16.00000000</c><c>      6.00000000</c><c>  PAW_PBE O 08Apr2002                   </c></rc>
   </set>
  </array>
 </atominfo>
 <structure name="initialpos" >
  <crystal>
   <varray name="basis" >
    <v>      20.00000000       0.00000000       0.00000000 </v>
    <v>       0.00000000      20.00000000       0.00000000 </v>
    <v>       0.00000000       0.00000000      20.00000000 </v>
   </varray>
   <i name="volume">   8000.00000000 </i>
   <varray name="rec_basis" >
    <v>       0.05000000       0.00000000       0.00000000 </v>
    <v>       0.00000000       0.05000000       0.00000000 </v>
    <v>       0.00000000       0.00000000       0.05000000 </v>
   </varray>
  </crystal>
  <varray name="positions" >
   <v>       0.99947315       0.00000000       0.00000000 </v>
   <v>       0.06090185       0.00000000       0.00000000 </v>
  </varray>
 </structure>
 <calculation>
  <scstep>
   <time name="dav">    2.32    2.33</time>
   <time name="total">    7.93    7.96</time>
   <energy>
    <i name="alphaZ">      0.06947723 </i>
    <i name="ewald">    275.06899587 </i>
    <i name="hartreedc">  -1000.95972391 </i>
    <i name="XCdc">     55.19835932 </i>
    <i name="pawpsdc">    692.29218979 </i>
    <i name="pawaedc">   -694.92182955 </i>
    <i name="eentropy">     -0.00978589 </i>
    <i name="bandstr">    -86.71345051 </i>
    <i name="atom">    861.07997078 </i>
    <i name="e_fr_energy">    101.10420313 </i>
    <i name="e_wo_entrp">    101.11398902 </i>
    <i name="e_0_energy">    101.10909608 </i>
   </energy>
  </scstep>
  <scstep>
   <time name="dav">    2.42    2.43</time>
   <time name="total">    2.42    2.43</time>
   <energy>
    <i name="e_fr_energy">     38.77194642 </i>
    <i name="e_wo_entrp">     38.78131703 </i>
    <i name="e_0_energy">     38.77663172 </i>
   </energy>
  </scstep>
  <scstep>
   <time name="dav">    2.32    2.32</time>
   <time name="total">    2.32    2.32</time>
   <energy>
    <i name="e_fr_energy">      7.49931910 </i>
    <i name="e_wo_entrp">      7.49931934 </i>
    <i name="e_0_energy">      7.49931922 </i>
   </energy>
  </scstep>
  <scstep>
   <time name="dav">    2.74    2.74</time>
   <time name="total">    2.74    2.74</time>
   <energy>
    <i name="e_fr_energy">     -6.38385063 </i>
    <i name="e_wo_entrp">     -6.38385063 </i>
    <i name="e_0_energy">     -6.38385063 </i>
   </energy>
  </scstep>
  <scstep>
   <time name="dav">    2.31    2.32</time>
   <time name="total">    3.54    3.55</time>
   <energy>
    <i name="e_fr_energy">    -10.13674081 </i>
    <i name="e_wo_entrp">    -10.13674081 </i>
    <i name="e_0_energy">    -10.13674081 </i>
   </energy>
  </scstep>
  <scstep>
   <time name="dav">    2.00    2.00</time>
   <time name="total">    8.87    8.88</time>
   <energy>
    <i name="e_fr_energy">     -9.82244992 </i>
    <i name="e_wo_entrp">     -9.82244992 </i>
    <i name="e_0_energy">     -9.82244992 </i>
   </energy>
  </scstep>
  <scstep>
   <time name="dav">    2.21    2.21</time>
   <time name="total">    9.08    9.08</time>
   <energy>
    <i name="e_fr_energy">    -10.25295853 </i>
    <i name="e_wo_entrp">    -10.25295853 </i>
    <i name="e_0_energy">    -10.25295853 </i>
   </energy>
  </scstep>
  <scstep>
   <time name="dav">    2.11    2.11</time>
   <time name="total">    8.95    8.97</time>
   <energy>
    <i name="e_fr_energy">    -10.25401464 </i>
    <i name="e_wo_entrp">    -10.25401464 </i>
    <i name="e_0_energy">    -10.25401464 </i>
   </energy>
  </scstep>
  <scstep>
   <time name="dav">    2.12    2.12</time>
   <time name="total">    8.98    8.98</time>
   <energy>
    <i name="e_fr_energy">    -10.26206190 </i>
    <i name="e_wo_entrp">    -10.26206190 </i>
    <i name="e_0_energy">    -10.26206190 </i>
   </energy>
  </scstep>
  <scstep>
   <time name="dav">    2.01    2.01</time>
   <time name="total">    8.88    8.88</time>
   <energy>
    <i name="e_fr_energy">    -10.26336106 </i>
    <i name="e_wo_entrp">    -10.26336106 </i>
    <i name="e_0_energy">    -10.26336106 </i>
   </energy>
  </scstep>
  <scstep>
   <time name="dav">    2.30    2.31</time>
   <time name="total">    9.21    9.22</time>
   <energy>
    <i name="e_fr_energy">    -10.26371850 </i>
    <i name="e_wo_entrp">    -10.26371850 </i>
    <i name="e_0_energy">    -10.26371850 </i>
   </energy>
  </scstep>
  <scstep>
   <time name="dav">    2.00    2.00</time>
   <time name="total">    8.90    8.91</time>
   <energy>
    <i name="e_fr_energy">    -10.26385124 </i>
    <i name="e_wo_entrp">    -10.26385124 </i>
    <i name="e_0_energy">    -10.26385124 </i>
   </energy>
  </scstep>
  <scstep>
   <time name="dav">    2.10    2.10</time>
   <time name="total">    9.01    9.01</time>
   <energy>
    <i name="e_fr_energy">    -10.26396031 </i>
    <i name="e_wo_entrp">    -10.26396031 </i>
    <i name="e_0_energy">    -10.26396031 </i>
   </energy>
  </scstep>
  <scstep>
   <time name="dav">    2.10    2.10</time>
   <time name="total">    7.72    7.73</time>
   <energy>
    <i name="alphaZ">      0.06947723 </i>
    <i name="ewald">    275.06899587 </i>
    <i name="hartreedc">  -1006.60327385 </i>
    <i name="XCdc">     55.82117695 </i>
    <i name="pawpsdc">    903.06468635 </i>
    <i name="pawaedc">   -905.63865440 </i>
    <i name="eentropy">     -0.00000000 </i>
    <i name="bandstr">   -193.12642616 </i>
    <i name="atom">    861.07997078 </i>
    <i name="e_fr_energy">    -10.26404723 </i>
    <i name="e_wo_entrp">    -10.26404723 </i>
    <i name="e_0_energy">    -10.26404723 </i>
   </energy>
  </scstep>
  <structure>
   <crystal>
    <varray name="basis" >
     <v>      20.00000000       0.00000000       0.00000000 </v>
     <v>       0.00000000      20.00000000       0.00000000 </v>
     <v>       0.00000000       0.00000000      20.00000000 </v>
    </varray>
    <i name="volume">   8000.00000000 </i>
    <varray name="rec_basis" >
     <v>       0.05000000       0.00000000       0.00000000 </v>
     <v>       0.00000000       0.05000000       0.00000000 </v>
     <v>       0.00000000       0.00000000       0.05000000 </v>
    </varray>
   </crystal>
   <varray name="positions" >
    <v>       0.99947315       0.00000000       0.00000000 </v>
    <v>       0.06090185       0.00000000       0.00000000 </v>
   </varray>
  </structure>
  <varray name="forces" >
   <v>       0.00702588       0.00000000      -0.00000000 </v>
   <v>      -0.00702588      -0.00000000       0.00000000 </v>
  </varray>
  <varray name="stress" >
   <v>      -0.25220760       0.00000000      -0.00000000 </v>
   <v>       0.00000000      -0.33028882      -0.00000000 </v>
   <v>       0.00000000      -0.00000000      -0.33028882 </v>
  </varray>
  <energy>
   <i name="e_fr_energy">    -10.26404723 </i>
   <i name="e_wo_entrp">    -10.26404723 </i>
   <i name="e_0_energy">     -0.00000000 </i>
  </energy>
  <time name="totalsc">  157.44  162.15</time>
  <eigenvalues>
   <array>
    <dimension dim="1">band</dimension>
    <dimension dim="2">kpoint</dimension>
    <dimension dim="3">spin</dimension>
    <field>eigene</field>
    <field>occ</field>
    <set>
     <set comment="spin 1">
      <set comment="kpoint 1">
       <r>  -32.6598    1.0000 </r>
       <r>  -20.5460    1.0000 </r>
       <r>  -13.5043    1.0000 </r>
       <r>  -13.3910    1.0000 </r>
       <r>  -13.3910    1.0000 </r>
       <r>   -6.9355    1.0000 </r>
       <r>   -6.9355    1.0000 </r>
       <r>   -0.2184    0.0000 </r>
       <r>    0.1096    0.0000 </r>
       <r>    0.2183    0.0000 </r>
       <r>    0.2183    0.0000 </r>
       <r>    0.2444    0.0000 </r>
      </set>
     </set>
     <set comment="spin 2">
      <set comment="kpoint 1">
       <r>  -31.3997    1.0000 </r>
       <r>  -18.7632    1.0000 </r>
       <r>  -12.4839    1.0000 </r>
       <r>  -11.5583    1.0000 </r>
       <r>  -11.5583    1.0000 </r>
       <r>   -4.6853    0.0000 </r>
       <r>   -4.6853    0.0000 </r>
       <r>   -0.1574    0.0000 </r>
       <r>    0.1645    0.0000 </r>
       <r>    0.2408    0.0000 </r>
       <r>    0.2408    0.0000 </r>
       <r>    0.2793    0.0000 </r>
      </set>
     </set>
    </set>
   </array>
  </eigenvalues>
  <separator name="orbital magnetization" >
   <v name="MAGDIPOLOUT">      0.00000000      0.00000000      0.00000000</v>
  </separator>
  <dos>
   <i name="efermi">    -11.22331848 </i>
   <total>
    <array>
     <dimension dim="1">gridpoints</dimension>
     <dimension dim="2">spin</dimension>
     <field>energy</field>
     <field>total</field>
     <field>integrated</field>
     <set>
      <set comment="spin 1">
       <r>   -34.3068     0.0000     0.0000 </r>
       <r>   -34.1860     0.0000     0.0000 </r>
       <r>   -34.0652     0.0000     0.0000 </r>
       <r>   -33.9444     0.0000     0.0000 </r>
       <r>   -33.8237     0.0000     0.0000 </r>
       <r>   -33.7029     0.0000     0.0000 </r>
       <r>   -33.5821     0.0000     0.0000 </r>
       <r>   -33.4613     0.0000     0.0000 </r>
       <r>   -33.3406     0.0000     0.0000 </r>
       <r>   -33.2198     0.0000     0.0000 </r>
       <r>   -33.0990     0.0000     0.0000 </r>
       <r>   -32.9782     0.0000     0.0000 </r>
       <r>   -32.8575     0.0000     0.0000 </r>
       <r>   -32.7367     0.2460     0.0297 </r>
       <r>   -32.6159    14.5403     1.7858 </r>
       <r>   -32.4951     1.7732     2.0000 </r>
       <r>   -32.3743     0.0000     2.0000 </r>
       <r>   -32.2536     0.0000     2.0000 </r>
       <r>   -32.1328     0.0000     2.0000 </r>
       <r>   -32.0120     0.0000     2.0000 </r>
       <r>   -31.8912     0.0000     2.0000 </r>
       <r>   -31.7705     0.0000     2.0000 </r>
       <r>   -31.6497     0.0000     2.0000 </r>
       <r>   -31.5289     0.0000     2.0000 </r>
       <r>   -31.4081     0.0000     2.0000 </r>
       <r>   -31.2874     0.0000     2.0000 </r>
       <r>   -31.1666     0.0000     2.0000 </r>
       <r>   -31.0458     0.0000     2.0000 </r>
       <r>   -30.9250     0.0000     2.0000 </r>
       <r>   -30.8042     0.0000     2.0000 </r>
       <r>   -30.6835     0.0000     2.0000 </r>
       <r>   -30.5627     0.0000     2.0000 </r>
       <r>   -30.4419     0.0000     2.0000 </r>
       <r>   -30.3211     0.0000     2.0000 </r>
       <r>   -30.2004     0.0000     2.0000 </r>
       <r>   -30.0796     0.0000     2.0000 </r>
       <r>   -29.9588     0.0000     2.0000 </r>
       <r>   -29.8380     0.0000     2.0000 </r>
       <r>   -29.7173     0.0000     2.0000 </r>
       <r>   -29.5965     0.0000     2.0000 </r>
       <r>   -29.4757     0.0000     2.0000 </r>
       <r>   -29.3549     0.0000     2.0000 </r>
       <r>   -29.2341     0.0000     2.0000 </r>
       <r>   -29.1134     0.0000     2.0000 </r>
       <r>   -28.9926     0.0000     2.0000 </r>
       <r>   -28.8718     0.0000     2.0000 </r>
       <r>   -28.7510     0.0000     2.0000 </r>
       <r>   -28.6303     0.0000     2.0000 </r>
       <r>   -28.5095     0.0000     2.0000 </r>
       <r>   -28.3887     0.0000     2.0000 </r>
       <r>   -28.2679     0.0000     2.0000 </r>
       <r>   -28.1472     0.0000     2.0000 </r>
       <r>   -28.0264     0.0000     2.0000 </r>
       <r>   -27.9056     0.0000     2.0000 </r>
       <r>   -27.7848     0.0000     2.0000 </r>
       <r>   -27.6641     0.0000     2.0000 </r>
       <r>   -27.5433     0.0000     2.0000 </r>
       <r>   -27.4225     0.0000     2.0000 </r>
       <r>   -27.3017     0.0000     2.0000 </r>
       <r>   -27.1809     0.0000     2.0000 </r>
       <r>   -27.0602     0.0000     2.0000 </r>
       <r>   -26.9394     0.0000     2.0000 </r>
       <r>   -26.8186     0.0000     2.0000 </r>
       <r>   -26.6978     0.0000     2.0000 </r>
       <r>   -26.5771     0.0000     2.0000 </r>
       <r>   -26.4563     0.0000     2.0000 </r>
       <r>   -26.3355     0.0000     2.0000 </r>
       <r>   -26.2147     0.0000     2.0000 </r>
       <r>   -26.0940     0.0000     2.0000 </r>
       <r>   -25.9732     0.0000     2.0000 </r>
       <r>   -25.8524     0.0000     2.0000 </r>
       <r>   -25.7316     0.0000     2.0000 </r>
       <r>   -25.6108     0.0000     2.0000 </r>
       <r>   -25.4901     0.0000     2.0000 </r>
       <r>   -25.3693     0.0000     2.0000 </r>
       <r>   -25.2485     0.0000     2.0000 </r>
       <r>   -25.1277     0.0000     2.0000 </r>
       <r>   -25.0070     0.0000     2.0000 </r>
       <r>   -24.8862     0.0000     2.0000 </r>
       <r>   -24.7654     0.0000     2.0000 </r>
       <r>   -24.6446     0.0000     2.0000 </r>
       <r>   -24.5239     0.0000     2.0000 </r>
       <r>   -24.4031     0.0000     2.0000 </r>
       <r>   -24.2823     0.0000     2.0000 </r>
       <r>   -24.1615     0.0000     2.0000 </r>
       <r>   -24.0407     0.0000     2.0000 </r>
       <r>   -23.9200     0.0000     2.0000 </r>
       <r>   -23.7992     0.0000     2.0000 </r>
       <r>   -23.6784     0.0000     2.0000 </r>
       <r>   -23.5576     0.0000     2.0000 </r>
       <r>   -23.4369     0.0000     2.0000 </r>
       <r>   -23.3161     0.0000     2.0000 </r>
       <r>   -23.1953     0.0000     2.0000 </r>
       <r>   -23.0745     0.0000     2.0000 </r>
       <r>   -22.9538     0.0000     2.0000 </r>
       <r>   -22.8330     0.0000     2.0000 </r>
       <r>   -22.7122     0.0000     2.0000 </r>
       <r>   -22.5914     0.0000     2.0000 </r>
       <r>   -22.4707     0.0000     2.0000 </r>
       <r>   -22.3499     0.0000     2.0000 </r>
       <r>   -22.2291     0.0000     2.0000 </r>
       <r>   -22.1083     0.0000     2.0000 </r>
       <r>   -21.9875     0.0000     2.0000 </r>
       <r>   -21.8668     0.0000     2.0000 </r>
       <r>   -21.7460     0.0000     2.0000 </r>
       <r>   -21.6252     0.0000     2.0000 </r>
       <r>   -21.5044     0.0000     2.0000 </r>
       <r>   -21.3837     0.0000     2.0000 </r>
       <r>   -21.2629     0.0000     2.0000 </r>
       <r>   -21.1421     0.0000     2.0000 </r>
       <r>   -21.0213     0.0000     2.0000 </r>
       <r>   -20.9006     0.0000     2.0000 </r>
       <r>   -20.7798     0.0000     2.0000 </r>
       <r>   -20.6590     0.0115     2.0014 </r>
       <r>   -20.5382     9.7082     3.1739 </r>
       <r>   -20.4174     6.8375     3.9997 </r>
       <r>   -20.2967     0.0023     4.0000 </r>
       <r>   -20.1759     0.0000     4.0000 </r>
       <r>   -20.0551     0.0000     4.0000 </r>
       <r>   -19.9343     0.0000     4.0000 </r>
       <r>   -19.8136     0.0000     4.0000 </r>
       <r>   -19.6928     0.0000     4.0000 </r>
       <r>   -19.5720     0.0000     4.0000 </r>
       <r>   -19.4512     0.0000     4.0000 </r>
       <r>   -19.3305     0.0000     4.0000 </r>
       <r>   -19.2097     0.0000     4.0000 </r>
       <r>   -19.0889     0.0000     4.0000 </r>
       <r>   -18.9681     0.0000     4.0000 </r>
       <r>   -18.8473     0.0000     4.0000 </r>
       <r>   -18.7266     0.0000     4.0000 </r>
       <r>   -18.6058     0.0000     4.0000 </r>
       <r>   -18.4850     0.0000     4.0000 </r>
       <r>   -18.3642     0.0000     4.0000 </r>
       <r>   -18.2435     0.0000     4.0000 </r>
       <r>   -18.1227     0.0000     4.0000 </r>
       <r>   -18.0019     0.0000     4.0000 </r>
       <r>   -17.8811     0.0000     4.0000 </r>
       <r>   -17.7604     0.0000     4.0000 </r>
       <r>   -17.6396     0.0000     4.0000 </r>
       <r>   -17.5188     0.0000     4.0000 </r>
       <r>   -17.3980     0.0000     4.0000 </r>
       <r>   -17.2773     0.0000     4.0000 </r>
       <r>   -17.1565     0.0000     4.0000 </r>
       <r>   -17.0357     0.0000     4.0000 </r>
       <r>   -16.9149     0.0000     4.0000 </r>
       <r>   -16.7941     0.0000     4.0000 </r>
       <r>   -16.6734     0.0000     4.0000 </r>
       <r>   -16.5526     0.0000     4.0000 </r>
       <r>   -16.4318     0.0000     4.0000 </r>
       <r>   -16.3110     0.0000     4.0000 </r>
       <r>   -16.1903     0.0000     4.0000 </r>
       <r>   -16.0695     0.0000     4.0000 </r>
       <r>   -15.9487     0.0000     4.0000 </r>
       <r>   -15.8279     0.0000     4.0000 </r>
       <r>   -15.7072     0.0000     4.0000 </r>
       <r>   -15.5864     0.0000     4.0000 </r>
       <r>   -15.4656     0.0000     4.0000 </r>
       <r>   -15.3448     0.0000     4.0000 </r>
       <r>   -15.2240     0.0000     4.0000 </r>
       <r>   -15.1033     0.0000     4.0000 </r>
       <r>   -14.9825     0.0000     4.0000 </r>
       <r>   -14.8617     0.0000     4.0000 </r>
       <r>   -14.7409     0.0000     4.0000 </r>
       <r>   -14.6202     0.0000     4.0000 </r>
       <r>   -14.4994     0.0000     4.0000 </r>
       <r>   -14.3786     0.0000     4.0000 </r>
       <r>   -14.2578     0.0000     4.0000 </r>
       <r>   -14.1371     0.0000     4.0000 </r>
       <r>   -14.0163     0.0000     4.0000 </r>
       <r>   -13.8955     0.0000     4.0000 </r>
       <r>   -13.7747     0.0000     4.0000 </r>
       <r>   -13.6540     0.0002     4.0000 </r>
       <r>   -13.5332     3.4342     4.4148 </r>
       <r>   -13.4124    22.0658     7.0798 </r>
       <r>   -13.2916    24.0963     9.9901 </r>
       <r>   -13.1708     0.0820    10.0000 </r>
       <r>   -13.0501     0.0000    10.0000 </r>
       <r>   -12.9293     0.0000    10.0000 </r>
       <r>   -12.8085     0.0000    10.0000 </r>
       <r>   -12.6877     0.0000    10.0000 </r>
       <r>   -12.5670     0.0000    10.0000 </r>
       <r>   -12.4462     0.0000    10.0000 </r>
       <r>   -12.3254     0.0000    10.0000 </r>
       <r>   -12.2046     0.0000    10.0000 </r>
       <r>   -12.0839     0.0000    10.0000 </r>
       <r>   -11.9631     0.0000    10.0000 </r>
       <r>   -11.8423     0.0000    10.0000 </r>
       <r>   -11.7215     0.0000    10.0000 </r>
       <r>   -11.6007     0.0000    10.0000 </r>
       <r>   -11.4800     0.0000    10.0000 </r>
       <r>   -11.3592     0.0000    10.0000 </r>
       <r>   -11.2384     0.0000    10.0000 </r>
       <r>   -11.1176     0.0000    10.0000 </r>
       <r>   -10.9969     0.0000    10.0000 </r>
       <r>   -10.8761     0.0000    10.0000 </r>
       <r>   -10.7553     0.0000    10.0000 </r>
       <r>   -10.6345     0.0000    10.0000 </r>
       <r>   -10.5138     0.0000    10.0000 </r>
       <r>   -10.3930     0.0000    10.0000 </r>
       <r>   -10.2722     0.0000    10.0000 </r>
       <r>   -10.1514     0.0000    10.0000 </r>
       <r>   -10.0306     0.0000    10.0000 </r>
       <r>    -9.9099     0.0000    10.0000 </r>
       <r>    -9.7891     0.0000    10.0000 </r>
       <r>    -9.6683     0.0000    10.0000 </r>
       <r>    -9.5475     0.0000    10.0000 </r>
       <r>    -9.4268     0.0000    10.0000 </r>
       <r>    -9.3060     0.0000    10.0000 </r>
       <r>    -9.1852     0.0000    10.0000 </r>
       <r>    -9.0644     0.0000    10.0000 </r>
       <r>    -8.9437     0.0000    10.0000 </r>
       <r>    -8.8229     0.0000    10.0000 </r>
       <r>    -8.7021     0.0000    10.0000 </r>
       <r>    -8.5813     0.0000    10.0000 </r>
       <r>    -8.4606     0.0000    10.0000 </r>
       <r>    -8.3398     0.0000    10.0000 </r>
       <r>    -8.2190     0.0000    10.0000 </r>
       <r>    -8.0982     0.0000    10.0000 </r>
       <r>    -7.9774     0.0000    10.0000 </r>
       <r>    -7.8567     0.0000    10.0000 </r>
       <r>    -7.7359     0.0000    10.0000 </r>
       <r>    -7.6151     0.0000    10.0000 </r>
       <r>    -7.4943     0.0000    10.0000 </r>
       <r>    -7.3736     0.0000    10.0000 </r>
       <r>    -7.2528     0.0000    10.0000 </r>
       <r>    -7.1320     0.0000    10.0000 </r>
       <r>    -7.0112     0.5322    10.0643 </r>
       <r>    -6.8905    29.2271    13.5942 </r>
       <r>    -6.7697     3.3596    14.0000 </r>
       <r>    -6.6489     0.0000    14.0000 </r>
       <r>    -6.5281     0.0000    14.0000 </r>
       <r>    -6.4073     0.0000    14.0000 </r>
       <r>    -6.2866     0.0000    14.0000 </r>
       <r>    -6.1658     0.0000    14.0000 </r>
       <r>    -6.0450     0.0000    14.0000 </r>
       <r>    -5.9242     0.0000    14.0000 </r>
       <r>    -5.8035     0.0000    14.0000 </r>
       <r>    -5.6827     0.0000    14.0000 </r>
       <r>    -5.5619     0.0000    14.0000 </r>
       <r>    -5.4411     0.0000    14.0000 </r>
       <r>    -5.3204     0.0000    14.0000 </r>
       <r>    -5.1996     0.0000    14.0000 </r>
       <r>    -5.0788     0.0000    14.0000 </r>
       <r>    -4.9580     0.0000    14.0000 </r>
       <r>    -4.8372     0.0000    14.0000 </r>
       <r>    -4.7165     0.0000    14.0000 </r>
       <r>    -4.5957     0.0000    14.0000 </r>
       <r>    -4.4749     0.0000    14.0000 </r>
       <r>    -4.3541     0.0000    14.0000 </r>
       <r>    -4.2334     0.0000    14.0000 </r>
       <r>    -4.1126     0.0000    14.0000 </r>
       <r>    -3.9918     0.0000    14.0000 </r>
       <r>    -3.8710     0.0000    14.0000 </r>
       <r>    -3.7503     0.0000    14.0000 </r>
       <r>    -3.6295     0.0000    14.0000 </r>
       <r>    -3.5087     0.0000    14.0000 </r>
       <r>    -3.3879     0.0000    14.0000 </r>
       <r>    -3.2672     0.0000    14.0000 </r>
       <r>    -3.1464     0.0000    14.0000 </r>
       <r>    -3.0256     0.0000    14.0000 </r>
       <r>    -2.9048     0.0000    14.0000 </r>
       <r>    -2.7840     0.0000    14.0000 </r>
       <r>    -2.6633     0.0000    14.0000 </r>
       <r>    -2.5425     0.0000    14.0000 </r>
       <r>    -2.4217     0.0000    14.0000 </r>
       <r>    -2.3009     0.0000    14.0000 </r>
       <r>    -2.1802     0.0000    14.0000 </r>
       <r>    -2.0594     0.0000    14.0000 </r>
       <r>    -1.9386     0.0000    14.0000 </r>
       <r>    -1.8178     0.0000    14.0000 </r>
       <r>    -1.6971     0.0000    14.0000 </r>
       <r>    -1.5763     0.0000    14.0000 </r>
       <r>    -1.4555     0.0000    14.0000 </r>
       <r>    -1.3347     0.0000    14.0000 </r>
       <r>    -1.2139     0.0000    14.0000 </r>
       <r>    -1.0932     0.0000    14.0000 </r>
       <r>    -0.9724     0.0000    14.0000 </r>
       <r>    -0.8516     0.0000    14.0000 </r>
       <r>    -0.7308     0.0000    14.0000 </r>
       <r>    -0.6101     0.0000    14.0000 </r>
       <r>    -0.4893     0.0000    14.0000 </r>
       <r>    -0.3685     0.0002    14.0000 </r>
       <r>    -0.2477     3.3610    14.4060 </r>
       <r>    -0.1270    13.1177    15.9903 </r>
       <r>    -0.0062     0.0894    16.0011 </r>
       <r>     0.1146     9.2671    17.1203 </r>
       <r>     0.2354    36.5809    21.5384 </r>
       <r>     0.3562    20.3665    23.9982 </r>
       <r>     0.4769     0.0146    24.0000 </r>
       <r>     0.5977     0.0000    24.0000 </r>
       <r>     0.7185     0.0000    24.0000 </r>
       <r>     0.8393     0.0000    24.0000 </r>
       <r>     0.9600     0.0000    24.0000 </r>
       <r>     1.0808     0.0000    24.0000 </r>
       <r>     1.2016     0.0000    24.0000 </r>
       <r>     1.3224     0.0000    24.0000 </r>
       <r>     1.4431     0.0000    24.0000 </r>
       <r>     1.5639     0.0000    24.0000 </r>
       <r>     1.6847     0.0000    24.0000 </r>
       <r>     1.8055     0.0000    24.0000 </r>
       <r>     1.9262     0.0000    24.0000 </r>
      </set>
      <set comment="spin 2">
       <r>   -34.3068     0.0000     0.0000 </r>
       <r>   -34.1860     0.0000     0.0000 </r>
       <r>   -34.0652     0.0000     0.0000 </r>
       <r>   -33.9444     0.0000     0.0000 </r>
       <r>   -33.8237     0.0000     0.0000 </r>
       <r>   -33.7029     0.0000     0.0000 </r>
       <r>   -33.5821     0.0000     0.0000 </r>
       <r>   -33.4613     0.0000     0.0000 </r>
       <r>   -33.3406     0.0000     0.0000 </r>
       <r>   -33.2198     0.0000     0.0000 </r>
       <r>   -33.0990     0.0000     0.0000 </r>
       <r>   -32.9782     0.0000     0.0000 </r>
       <r>   -32.8575     0.0000     0.0000 </r>
       <r>   -32.7367     0.0000     0.0000 </r>
       <r>   -32.6159     0.0000     0.0000 </r>
       <r>   -32.4951     0.0000     0.0000 </r>
       <r>   -32.3743     0.0000     0.0000 </r>
       <r>   -32.2536     0.0000     0.0000 </r>
       <r>   -32.1328     0.0000     0.0000 </r>
       <r>   -32.0120     0.0000     0.0000 </r>
       <r>   -31.8912     0.0000     0.0000 </r>
       <r>   -31.7705     0.0000     0.0000 </r>
       <r>   -31.6497     0.0000     0.0000 </r>
       <r>   -31.5289     0.0021     0.0003 </r>
       <r>   -31.4081     6.7133     0.8111 </r>
       <r>   -31.2874     9.8318     1.9985 </r>
       <r>   -31.1666     0.0123     2.0000 </r>
       <r>   -31.0458     0.0000     2.0000 </r>
       <r>   -30.9250     0.0000     2.0000 </r>
       <r>   -30.8042     0.0000     2.0000 </r>
       <r>   -30.6835     0.0000     2.0000 </r>
       <r>   -30.5627     0.0000     2.0000 </r>
       <r>   -30.4419     0.0000     2.0000 </r>
       <r>   -30.3211     0.0000     2.0000 </r>
       <r>   -30.2004     0.0000     2.0000 </r>
       <r>   -30.0796     0.0000     2.0000 </r>
       <r>   -29.9588     0.0000     2.0000 </r>
       <r>   -29.8380     0.0000     2.0000 </r>
       <r>   -29.7173     0.0000     2.0000 </r>
       <r>   -29.5965     0.0000     2.0000 </r>
       <r>   -29.4757     0.0000     2.0000 </r>
       <r>   -29.3549     0.0000     2.0000 </r>
       <r>   -29.2341     0.0000     2.0000 </r>
       <r>   -29.1134     0.0000     2.0000 </r>
       <r>   -28.9926     0.0000     2.0000 </r>
       <r>   -28.8718     0.0000     2.0000 </r>
       <r>   -28.7510     0.0000     2.0000 </r>
       <r>   -28.6303     0.0000     2.0000 </r>
       <r>   -28.5095     0.0000     2.0000 </r>
       <r>   -28.3887     0.0000     2.0000 </r>
       <r>   -28.2679     0.0000     2.0000 </r>
       <r>   -28.1472     0.0000     2.0000 </r>
       <r>   -28.0264     0.0000     2.0000 </r>
       <r>   -27.9056     0.0000     2.0000 </r>
       <r>   -27.7848     0.0000     2.0000 </r>
       <r>   -27.6641     0.0000     2.0000 </r>
       <r>   -27.5433     0.0000     2.0000 </r>
       <r>   -27.4225     0.0000     2.0000 </r>
       <r>   -27.3017     0.0000     2.0000 </r>
       <r>   -27.1809     0.0000     2.0000 </r>
       <r>   -27.0602     0.0000     2.0000 </r>
       <r>   -26.9394     0.0000     2.0000 </r>
       <r>   -26.8186     0.0000     2.0000 </r>
       <r>   -26.6978     0.0000     2.0000 </r>
       <r>   -26.5771     0.0000     2.0000 </r>
       <r>   -26.4563     0.0000     2.0000 </r>
       <r>   -26.3355     0.0000     2.0000 </r>
       <r>   -26.2147     0.0000     2.0000 </r>
       <r>   -26.0940     0.0000     2.0000 </r>
       <r>   -25.9732     0.0000     2.0000 </r>
       <r>   -25.8524     0.0000     2.0000 </r>
       <r>   -25.7316     0.0000     2.0000 </r>
       <r>   -25.6108     0.0000     2.0000 </r>
       <r>   -25.4901     0.0000     2.0000 </r>
       <r>   -25.3693     0.0000     2.0000 </r>
       <r>   -25.2485     0.0000     2.0000 </r>
       <r>   -25.1277     0.0000     2.0000 </r>
       <r>   -25.0070     0.0000     2.0000 </r>
       <r>   -24.8862     0.0000     2.0000 </r>
       <r>   -24.7654     0.0000     2.0000 </r>
       <r>   -24.6446     0.0000     2.0000 </r>
       <r>   -24.5239     0.0000     2.0000 </r>
       <r>   -24.4031     0.0000     2.0000 </r>
       <r>   -24.2823     0.0000     2.0000 </r>
       <r>   -24.1615     0.0000     2.0000 </r>
       <r>   -24.0407     0.0000     2.0000 </r>
       <r>   -23.9200     0.0000     2.0000 </r>
       <r>   -23.7992     0.0000     2.0000 </r>
       <r>   -23.6784     0.0000     2.0000 </r>
       <r>   -23.5576     0.0000     2.0000 </r>
       <r>   -23.4369     0.0000     2.0000 </r>
       <r>   -23.3161     0.0000     2.0000 </r>
       <r>   -23.1953     0.0000     2.0000 </r>
       <r>   -23.0745     0.0000     2.0000 </r>
       <r>   -22.9538     0.0000     2.0000 </r>
       <r>   -22.8330     0.0000     2.0000 </r>
       <r>   -22.7122     0.0000     2.0000 </r>
       <r>   -22.5914     0.0000     2.0000 </r>
       <r>   -22.4707     0.0000     2.0000 </r>
       <r>   -22.3499     0.0000     2.0000 </r>
       <r>   -22.2291     0.0000     2.0000 </r>
       <r>   -22.1083     0.0000     2.0000 </r>
       <r>   -21.9875     0.0000     2.0000 </r>
       <r>   -21.8668     0.0000     2.0000 </r>
       <r>   -21.7460     0.0000     2.0000 </r>
       <r>   -21.6252     0.0000     2.0000 </r>
       <r>   -21.5044     0.0000     2.0000 </r>
       <r>   -21.3837     0.0000     2.0000 </r>
       <r>   -21.2629     0.0000     2.0000 </r>
       <r>   -21.1421     0.0000     2.0000 </r>
       <r>   -21.0213     0.0000     2.0000 </r>
       <r>   -20.9006     0.0000     2.0000 </r>
       <r>   -20.7798     0.0000     2.0000 </r>
       <r>   -20.6590     0.0000     2.0000 </r>
       <r>   -20.5382     0.0000     2.0000 </r>
       <r>   -20.4174     0.0000     2.0000 </r>
       <r>   -20.2967     0.0000     2.0000 </r>
       <r>   -20.1759     0.0000     2.0000 </r>
       <r>   -20.0551     0.0000     2.0000 </r>
       <r>   -19.9343     0.0000     2.0000 </r>
       <r>   -19.8136     0.0000     2.0000 </r>
       <r>   -19.6928     0.0000     2.0000 </r>
       <r>   -19.5720     0.0000     2.0000 </r>
       <r>   -19.4512     0.0000     2.0000 </r>
       <r>   -19.3305     0.0000     2.0000 </r>
       <r>   -19.2097     0.0000     2.0000 </r>
       <r>   -19.0889     0.0000     2.0000 </r>
       <r>   -18.9681     0.0000     2.0000 </r>
       <r>   -18.8473     0.1432     2.0173 </r>
       <r>   -18.7266    13.9299     3.6997 </r>
       <r>   -18.6058     2.4863     4.0000 </r>
       <r>   -18.4850     0.0001     4.0000 </r>
       <r>   -18.3642     0.0000     4.0000 </r>
       <r>   -18.2435     0.0000     4.0000 </r>
       <r>   -18.1227     0.0000     4.0000 </r>
       <r>   -18.0019     0.0000     4.0000 </r>
       <r>   -17.8811     0.0000     4.0000 </r>
       <r>   -17.7604     0.0000     4.0000 </r>
       <r>   -17.6396     0.0000     4.0000 </r>
       <r>   -17.5188     0.0000     4.0000 </r>
       <r>   -17.3980     0.0000     4.0000 </r>
       <r>   -17.2773     0.0000     4.0000 </r>
       <r>   -17.1565     0.0000     4.0000 </r>
       <r>   -17.0357     0.0000     4.0000 </r>
       <r>   -16.9149     0.0000     4.0000 </r>
       <r>   -16.7941     0.0000     4.0000 </r>
       <r>   -16.6734     0.0000     4.0000 </r>
       <r>   -16.5526     0.0000     4.0000 </r>
       <r>   -16.4318     0.0000     4.0000 </r>
       <r>   -16.3110     0.0000     4.0000 </r>
       <r>   -16.1903     0.0000     4.0000 </r>
       <r>   -16.0695     0.0000     4.0000 </r>
       <r>   -15.9487     0.0000     4.0000 </r>
       <r>   -15.8279     0.0000     4.0000 </r>
       <r>   -15.7072     0.0000     4.0000 </r>
       <r>   -15.5864     0.0000     4.0000 </r>
       <r>   -15.4656     0.0000     4.0000 </r>
       <r>   -15.3448     0.0000     4.0000 </r>
       <r>   -15.2240     0.0000     4.0000 </r>
       <r>   -15.1033     0.0000     4.0000 </r>
       <r>   -14.9825     0.0000     4.0000 </r>
       <r>   -14.8617     0.0000     4.0000 </r>
       <r>   -14.7409     0.0000     4.0000 </r>
       <r>   -14.6202     0.0000     4.0000 </r>
       <r>   -14.4994     0.0000     4.0000 </r>
       <r>   -14.3786     0.0000     4.0000 </r>
       <r>   -14.2578     0.0000     4.0000 </r>
       <r>   -14.1371     0.0000     4.0000 </r>
       <r>   -14.0163     0.0000     4.0000 </r>
       <r>   -13.8955     0.0000     4.0000 </r>
       <r>   -13.7747     0.0000     4.0000 </r>
       <r>   -13.6540     0.0000     4.0000 </r>
       <r>   -13.5332     0.0000     4.0000 </r>
       <r>   -13.4124     0.0000     4.0000 </r>
       <r>   -13.2916     0.0000     4.0000 </r>
       <r>   -13.1708     0.0000     4.0000 </r>
       <r>   -13.0501     0.0000     4.0000 </r>
       <r>   -12.9293     0.0000     4.0000 </r>
       <r>   -12.8085     0.0000     4.0000 </r>
       <r>   -12.6877     0.0000     4.0000 </r>
       <r>   -12.5670     0.1563     4.0189 </r>
       <r>   -12.4462    14.0393     5.7145 </r>
       <r>   -12.3254     2.3638     6.0000 </r>
       <r>   -12.2046     0.0001     6.0000 </r>
       <r>   -12.0839     0.0000     6.0000 </r>
       <r>   -11.9631     0.0000     6.0000 </r>
       <r>   -11.8423     0.0000     6.0000 </r>
       <r>   -11.7215     0.0001     6.0000 </r>
       <r>   -11.6007     3.8047     6.4595 </r>
       <r>   -11.4800    28.8712     9.9465 </r>
       <r>   -11.3592     0.4430    10.0000 </r>
       <r>   -11.2384     0.0000    10.0000 </r>
       <r>   -11.1176     0.0000    10.0000 </r>
       <r>   -10.9969     0.0000    10.0000 </r>
       <r>   -10.8761     0.0000    10.0000 </r>
       <r>   -10.7553     0.0000    10.0000 </r>
       <r>   -10.6345     0.0000    10.0000 </r>
       <r>   -10.5138     0.0000    10.0000 </r>
       <r>   -10.3930     0.0000    10.0000 </r>
       <r>   -10.2722     0.0000    10.0000 </r>
       <r>   -10.1514     0.0000    10.0000 </r>
       <r>   -10.0306     0.0000    10.0000 </r>
       <r>    -9.9099     0.0000    10.0000 </r>
       <r>    -9.7891     0.0000    10.0000 </r>
       <r>    -9.6683     0.0000    10.0000 </r>
       <r>    -9.5475     0.0000    10.0000 </r>
       <r>    -9.4268     0.0000    10.0000 </r>
       <r>    -9.3060     0.0000    10.0000 </r>
       <r>    -9.1852     0.0000    10.0000 </r>
       <r>    -9.0644     0.0000    10.0000 </r>
       <r>    -8.9437     0.0000    10.0000 </r>
       <r>    -8.8229     0.0000    10.0000 </r>
       <r>    -8.7021     0.0000    10.0000 </r>
       <r>    -8.5813     0.0000    10.0000 </r>
       <r>    -8.4606     0.0000    10.0000 </r>
       <r>    -8.3398     0.0000    10.0000 </r>
       <r>    -8.2190     0.0000    10.0000 </r>
       <r>    -8.0982     0.0000    10.0000 </r>
       <r>    -7.9774     0.0000    10.0000 </r>
       <r>    -7.8567     0.0000    10.0000 </r>
       <r>    -7.7359     0.0000    10.0000 </r>
       <r>    -7.6151     0.0000    10.0000 </r>
       <r>    -7.4943     0.0000    10.0000 </r>
       <r>    -7.3736     0.0000    10.0000 </r>
       <r>    -7.2528     0.0000    10.0000 </r>
       <r>    -7.1320     0.0000    10.0000 </r>
       <r>    -7.0112     0.0000    10.0000 </r>
       <r>    -6.8905     0.0000    10.0000 </r>
       <r>    -6.7697     0.0000    10.0000 </r>
       <r>    -6.6489     0.0000    10.0000 </r>
       <r>    -6.5281     0.0000    10.0000 </r>
       <r>    -6.4073     0.0000    10.0000 </r>
       <r>    -6.2866     0.0000    10.0000 </r>
       <r>    -6.1658     0.0000    10.0000 </r>
       <r>    -6.0450     0.0000    10.0000 </r>
       <r>    -5.9242     0.0000    10.0000 </r>
       <r>    -5.8035     0.0000    10.0000 </r>
       <r>    -5.6827     0.0000    10.0000 </r>
       <r>    -5.5619     0.0000    10.0000 </r>
       <r>    -5.4411     0.0000    10.0000 </r>
       <r>    -5.3204     0.0000    10.0000 </r>
       <r>    -5.1996     0.0000    10.0000 </r>
       <r>    -5.0788     0.0000    10.0000 </r>
       <r>    -4.9580     0.0000    10.0000 </r>
       <r>    -4.8372     0.0003    10.0000 </r>
       <r>    -4.7165     6.2506    10.7550 </r>
       <r>    -4.5957    26.6811    13.9774 </r>
       <r>    -4.4749     0.1870    14.0000 </r>
       <r>    -4.3541     0.0000    14.0000 </r>
       <r>    -4.2334     0.0000    14.0000 </r>
       <r>    -4.1126     0.0000    14.0000 </r>
       <r>    -3.9918     0.0000    14.0000 </r>
       <r>    -3.8710     0.0000    14.0000 </r>
       <r>    -3.7503     0.0000    14.0000 </r>
       <r>    -3.6295     0.0000    14.0000 </r>
       <r>    -3.5087     0.0000    14.0000 </r>
       <r>    -3.3879     0.0000    14.0000 </r>
       <r>    -3.2672     0.0000    14.0000 </r>
       <r>    -3.1464     0.0000    14.0000 </r>
       <r>    -3.0256     0.0000    14.0000 </r>
       <r>    -2.9048     0.0000    14.0000 </r>
       <r>    -2.7840     0.0000    14.0000 </r>
       <r>    -2.6633     0.0000    14.0000 </r>
       <r>    -2.5425     0.0000    14.0000 </r>
       <r>    -2.4217     0.0000    14.0000 </r>
       <r>    -2.3009     0.0000    14.0000 </r>
       <r>    -2.1802     0.0000    14.0000 </r>
       <r>    -2.0594     0.0000    14.0000 </r>
       <r>    -1.9386     0.0000    14.0000 </r>
       <r>    -1.8178     0.0000    14.0000 </r>
       <r>    -1.6971     0.0000    14.0000 </r>
       <r>    -1.5763     0.0000    14.0000 </r>
       <r>    -1.4555     0.0000    14.0000 </r>
       <r>    -1.3347     0.0000    14.0000 </r>
       <r>    -1.2139     0.0000    14.0000 </r>
       <r>    -1.0932     0.0000    14.0000 </r>
       <r>    -0.9724     0.0000    14.0000 </r>
       <r>    -0.8516     0.0000    14.0000 </r>
       <r>    -0.7308     0.0000    14.0000 </r>
       <r>    -0.6101     0.0000    14.0000 </r>
       <r>    -0.4893     0.0000    14.0000 </r>
       <r>    -0.3685     0.0000    14.0000 </r>
       <r>    -0.2477     0.0883    14.0107 </r>
       <r>    -0.1270    13.2550    15.6116 </r>
       <r>    -0.0062     3.2161    16.0000 </r>
       <r>     0.1146     1.3171    16.1591 </r>
       <r>     0.2354    31.2014    19.9275 </r>
       <r>     0.3562    33.4553    23.9681 </r>
       <r>     0.4769     0.2642    24.0000 </r>
       <r>     0.5977     0.0000    24.0000 </r>
       <r>     0.7185     0.0000    24.0000 </r>
       <r>     0.8393     0.0000    24.0000 </r>
       <r>     0.9600     0.0000    24.0000 </r>
       <r>     1.0808     0.0000    24.0000 </r>
       <r>     1.2016     0.0000    24.0000 </r>
       <r>     1.3224     0.0000    24.0000 </r>
       <r>     1.4431     0.0000    24.0000 </r>
       <r>     1.5639     0.0000    24.0000 </r>
       <r>     1.6847     0.0000    24.0000 </r>
       <r>     1.8055     0.0000    24.0000 </r>
       <r>     1.9262     0.0000    24.0000 </r>
      </set>
     </set>
    </array>
   </total>
   <partial>
    <array>
     <dimension dim="1">gridpoints</dimension>
     <dimension dim="2">spin</dimension>
     <dimension dim="3">ion</dimension>
     <field>energy</field>
     <field>    s</field>
     <field>   py</field>
     <field>   pz</field>
     <field>   px</field>
     <field>  dxy</field>
     <field>  dyz</field>
     <field>  dz2</field>
     <field>  dxz</field>
     <field>x2-y2</field>
     <set>
      <set comment="ion 1">
       <set comment="spin 1">
        <r>   -34.3068     0.0000     0.0000     0.0000     0.0000     0.0000     0.0000     0.0000     0.0000     0.0000 </r>
        <r>   -34.1860     0.0000     0.0000     0.0000     0.0000     0.0000     0.0000     0.0000     0.0000     0.0000 </r>
        <r>   -34.0652     0.0000     0.0000     0.0000     0.0000     0.0000     0.0000     0.0000     0.0000     0.0000 </r>
        <r>   -33.9444     0.0000     0.0000     0.0000     0.0000     0.0000     0.0000     0.0000     0.0000     0.0000 </r>
        <r>   -33.8237     0.0000     0.0000     0.0000     0.0000     0.0000     0.0000     0.0000     0.0000     0.0000 </r>
        <r>   -33.7029     0.0000     0.0000     0.0000     0.0000     0.0000     0.0000     0.0000     0.0000     0.0000 </r>
        <r>   -33.5821     0.0000     0.0000     0.0000     0.0000     0.0000     0.0000     0.0000     0.0000     0.0000 </r>
        <r>   -33.4613     0.0000     0.0000     0.0000     0.0000     0.0000     0.0000     0.0000     0.0000     0.0000 </r>
        <r>   -33.3406     0.0000     0.0000     0.0000     0.0000     0.0000     0.0000     0.0000     0.0000     0.0000 </r>
        <r>   -33.2198     0.0000     0.0000     0.0000     0.0000     0.0000     0.0000     0.0000     0.0000     0.0000 </r>
        <r>   -33.0990     0.0000     0.0000     0.0000     0.0000     0.0000     0.0000     0.0000     0.0000     0.0000 </r>
        <r>   -32.9782     0.0000     0.0000     0.0000     0.0000     0.0000     0.0000     0.0000     0.0000     0.0000 </r>
        <r>   -32.8575     0.0000     0.0000     0.0000     0.0000     0.0000     0.0000     0.0000     0.0000     0.0000 </r>
        <r>   -32.7367     0.0996     0.0000     0.0000     0.0243     0.0000     0.0000     0.0000     0.0000     0.0000 </r>
        <r>   -32.6159     5.8857     0.0000     0.0000     1.4368     0.0000     0.0000     0.0000     0.0000     0.0000 </r>
        <r>   -32.4951     0.7177     0.0000     0.0000     0.1752     0.0000     0.0000     0.0000     0.0000     0.0000 </r>
        <r>   -32.3743     0.0000     0.0000     0.0000     0.0000     0.0000     0.0000     0.0000     0.0000     0.0000 </r>
        <r>   -32.2536     0.0000     0.0000     0.0000     0.0000     0.0000     0.0000     0.0000     0.0000     0.0000 </r>
        <r>   -32.1328     0.0000     0.0000     0.0000     0.0000     0.0000     0.0000     0.0000     0.0000     0.0000 </r>
        <r>   -32.0120     0.0000     0.0000     0.0000     0.0000     0.0000     0.0000     0.0000     0.0000     0.0000 </r>
        <r>   -31.8912     0.0000     0.0000     0.0000     0.0000     0.0000     0.0000     0.0000     0.0000     0.0000 </r>
        <r>   -31.7705     0.0000     0.0000     0.0000     0.0000     0.0000     0.0000     0.0000     0.0000     0.0000 </r>
        <r>   -31.6497     0.0000     0.0000     0.0000     0.0000     0.0000     0.0000     0.0000     0.0000     0.0000 </r>
        <r>   -31.5289     0.0000     0.0000     0.0000     0.0000     0.0000     0.0000     0.0000     0.0000     0.0000 </r>
        <r>   -31.4081     0.0000     0.0000     0.0000     0.0000     0.0000     0.0000     0.0000     0.0000     0.0000 </r>
        <r>   -31.2874     0.0000     0.0000     0.0000     0.0000     0.0000     0.0000     0.0000     0.0000     0.0000 </r>
        <r>   -31.1666     0.0000     0.0000     0.0000     0.0000     0.0000     0.0000     0.0000     0.0000     0.0000 </r>
        <r>   -31.0458     0.0000     0.0000     0.0000     0.0000     0.0000     0.0000     0.0000     0.0000     0.0000 </r>
        <r>   -30.9250     0.0000     0.0000     0.0000     0.0000     0.0000     0.0000     0.0000     0.0000     0.0000 </r>
        <r>   -30.8042     0.0000     0.0000     0.0000     0.0000     0.0000     0.0000     0.0000     0.0000     0.0000 </r>
        <r>   -30.6835     0.0000     0.0000     0.0000     0.0000     0.0000     0.0000     0.0000     0.0000     0.0000 </r>
        <r>   -30.5627     0.0000     0.0000     0.0000     0.0000     0.0000     0.0000     0.0000     0.0000     0.0000 </r>
        <r>   -30.4419     0.0000     0.0000     0.0000     0.0000     0.0000     0.0000     0.0000     0.0000     0.0000 </r>
        <r>   -30.3211     0.0000     0.0000     0.0000     0.0000     0.0000     0.0000     0.0000     0.0000     0.0000 </r>
        <r>   -30.2004     0.0000     0.0000     0.0000     0.0000     0.0000     0.0000     0.0000     0.0000     0.0000 </r>
        <r>   -30.0796     0.0000     0.0000     0.0000     0.0000     0.0000     0.0000     0.0000     0.0000     0.0000 </r>
        <r>   -29.9588     0.0000     0.0000     0.0000     0.0000     0.0000     0.0000     0.0000     0.0000     0.0000 </r>
        <r>   -29.8380     0.0000     0.0000     0.0000     0.0000     0.0000     0.0000     0.0000     0.0000     0.0000 </r>
        <r>   -29.7173     0.0000     0.0000     0.0000     0.0000     0.0000     0.0000     0.0000     0.0000     0.0000 </r>
        <r>   -29.5965     0.0000     0.0000     0.0000     0.0000     0.0000     0.0000     0.0000     0.0000     0.0000 </r>
        <r>   -29.4757     0.0000     0.0000     0.0000     0.0000     0.0000     0.0000     0.0000     0.0000     0.0000 </r>
        <r>   -29.3549     0.0000     0.0000     0.0000     0.0000     0.0000     0.0000     0.0000     0.0000     0.0000 </r>
        <r>   -29.2341     0.0000     0.0000     0.0000     0.0000     0.0000     0.0000     0.0000     0.0000     0.0000 </r>
        <r>   -29.1134     0.0000     0.0000     0.0000     0.0000     0.0000     0.0000     0.0000     0.0000     0.0000 </r>
        <r>   -28.9926     0.0000     0.0000     0.0000     0.0000     0.0000     0.0000     0.0000     0.0000     0.0000 </r>
        <r>   -28.8718     0.0000     0.0000     0.0000     0.0000     0.0000     0.0000     0.0000     0.0000     0.0000 </r>
        <r>   -28.7510     0.0000     0.0000     0.0000     0.0000     0.0000     0.0000     0.0000     0.0000     0.0000 </r>
        <r>   -28.6303     0.0000     0.0000     0.0000     0.0000     0.0000     0.0000     0.0000     0.0000     0.0000 </r>
        <r>   -28.5095     0.0000     0.0000     0.0000     0.0000     0.0000     0.0000     0.0000     0.0000     0.0000 </r>
        <r>   -28.3887     0.0000     0.0000     0.0000     0.0000     0.0000     0.0000     0.0000     0.0000     0.0000 </r>
        <r>   -28.2679     0.0000     0.0000     0.0000     0.0000     0.0000     0.0000     0.0000     0.0000     0.0000 </r>
        <r>   -28.1472     0.0000     0.0000     0.0000     0.0000     0.0000     0.0000     0.0000     0.0000     0.0000 </r>
        <r>   -28.0264     0.0000     0.0000     0.0000     0.0000     0.0000     0.0000     0.0000     0.0000     0.0000 </r>
        <r>   -27.9056     0.0000     0.0000     0.0000     0.0000     0.0000     0.0000     0.0000     0.0000     0.0000 </r>
        <r>   -27.7848     0.0000     0.0000     0.0000     0.0000     0.0000     0.0000     0.0000     0.0000     0.0000 </r>
        <r>   -27.6641     0.0000     0.0000     0.0000     0.0000     0.0000     0.0000     0.0000     0.0000     0.0000 </r>
        <r>   -27.5433     0.0000     0.0000     0.0000     0.0000     0.0000     0.0000     0.0000     0.0000     0.0000 </r>
        <r>   -27.4225     0.0000     0.0000     0.0000     0.0000     0.0000     0.0000     0.0000     0.0000     0.0000 </r>
        <r>   -27.3017     0.0000     0.0000     0.0000     0.0000     0.0000     0.0000     0.0000     0.0000     0.0000 </r>
        <r>   -27.1809     0.0000     0.0000     0.0000     0.0000     0.0000     0.0000     0.0000     0.0000     0.0000 </r>
        <r>   -27.0602     0.0000     0.0000     0.0000     0.0000     0.0000     0.0000     0.0000     0.0000     0.0000 </r>
        <r>   -26.9394     0.0000     0.0000     0.0000     0.0000     0.0000     0.0000     0.0000     0.0000     0.0000 </r>
        <r>   -26.8186     0.0000     0.0000     0.0000     0.0000     0.0000     0.0000     0.0000     0.0000     0.0000 </r>
        <r>   -26.6978     0.0000     0.0000     0.0000     0.0000     0.0000     0.0000     0.0000     0.0000     0.0000 </r>
        <r>   -26.5771     0.0000     0.0000     0.0000     0.0000     0.0000     0.0000     0.0000     0.0000     0.0000 </r>
        <r>   -26.4563     0.0000     0.0000     0.0000     0.0000     0.0000     0.0000     0.0000     0.0000     0.0000 </r>
        <r>   -26.3355     0.0000     0.0000     0.0000     0.0000     0.0000     0.0000     0.0000     0.0000     0.0000 </r>
        <r>   -26.2147     0.0000     0.0000     0.0000     0.0000     0.0000     0.0000     0.0000     0.0000     0.0000 </r>
        <r>   -26.0940     0.0000     0.0000     0.0000     0.0000     0.0000     0.0000     0.0000     0.0000     0.0000 </r>
        <r>   -25.9732     0.0000     0.0000     0.0000     0.0000     0.0000     0.0000     0.0000     0.0000     0.0000 </r>
        <r>   -25.8524     0.0000     0.0000     0.0000     0.0000     0.0000     0.0000     0.0000     0.0000     0.0000 </r>
        <r>   -25.7316     0.0000     0.0000     0.0000     0.0000     0.0000     0.0000     0.0000     0.0000     0.0000 </r>
        <r>   -25.6108     0.0000     0.0000     0.0000     0.0000     0.0000     0.0000     0.0000     0.0000     0.0000 </r>
        <r>   -25.4901     0.0000     0.0000     0.0000     0.0000     0.0000     0.0000     0.0000     0.0000     0.0000 </r>
        <r>   -25.3693     0.0000     0.0000     0.0000     0.0000     0.0000     0.0000     0.0000     0.0000     0.0000 </r>
        <r>   -25.2485     0.0000     0.0000     0.0000     0.0000     0.0000     0.0000     0.0000     0.0000     0.0000 </r>
        <r>   -25.1277     0.0000     0.0000     0.0000     0.0000     0.0000     0.0000     0.0000     0.0000     0.0000 </r>
        <r>   -25.0070     0.0000     0.0000     0.0000     0.0000     0.0000     0.0000     0.0000     0.0000     0.0000 </r>
        <r>   -24.8862     0.0000     0.0000     0.0000     0.0000     0.0000     0.0000     0.0000     0.0000     0.0000 </r>
        <r>   -24.7654     0.0000     0.0000     0.0000     0.0000     0.0000     0.0000     0.0000     0.0000     0.0000 </r>
        <r>   -24.6446     0.0000     0.0000     0.0000     0.0000     0.0000     0.0000     0.0000     0.0000     0.0000 </r>
        <r>   -24.5239     0.0000     0.0000     0.0000     0.0000     0.0000     0.0000     0.0000     0.0000     0.0000 </r>
        <r>   -24.4031     0.0000     0.0000     0.0000     0.0000     0.0000     0.0000     0.0000     0.0000     0.0000 </r>
        <r>   -24.2823     0.0000     0.0000     0.0000     0.0000     0.0000     0.0000     0.0000     0.0000     0.0000 </r>
        <r>   -24.1615     0.0000     0.0000     0.0000     0.0000     0.0000     0.0000     0.0000     0.0000     0.0000 </r>
        <r>   -24.0407     0.0000     0.0000     0.0000     0.0000     0.0000     0.0000     0.0000     0.0000     0.0000 </r>
        <r>   -23.9200     0.0000     0.0000     0.0000     0.0000     0.0000     0.0000     0.0000     0.0000     0.0000 </r>
        <r>   -23.7992     0.0000     0.0000     0.0000     0.0000     0.0000     0.0000     0.0000     0.0000     0.0000 </r>
        <r>   -23.6784     0.0000     0.0000     0.0000     0.0000     0.0000     0.0000     0.0000     0.0000     0.0000 </r>
        <r>   -23.5576     0.0000     0.0000     0.0000     0.0000     0.0000     0.0000     0.0000     0.0000     0.0000 </r>
        <r>   -23.4369     0.0000     0.0000     0.0000     0.0000     0.0000     0.0000     0.0000     0.0000     0.0000 </r>
        <r>   -23.3161     0.0000     0.0000     0.0000     0.0000     0.0000     0.0000     0.0000     0.0000     0.0000 </r>
        <r>   -23.1953     0.0000     0.0000     0.0000     0.0000     0.0000     0.0000     0.0000     0.0000     0.0000 </r>
        <r>   -23.0745     0.0000     0.0000     0.0000     0.0000     0.0000     0.0000     0.0000     0.0000     0.0000 </r>
        <r>   -22.9538     0.0000     0.0000     0.0000     0.0000     0.0000     0.0000     0.0000     0.0000     0.0000 </r>
        <r>   -22.8330     0.0000     0.0000     0.0000     0.0000     0.0000     0.0000     0.0000     0.0000     0.0000 </r>
        <r>   -22.7122     0.0000     0.0000     0.0000     0.0000     0.0000     0.0000     0.0000     0.0000     0.0000 </r>
        <r>   -22.5914     0.0000     0.0000     0.0000     0.0000     0.0000     0.0000     0.0000     0.0000     0.0000 </r>
        <r>   -22.4707     0.0000     0.0000     0.0000     0.0000     0.0000     0.0000     0.0000     0.0000     0.0000 </r>
        <r>   -22.3499     0.0000     0.0000     0.0000     0.0000     0.0000     0.0000     0.0000     0.0000     0.0000 </r>
        <r>   -22.2291     0.0000     0.0000     0.0000     0.0000     0.0000     0.0000     0.0000     0.0000     0.0000 </r>
        <r>   -22.1083     0.0000     0.0000     0.0000     0.0000     0.0000     0.0000     0.0000     0.0000     0.0000 </r>
        <r>   -21.9875     0.0000     0.0000     0.0000     0.0000     0.0000     0.0000     0.0000     0.0000     0.0000 </r>
        <r>   -21.8668     0.0000     0.0000     0.0000     0.0000     0.0000     0.0000     0.0000     0.0000     0.0000 </r>
        <r>   -21.7460     0.0000     0.0000     0.0000     0.0000     0.0000     0.0000     0.0000     0.0000     0.0000 </r>
        <r>   -21.6252     0.0000     0.0000     0.0000     0.0000     0.0000     0.0000     0.0000     0.0000     0.0000 </r>
        <r>   -21.5044     0.0000     0.0000     0.0000     0.0000     0.0000     0.0000     0.0000     0.0000     0.0000 </r>
        <r>   -21.3837     0.0000     0.0000     0.0000     0.0000     0.0000     0.0000     0.0000     0.0000     0.0000 </r>
        <r>   -21.2629     0.0000     0.0000     0.0000     0.0000     0.0000     0.0000     0.0000     0.0000     0.0000 </r>
        <r>   -21.1421     0.0000     0.0000     0.0000     0.0000     0.0000     0.0000     0.0000     0.0000     0.0000 </r>
        <r>   -21.0213     0.0000     0.0000     0.0000     0.0000     0.0000     0.0000     0.0000     0.0000     0.0000 </r>
        <r>   -20.9006     0.0000     0.0000     0.0000     0.0000     0.0000     0.0000     0.0000     0.0000     0.0000 </r>
        <r>   -20.7798     0.0000     0.0000     0.0000     0.0000     0.0000     0.0000     0.0000     0.0000     0.0000 </r>
        <r>   -20.6590     0.0043     0.0000     0.0000     0.0005     0.0000     0.0000     0.0000     0.0000     0.0000 </r>
        <r>   -20.5382     3.6326     0.0000     0.0000     0.4073     0.0000     0.0000     0.0000     0.0000     0.0000 </r>
        <r>   -20.4174     2.5585     0.0000     0.0000     0.2869     0.0000     0.0000     0.0000     0.0000     0.0000 </r>
        <r>   -20.2967     0.0009     0.0000     0.0000     0.0001     0.0000     0.0000     0.0000     0.0000     0.0000 </r>
        <r>   -20.1759     0.0000     0.0000     0.0000     0.0000     0.0000     0.0000     0.0000     0.0000     0.0000 </r>
        <r>   -20.0551     0.0000     0.0000     0.0000     0.0000     0.0000     0.0000     0.0000     0.0000     0.0000 </r>
        <r>   -19.9343     0.0000     0.0000     0.0000     0.0000     0.0000     0.0000     0.0000     0.0000     0.0000 </r>
        <r>   -19.8136     0.0000     0.0000     0.0000     0.0000     0.0000     0.0000     0.0000     0.0000     0.0000 </r>
        <r>   -19.6928     0.0000     0.0000     0.0000     0.0000     0.0000     0.0000     0.0000     0.0000     0.0000 </r>
        <r>   -19.5720     0.0000     0.0000     0.0000     0.0000     0.0000     0.0000     0.0000     0.0000     0.0000 </r>
        <r>   -19.4512     0.0000     0.0000     0.0000     0.0000     0.0000     0.0000     0.0000     0.0000     0.0000 </r>
        <r>   -19.3305     0.0000     0.0000     0.0000     0.0000     0.0000     0.0000     0.0000     0.0000     0.0000 </r>
        <r>   -19.2097     0.0000     0.0000     0.0000     0.0000     0.0000     0.0000     0.0000     0.0000     0.0000 </r>
        <r>   -19.0889     0.0000     0.0000     0.0000     0.0000     0.0000     0.0000     0.0000     0.0000     0.0000 </r>
        <r>   -18.9681     0.0000     0.0000     0.0000     0.0000     0.0000     0.0000     0.0000     0.0000     0.0000 </r>
        <r>   -18.8473     0.0000     0.0000     0.0000     0.0000     0.0000     0.0000     0.0000     0.0000     0.0000 </r>
        <r>   -18.7266     0.0000     0.0000     0.0000     0.0000     0.0000     0.0000     0.0000     0.0000     0.0000 </r>
        <r>   -18.6058     0.0000     0.0000     0.0000     0.0000     0.0000     0.0000     0.0000     0.0000     0.0000 </r>
        <r>   -18.4850     0.0000     0.0000     0.0000     0.0000     0.0000     0.0000     0.0000     0.0000     0.0000 </r>
        <r>   -18.3642     0.0000     0.0000     0.0000     0.0000     0.0000     0.0000     0.0000     0.0000     0.0000 </r>
        <r>   -18.2435     0.0000     0.0000     0.0000     0.0000     0.0000     0.0000     0.0000     0.0000     0.0000 </r>
        <r>   -18.1227     0.0000     0.0000     0.0000     0.0000     0.0000     0.0000     0.0000     0.0000     0.0000 </r>
        <r>   -18.0019     0.0000     0.0000     0.0000     0.0000     0.0000     0.0000     0.0000     0.0000     0.0000 </r>
        <r>   -17.8811     0.0000     0.0000     0.0000     0.0000     0.0000     0.0000     0.0000     0.0000     0.0000 </r>
        <r>   -17.7604     0.0000     0.0000     0.0000     0.0000     0.0000     0.0000     0.0000     0.0000     0.0000 </r>
        <r>   -17.6396     0.0000     0.0000     0.0000     0.0000     0.0000     0.0000     0.0000     0.0000     0.0000 </r>
        <r>   -17.5188     0.0000     0.0000     0.0000     0.0000     0.0000     0.0000     0.0000     0.0000     0.0000 </r>
        <r>   -17.3980     0.0000     0.0000     0.0000     0.0000     0.0000     0.0000     0.0000     0.0000     0.0000 </r>
        <r>   -17.2773     0.0000     0.0000     0.0000     0.0000     0.0000     0.0000     0.0000     0.0000     0.0000 </r>
        <r>   -17.1565     0.0000     0.0000     0.0000     0.0000     0.0000     0.0000     0.0000     0.0000     0.0000 </r>
        <r>   -17.0357     0.0000     0.0000     0.0000     0.0000     0.0000     0.0000     0.0000     0.0000     0.0000 </r>
        <r>   -16.9149     0.0000     0.0000     0.0000     0.0000     0.0000     0.0000     0.0000     0.0000     0.0000 </r>
        <r>   -16.7941     0.0000     0.0000     0.0000     0.0000     0.0000     0.0000     0.0000     0.0000     0.0000 </r>
        <r>   -16.6734     0.0000     0.0000     0.0000     0.0000     0.0000     0.0000     0.0000     0.0000     0.0000 </r>
        <r>   -16.5526     0.0000     0.0000     0.0000     0.0000     0.0000     0.0000     0.0000     0.0000     0.0000 </r>
        <r>   -16.4318     0.0000     0.0000     0.0000     0.0000     0.0000     0.0000     0.0000     0.0000     0.0000 </r>
        <r>   -16.3110     0.0000     0.0000     0.0000     0.0000     0.0000     0.0000     0.0000     0.0000     0.0000 </r>
        <r>   -16.1903     0.0000     0.0000     0.0000     0.0000     0.0000     0.0000     0.0000     0.0000     0.0000 </r>
        <r>   -16.0695     0.0000     0.0000     0.0000     0.0000     0.0000     0.0000     0.0000     0.0000     0.0000 </r>
        <r>   -15.9487     0.0000     0.0000     0.0000     0.0000     0.0000     0.0000     0.0000     0.0000     0.0000 </r>
        <r>   -15.8279     0.0000     0.0000     0.0000     0.0000     0.0000     0.0000     0.0000     0.0000     0.0000 </r>
        <r>   -15.7072     0.0000     0.0000     0.0000     0.0000     0.0000     0.0000     0.0000     0.0000     0.0000 </r>
        <r>   -15.5864     0.0000     0.0000     0.0000     0.0000     0.0000     0.0000     0.0000     0.0000     0.0000 </r>
        <r>   -15.4656     0.0000     0.0000     0.0000     0.0000     0.0000     0.0000     0.0000     0.0000     0.0000 </r>
        <r>   -15.3448     0.0000     0.0000     0.0000     0.0000     0.0000     0.0000     0.0000     0.0000     0.0000 </r>
        <r>   -15.2240     0.0000     0.0000     0.0000     0.0000     0.0000     0.0000     0.0000     0.0000     0.0000 </r>
        <r>   -15.1033     0.0000     0.0000     0.0000     0.0000     0.0000     0.0000     0.0000     0.0000     0.0000 </r>
        <r>   -14.9825     0.0000     0.0000     0.0000     0.0000     0.0000     0.0000     0.0000     0.0000     0.0000 </r>
        <r>   -14.8617     0.0000     0.0000     0.0000     0.0000     0.0000     0.0000     0.0000     0.0000     0.0000 </r>
        <r>   -14.7409     0.0000     0.0000     0.0000     0.0000     0.0000     0.0000     0.0000     0.0000     0.0000 </r>
        <r>   -14.6202     0.0000     0.0000     0.0000     0.0000     0.0000     0.0000     0.0000     0.0000     0.0000 </r>
        <r>   -14.4994     0.0000     0.0000     0.0000     0.0000     0.0000     0.0000     0.0000     0.0000     0.0000 </r>
        <r>   -14.3786     0.0000     0.0000     0.0000     0.0000     0.0000     0.0000     0.0000     0.0000     0.0000 </r>
        <r>   -14.2578     0.0000     0.0000     0.0000     0.0000     0.0000     0.0000     0.0000     0.0000     0.0000 </r>
        <r>   -14.1371     0.0000     0.0000     0.0000     0.0000     0.0000     0.0000     0.0000     0.0000     0.0000 </r>
        <r>   -14.0163     0.0000     0.0000     0.0000     0.0000     0.0000     0.0000     0.0000     0.0000     0.0000 </r>
        <r>   -13.8955     0.0000     0.0000     0.0000     0.0000     0.0000     0.0000     0.0000     0.0000     0.0000 </r>
        <r>   -13.7747     0.0000     0.0000     0.0000     0.0000     0.0000     0.0000     0.0000     0.0000     0.0000 </r>
        <r>   -13.6540     0.0000     0.0000     0.0000     0.0001     0.0000     0.0000     0.0000     0.0000     0.0000 </r>
        <r>   -13.5332     0.1481     0.0002     0.0002     1.3079     0.0000     0.0000     0.0000     0.0000     0.0000 </r>
        <r>   -13.4124     0.5628     1.6857     1.6862     4.9712     0.0000     0.0000     0.0000     0.0000     0.0000 </r>
        <r>   -13.2916     0.0033     4.4912     4.4908     0.0294     0.0000     0.0000     0.0000     0.0000     0.0000 </r>
        <r>   -13.1708     0.0000     0.0153     0.0153     0.0000     0.0000     0.0000     0.0000     0.0000     0.0000 </r>
        <r>   -13.0501     0.0000     0.0000     0.0000     0.0000     0.0000     0.0000     0.0000     0.0000     0.0000 </r>
        <r>   -12.9293     0.0000     0.0000     0.0000     0.0000     0.0000     0.0000     0.0000     0.0000     0.0000 </r>
        <r>   -12.8085     0.0000     0.0000     0.0000     0.0000     0.0000     0.0000     0.0000     0.0000     0.0000 </r>
        <r>   -12.6877     0.0000     0.0000     0.0000     0.0000     0.0000     0.0000     0.0000     0.0000     0.0000 </r>
        <r>   -12.5670     0.0000     0.0000     0.0000     0.0000     0.0000     0.0000     0.0000     0.0000     0.0000 </r>
        <r>   -12.4462     0.0000     0.0000     0.0000     0.0000     0.0000     0.0000     0.0000     0.0000     0.0000 </r>
        <r>   -12.3254     0.0000     0.0000     0.0000     0.0000     0.0000     0.0000     0.0000     0.0000     0.0000 </r>
        <r>   -12.2046     0.0000     0.0000     0.0000     0.0000     0.0000     0.0000     0.0000     0.0000     0.0000 </r>
        <r>   -12.0839     0.0000     0.0000     0.0000     0.0000     0.0000     0.0000     0.0000     0.0000     0.0000 </r>
        <r>   -11.9631     0.0000     0.0000     0.0000     0.0000     0.0000     0.0000     0.0000     0.0000     0.0000 </r>
        <r>   -11.8423     0.0000     0.0000     0.0000     0.0000     0.0000     0.0000     0.0000     0.0000     0.0000 </r>
        <r>   -11.7215     0.0000     0.0000     0.0000     0.0000     0.0000     0.0000     0.0000     0.0000     0.0000 </r>
        <r>   -11.6007     0.0000     0.0000     0.0000     0.0000     0.0000     0.0000     0.0000     0.0000     0.0000 </r>
        <r>   -11.4800     0.0000     0.0000     0.0000     0.0000     0.0000     0.0000     0.0000     0.0000     0.0000 </r>
        <r>   -11.3592     0.0000     0.0000     0.0000     0.0000     0.0000     0.0000     0.0000     0.0000     0.0000 </r>
        <r>   -11.2384     0.0000     0.0000     0.0000     0.0000     0.0000     0.0000     0.0000     0.0000     0.0000 </r>
        <r>   -11.1176     0.0000     0.0000     0.0000     0.0000     0.0000     0.0000     0.0000     0.0000     0.0000 </r>
        <r>   -10.9969     0.0000     0.0000     0.0000     0.0000     0.0000     0.0000     0.0000     0.0000     0.0000 </r>
        <r>   -10.8761     0.0000     0.0000     0.0000     0.0000     0.0000     0.0000     0.0000     0.0000     0.0000 </r>
        <r>   -10.7553     0.0000     0.0000     0.0000     0.0000     0.0000     0.0000     0.0000     0.0000     0.0000 </r>
        <r>   -10.6345     0.0000     0.0000     0.0000     0.0000     0.0000     0.0000     0.0000     0.0000     0.0000 </r>
        <r>   -10.5138     0.0000     0.0000     0.0000     0.0000     0.0000     0.0000     0.0000     0.0000     0.0000 </r>
[...]
        <r>    -9.1852     0.0000     0.0000     0.0000     0.0000     0.0000     0.0000     0.0000     0.0000     0.0000 </r>
        <r>    -9.0644     0.0000     0.0000     0.0000     0.0000     0.0000     0.0000     0.0000     0.0000     0.0000 </r>
        <r>    -8.9437     0.0000     0.0000     0.0000     0.0000     0.0000     0.0000     0.0000     0.0000     0.0000 </r>
        <r>    -8.8229     0.0000     0.0000     0.0000     0.0000     0.0000     0.0000     0.0000     0.0000     0.0000 </r>
        <r>    -8.7021     0.0000     0.0000     0.0000     0.0000     0.0000     0.0000     0.0000     0.0000     0.0000 </r>
        <r>    -8.5813     0.0000     0.0000     0.0000     0.0000     0.0000     0.0000     0.0000     0.0000     0.0000 </r>
        <r>    -8.4606     0.0000     0.0000     0.0000     0.0000     0.0000     0.0000     0.0000     0.0000     0.0000 </r>
        <r>    -8.3398     0.0000     0.0000     0.0000     0.0000     0.0000     0.0000     0.0000     0.0000     0.0000 </r>
        <r>    -8.2190     0.0000     0.0000     0.0000     0.0000     0.0000     0.0000     0.0000     0.0000     0.0000 </r>
        <r>    -8.0982     0.0000     0.0000     0.0000     0.0000     0.0000     0.0000     0.0000     0.0000     0.0000 </r>
        <r>    -7.9774     0.0000     0.0000     0.0000     0.0000     0.0000     0.0000     0.0000     0.0000     0.0000 </r>
        <r>    -7.8567     0.0000     0.0000     0.0000     0.0000     0.0000     0.0000     0.0000     0.0000     0.0000 </r>
        <r>    -7.7359     0.0000     0.0000     0.0000     0.0000     0.0000     0.0000     0.0000     0.0000     0.0000 </r>
        <r>    -7.6151     0.0000     0.0000     0.0000     0.0000     0.0000     0.0000     0.0000     0.0000     0.0000 </r>
        <r>    -7.4943     0.0000     0.0000     0.0000     0.0000     0.0000     0.0000     0.0000     0.0000     0.0000 </r>
        <r>    -7.3736     0.0000     0.0000     0.0000     0.0000     0.0000     0.0000     0.0000     0.0000     0.0000 </r>
        <r>    -7.2528     0.0000     0.0000     0.0000     0.0000     0.0000     0.0000     0.0000     0.0000     0.0000 </r>
        <r>    -7.1320     0.0000     0.0000     0.0000     0.0000     0.0000     0.0000     0.0000     0.0000     0.0000 </r>
        <r>    -7.0112     0.0000     0.0000     0.0000     0.0000     0.0000     0.0000     0.0000     0.0000     0.0000 </r>
        <r>    -6.8905     0.0000     0.0000     0.0000     0.0000     0.0000     0.0000     0.0000     0.0000     0.0000 </r>
        <r>    -6.7697     0.0000     0.0000     0.0000     0.0000     0.0000     0.0000     0.0000     0.0000     0.0000 </r>
        <r>    -6.6489     0.0000     0.0000     0.0000     0.0000     0.0000     0.0000     0.0000     0.0000     0.0000 </r>
        <r>    -6.5281     0.0000     0.0000     0.0000     0.0000     0.0000     0.0000     0.0000     0.0000     0.0000 </r>
        <r>    -6.4073     0.0000     0.0000     0.0000     0.0000     0.0000     0.0000     0.0000     0.0000     0.0000 </r>
        <r>    -6.2866     0.0000     0.0000     0.0000     0.0000     0.0000     0.0000     0.0000     0.0000     0.0000 </r>
        <r>    -6.1658     0.0000     0.0000     0.0000     0.0000     0.0000     0.0000     0.0000     0.0000     0.0000 </r>
        <r>    -6.0450     0.0000     0.0000     0.0000     0.0000     0.0000     0.0000     0.0000     0.0000     0.0000 </r>
        <r>    -5.9242     0.0000     0.0000     0.0000     0.0000     0.0000     0.0000     0.0000     0.0000     0.0000 </r>
        <r>    -5.8035     0.0000     0.0000     0.0000     0.0000     0.0000     0.0000     0.0000     0.0000     0.0000 </r>
        <r>    -5.6827     0.0000     0.0000     0.0000     0.0000     0.0000     0.0000     0.0000     0.0000     0.0000 </r>
        <r>    -5.5619     0.0000     0.0000     0.0000     0.0000     0.0000     0.0000     0.0000     0.0000     0.0000 </r>
        <r>    -5.4411     0.0000     0.0000     0.0000     0.0000     0.0000     0.0000     0.0000     0.0000     0.0000 </r>
        <r>    -5.3204     0.0000     0.0000     0.0000     0.0000     0.0000     0.0000     0.0000     0.0000     0.0000 </r>
        <r>    -5.1996     0.0000     0.0000     0.0000     0.0000     0.0000     0.0000     0.0000     0.0000     0.0000 </r>
        <r>    -5.0788     0.0000     0.0000     0.0000     0.0000     0.0000     0.0000     0.0000     0.0000     0.0000 </r>
        <r>    -4.9580     0.0000     0.0000     0.0000     0.0000     0.0000     0.0000     0.0000     0.0000     0.0000 </r>
        <r>    -4.8372     0.0000     0.0001     0.0001     0.0000     0.0000     0.0000     0.0000     0.0000     0.0000 </r>
        <r>    -4.7165     0.0000     1.1696     1.1696     0.0000     0.0000     0.0000     0.0000     0.0000     0.0000 </r>
        <r>    -4.5957     0.0000     4.9925     4.9925     0.0000     0.0000     0.0000     0.0000     0.0000     0.0000 </r>
        <r>    -4.4749     0.0000     0.0350     0.0350     0.0000     0.0000     0.0000     0.0000     0.0000     0.0000 </r>
        <r>    -4.3541     0.0000     0.0000     0.0000     0.0000     0.0000     0.0000     0.0000     0.0000     0.0000 </r>
        <r>    -4.2334     0.0000     0.0000     0.0000     0.0000     0.0000     0.0000     0.0000     0.0000     0.0000 </r>
        <r>    -4.1126     0.0000     0.0000     0.0000     0.0000     0.0000     0.0000     0.0000     0.0000     0.0000 </r>
        <r>    -3.9918     0.0000     0.0000     0.0000     0.0000     0.0000     0.0000     0.0000     0.0000     0.0000 </r>
        <r>    -3.8710     0.0000     0.0000     0.0000     0.0000     0.0000     0.0000     0.0000     0.0000     0.0000 </r>
        <r>    -3.7503     0.0000     0.0000     0.0000     0.0000     0.0000     0.0000     0.0000     0.0000     0.0000 </r>
        <r>    -3.6295     0.0000     0.0000     0.0000     0.0000     0.0000     0.0000     0.0000     0.0000     0.0000 </r>
        <r>    -3.5087     0.0000     0.0000     0.0000     0.0000     0.0000     0.0000     0.0000     0.0000     0.0000 </r>
        <r>    -3.3879     0.0000     0.0000     0.0000     0.0000     0.0000     0.0000     0.0000     0.0000     0.0000 </r>
        <r>    -3.2672     0.0000     0.0000     0.0000     0.0000     0.0000     0.0000     0.0000     0.0000     0.0000 </r>
        <r>    -3.1464     0.0000     0.0000     0.0000     0.0000     0.0000     0.0000     0.0000     0.0000     0.0000 </r>
        <r>    -3.0256     0.0000     0.0000     0.0000     0.0000     0.0000     0.0000     0.0000     0.0000     0.0000 </r>
        <r>    -2.9048     0.0000     0.0000     0.0000     0.0000     0.0000     0.0000     0.0000     0.0000     0.0000 </r>
        <r>    -2.7840     0.0000     0.0000     0.0000     0.0000     0.0000     0.0000     0.0000     0.0000     0.0000 </r>
        <r>    -2.6633     0.0000     0.0000     0.0000     0.0000     0.0000     0.0000     0.0000     0.0000     0.0000 </r>
        <r>    -2.5425     0.0000     0.0000     0.0000     0.0000     0.0000     0.0000     0.0000     0.0000     0.0000 </r>
        <r>    -2.4217     0.0000     0.0000     0.0000     0.0000     0.0000     0.0000     0.0000     0.0000     0.0000 </r>
        <r>    -2.3009     0.0000     0.0000     0.0000     0.0000     0.0000     0.0000     0.0000     0.0000     0.0000 </r>
        <r>    -2.1802     0.0000     0.0000     0.0000     0.0000     0.0000     0.0000     0.0000     0.0000     0.0000 </r>
        <r>    -2.0594     0.0000     0.0000     0.0000     0.0000     0.0000     0.0000     0.0000     0.0000     0.0000 </r>
        <r>    -1.9386     0.0000     0.0000     0.0000     0.0000     0.0000     0.0000     0.0000     0.0000     0.0000 </r>
        <r>    -1.8178     0.0000     0.0000     0.0000     0.0000     0.0000     0.0000     0.0000     0.0000     0.0000 </r>
        <r>    -1.6971     0.0000     0.0000     0.0000     0.0000     0.0000     0.0000     0.0000     0.0000     0.0000 </r>
        <r>    -1.5763     0.0000     0.0000     0.0000     0.0000     0.0000     0.0000     0.0000     0.0000     0.0000 </r>
        <r>    -1.4555     0.0000     0.0000     0.0000     0.0000     0.0000     0.0000     0.0000     0.0000     0.0000 </r>
        <r>    -1.3347     0.0000     0.0000     0.0000     0.0000     0.0000     0.0000     0.0000     0.0000     0.0000 </r>
        <r>    -1.2139     0.0000     0.0000     0.0000     0.0000     0.0000     0.0000     0.0000     0.0000     0.0000 </r>
        <r>    -1.0932     0.0000     0.0000     0.0000     0.0000     0.0000     0.0000     0.0000     0.0000     0.0000 </r>
        <r>    -0.9724     0.0000     0.0000     0.0000     0.0000     0.0000     0.0000     0.0000     0.0000     0.0000 </r>
        <r>    -0.8516     0.0000     0.0000     0.0000     0.0000     0.0000     0.0000     0.0000     0.0000     0.0000 </r>
        <r>    -0.7308     0.0000     0.0000     0.0000     0.0000     0.0000     0.0000     0.0000     0.0000     0.0000 </r>
        <r>    -0.6101     0.0000     0.0000     0.0000     0.0000     0.0000     0.0000     0.0000     0.0000     0.0000 </r>
        <r>    -0.4893     0.0000     0.0000     0.0000     0.0000     0.0000     0.0000     0.0000     0.0000     0.0000 </r>
        <r>    -0.3685     0.0000     0.0000     0.0000     0.0000     0.0000     0.0000     0.0000     0.0000     0.0000 </r>
        <r>    -0.2477     0.0002     0.0000     0.0000     0.0001     0.0000     0.0000     0.0000     0.0000     0.0000 </r>
        <r>    -0.1270     0.0242     0.0000     0.0000     0.0139     0.0000     0.0000     0.0000     0.0000     0.0000 </r>
        <r>    -0.0062     0.0059     0.0000     0.0000     0.0034     0.0000     0.0000     0.0000     0.0000     0.0000 </r>
        <r>     0.1146     0.0029     0.0000     0.0000     0.0015     0.0000     0.0000     0.0000     0.0000     0.0000 </r>
        <r>     0.2354     0.0344     0.0040     0.0040     0.0178     0.0000     0.0000     0.0000     0.0000     0.0000 </r>
        <r>     0.3562     0.0142     0.0051     0.0051     0.0063     0.0000     0.0000     0.0000     0.0000     0.0000 </r>
        <r>     0.4769     0.0002     0.0000     0.0000     0.0001     0.0000     0.0000     0.0000     0.0000     0.0000 </r>
        <r>     0.5977     0.0000     0.0000     0.0000     0.0000     0.0000     0.0000     0.0000     0.0000     0.0000 </r>
        <r>     0.7185     0.0000     0.0000     0.0000     0.0000     0.0000     0.0000     0.0000     0.0000     0.0000 </r>
        <r>     0.8393     0.0000     0.0000     0.0000     0.0000     0.0000     0.0000     0.0000     0.0000     0.0000 </r>
        <r>     0.9600     0.0000     0.0000     0.0000     0.0000     0.0000     0.0000     0.0000     0.0000     0.0000 </r>
        <r>     1.0808     0.0000     0.0000     0.0000     0.0000     0.0000     0.0000     0.0000     0.0000     0.0000 </r>
        <r>     1.2016     0.0000     0.0000     0.0000     0.0000     0.0000     0.0000     0.0000     0.0000     0.0000 </r>
        <r>     1.3224     0.0000     0.0000     0.0000     0.0000     0.0000     0.0000     0.0000     0.0000     0.0000 </r>
        <r>     1.4431     0.0000     0.0000     0.0000     0.0000     0.0000     0.0000     0.0000     0.0000     0.0000 </r>
        <r>     1.5639     0.0000     0.0000     0.0000     0.0000     0.0000     0.0000     0.0000     0.0000     0.0000 </r>
        <r>     1.6847     0.0000     0.0000     0.0000     0.0000     0.0000     0.0000     0.0000     0.0000     0.0000 </r>
        <r>     1.8055     0.0000     0.0000     0.0000     0.0000     0.0000     0.0000     0.0000     0.0000     0.0000 </r>
        <r>     1.9262     0.0000     0.0000     0.0000     0.0000     0.0000     0.0000     0.0000     0.0000     0.0000 </r>
       </set>
      </set>
     </set>
    </array>
   </partial>
  </dos>
  <projected>
   <eigenvalues>
    <array>
     <dimension dim="1">band</dimension>
     <dimension dim="2">kpoint</dimension>
     <dimension dim="3">spin</dimension>
     <field>eigene</field>
     <field>occ</field>
     <set>
      <set comment="spin 1">
       <set comment="kpoint 1">
        <r>  -32.6598    1.0000 </r>
        <r>  -20.5460    1.0000 </r>
        <r>  -13.5043    1.0000 </r>
        <r>  -13.3910    1.0000 </r>
        <r>  -13.3910    1.0000 </r>
        <r>   -6.9355    1.0000 </r>
        <r>   -6.9355    1.0000 </r>
        <r>   -0.2184    0.0000 </r>
        <r>    0.1096    0.0000 </r>
        <r>    0.2183    0.0000 </r>
        <r>    0.2183    0.0000 </r>
        <r>    0.2444    0.0000 </r>
       </set>
      </set>
      <set comment="spin 2">
       <set comment="kpoint 1">
        <r>  -31.3997    1.0000 </r>
        <r>  -18.7632    1.0000 </r>
        <r>  -12.4839    1.0000 </r>
        <r>  -11.5583    1.0000 </r>
        <r>  -11.5583    1.0000 </r>
        <r>   -4.6853    0.0000 </r>
        <r>   -4.6853    0.0000 </r>
        <r>   -0.1574    0.0000 </r>
        <r>    0.1645    0.0000 </r>
        <r>    0.2408    0.0000 </r>
        <r>    0.2408    0.0000 </r>
        <r>    0.2793    0.0000 </r>
       </set>
      </set>
     </set>
    </array>
   </eigenvalues>
   <array>
    <dimension dim="1">ion</dimension>
    <dimension dim="2">band</dimension>
    <dimension dim="3">kpoint</dimension>
    <dimension dim="4">spin</dimension>
    <field>    s</field>
    <field>   py</field>
    <field>   pz</field>
    <field>   px</field>
    <field>  dxy</field>
    <field>  dyz</field>
    <field>  dz2</field>
    <field>  dxz</field>
    <field>x2-y2</field>
    <set>
     <set comment="spin1">
      <set comment="kpoint 1">
       <set comment="band 1">
        <r>  0.4048  0.0000  0.0000  0.0988  0.0000  0.0000  0.0000  0.0000  0.0000 </r>
        <r>  0.4048  0.0000  0.0000  0.0988  0.0000  0.0000  0.0000  0.0000  0.0000 </r>
       </set>
       <set comment="band 2">
        <r>  0.3742  0.0000  0.0000  0.0420  0.0000  0.0000  0.0000  0.0000  0.0000 </r>
        <r>  0.3742  0.0000  0.0000  0.0420  0.0000  0.0000  0.0000  0.0000  0.0000 </r>
       </set>
       <set comment="band 3">
        <r>  0.0431  0.0000  0.0000  0.3810  0.0000  0.0000  0.0000  0.0000  0.0000 </r>
        <r>  0.0431  0.0000  0.0000  0.3810  0.0000  0.0000  0.0000  0.0000  0.0000 </r>
       </set>
       <set comment="band 4">
        <r>  0.0000  0.0000  0.3740  0.0000  0.0000  0.0000  0.0000  0.0000  0.0000 </r>
        <r>  0.0000  0.0000  0.3740  0.0000  0.0000  0.0000  0.0000  0.0000  0.0000 </r>
       </set>
       <set comment="band 5">
        <r>  0.0000  0.3740  0.0000  0.0000  0.0000  0.0000  0.0000  0.0000  0.0000 </r>
        <r>  0.0000  0.3740  0.0000  0.0000  0.0000  0.0000  0.0000  0.0000  0.0000 </r>
       </set>
       <set comment="band 6">
        <r>  0.0000  0.0000  0.3893  0.0000  0.0000  0.0000  0.0000  0.0000  0.0000 </r>
        <r>  0.0000  0.0000  0.3893  0.0000  0.0000  0.0000  0.0000  0.0000  0.0000 </r>
       </set>
       <set comment="band 7">
        <r>  0.0000  0.3893  0.0000  0.0000  0.0000  0.0000  0.0000  0.0000  0.0000 </r>
        <r>  0.0000  0.3893  0.0000  0.0000  0.0000  0.0000  0.0000  0.0000  0.0000 </r>
       </set>
       <set comment="band 8">
        <r>  0.0029  0.0000  0.0000  0.0016  0.0000  0.0000  0.0000  0.0000  0.0000 </r>
        <r>  0.0029  0.0000  0.0000  0.0016  0.0000  0.0000  0.0000  0.0000  0.0000 </r>
       </set>
       <set comment="band 9">
        <r>  0.0020  0.0000  0.0000  0.0010  0.0000  0.0000  0.0000  0.0000  0.0000 </r>
        <r>  0.0020  0.0000  0.0000  0.0010  0.0000  0.0000  0.0000  0.0000  0.0000 </r>
       </set>
       <set comment="band 10">
        <r>  0.0000  0.0004  0.0002  0.0000  0.0000  0.0000  0.0000  0.0000  0.0000 </r>
        <r>  0.0000  0.0004  0.0002  0.0000  0.0000  0.0000  0.0000  0.0000  0.0000 </r>
       </set>
       <set comment="band 11">
        <r>  0.0000  0.0002  0.0004  0.0000  0.0000  0.0000  0.0000  0.0000  0.0000 </r>
        <r>  0.0000  0.0002  0.0004  0.0000  0.0000  0.0000  0.0000  0.0000  0.0000 </r>
       </set>
       <set comment="band 12">
        <r>  0.0025  0.0000  0.0000  0.0023  0.0000  0.0000  0.0000  0.0000  0.0000 </r>
        <r>  0.0025  0.0000  0.0000  0.0023  0.0000  0.0000  0.0000  0.0000  0.0000 </r>
       </set>
      </set>
     </set>
     <set comment="spin2">
      <set comment="kpoint 1">
       <set comment="band 1">
        <r>  0.3986  0.0000  0.0000  0.1081  0.0000  0.0000  0.0000  0.0000  0.0000 </r>
        <r>  0.3986  0.0000  0.0000  0.1081  0.0000  0.0000  0.0000  0.0000  0.0000 </r>
       </set>
       <set comment="band 2">
        <r>  0.3672  0.0000  0.0000  0.0458  0.0000  0.0000  0.0000  0.0000  0.0000 </r>
        <r>  0.3672  0.0000  0.0000  0.0458  0.0000  0.0000  0.0000  0.0000  0.0000 </r>
       </set>
       <set comment="band 3">
        <r>  0.0473  0.0000  0.0000  0.3698  0.0000  0.0000  0.0000  0.0000  0.0000 </r>
        <r>  0.0473  0.0000  0.0000  0.3698  0.0000  0.0000  0.0000  0.0000  0.0000 </r>
       </set>
       <set comment="band 4">
        <r>  0.0000  0.3601  0.0000  0.0000  0.0000  0.0000  0.0000  0.0000  0.0000 </r>
        <r>  0.0000  0.3601  0.0000  0.0000  0.0000  0.0000  0.0000  0.0000  0.0000 </r>
       </set>
       <set comment="band 5">
        <r>  0.0000  0.0000  0.3601  0.0000  0.0000  0.0000  0.0000  0.0000  0.0000 </r>
        <r>  0.0000  0.0000  0.3601  0.0000  0.0000  0.0000  0.0000  0.0000  0.0000 </r>
       </set>
       <set comment="band 6">
        <r>  0.0000  0.3742  0.0000  0.0000  0.0000  0.0000  0.0000  0.0000  0.0000 </r>
        <r>  0.0000  0.3742  0.0000  0.0000  0.0000  0.0000  0.0000  0.0000  0.0000 </r>
       </set>
       <set comment="band 7">
        <r>  0.0000  0.0000  0.3742  0.0000  0.0000  0.0000  0.0000  0.0000  0.0000 </r>
        <r>  0.0000  0.0000  0.3742  0.0000  0.0000  0.0000  0.0000  0.0000  0.0000 </r>
       </set>
       <set comment="band 8">
        <r>  0.0018  0.0000  0.0000  0.0011  0.0000  0.0000  0.0000  0.0000  0.0000 </r>
        <r>  0.0018  0.0000  0.0000  0.0011  0.0000  0.0000  0.0000  0.0000  0.0000 </r>
       </set>
       <set comment="band 9">
        <r>  0.0022  0.0000  0.0000  0.0012  0.0000  0.0000  0.0000  0.0000  0.0000 </r>
        <r>  0.0022  0.0000  0.0000  0.0012  0.0000  0.0000  0.0000  0.0000  0.0000 </r>
       </set>
       <set comment="band 10">
        <r>  0.0000  0.0001  0.0005  0.0000  0.0000  0.0000  0.0000  0.0000  0.0000 </r>
        <r>  0.0000  0.0001  0.0005  0.0000  0.0000  0.0000  0.0000  0.0000  0.0000 </r>
       </set>
       <set comment="band 11">
        <r>  0.0000  0.0005  0.0001  0.0000  0.0000  0.0000  0.0000  0.0000  0.0000 </r>
        <r>  0.0000  0.0005  0.0001  0.0000  0.0000  0.0000  0.0000  0.0000  0.0000 </r>
       </set>
       <set comment="band 12">
        <r>  0.0009  0.0000  0.0000  0.0004  0.0000  0.0000  0.0000  0.0000  0.0000 </r>
        <r>  0.0009  0.0000  0.0000  0.0004  0.0000  0.0000  0.0000  0.0000  0.0000 </r>
       </set>
      </set>
     </set>
    </set>
   </array>
  </projected>
 </calculation>
 <structure name="finalpos" >
  <crystal>
   <varray name="basis" >
    <v>      20.00000000       0.00000000       0.00000000 </v>
    <v>       0.00000000      20.00000000       0.00000000 </v>
    <v>       0.00000000       0.00000000      20.00000000 </v>
   </varray>
   <i name="volume">   8000.00000000 </i>
   <varray name="rec_basis" >
    <v>       0.05000000       0.00000000       0.00000000 </v>
    <v>       0.00000000       0.05000000       0.00000000 </v>
    <v>       0.00000000       0.00000000       0.05000000 </v>
   </varray>
  </crystal>
  <varray name="positions" >
   <v>       0.99947315       0.00000000       0.00000000 </v>
   <v>       0.06090185       0.00000000       0.00000000 </v>
  </varray>
 </structure>
</modeling>
