       N       E                     dE             d eps       ncg     rms          ort
DAV:   1     0.134375590141E+03    0.13438E+03   -0.44139E+03    36   0.259E+02
DAV:   2     0.149035137979E+02   -0.11947E+03   -0.11902E+03    36   0.836E+01
DAV:   3    -0.182954043095E+00   -0.15086E+02   -0.14839E+02    36   0.389E+01
DAV:   4    -0.157397516066E+01   -0.13910E+01   -0.13828E+01    36   0.126E+01
DAV:   5    -0.185158433009E+01   -0.27761E+00   -0.27569E+00    36   0.369E+00
SDA:   6    -0.169705557281E+01    0.15453E+00   -0.49004E+01    36   0.123E+02 0.000E+00
DMP:   7    -0.792286171322E-01    0.16178E+01   -0.15292E+02    36   0.469E+02-0.227E+02
DMP:   8     0.422220684552E+01    0.43014E+01   -0.34475E+02    36   0.107E+03-0.555E+02
DMP:   9     0.891160369578E+01    0.46894E+01   -0.34758E+02    36   0.121E+03-0.888E+02
DMP:  10     0.131281928461E+01   -0.75988E+01   -0.15211E+02    36   0.602E+02-0.580E+02
DMP:  11    -0.119743051648E+01   -0.25102E+01   -0.82184E+01    36   0.300E+02-0.247E+02
DMP:  12    -0.501822126218E+01   -0.38208E+01   -0.33476E+00    36   0.144E+01-0.157E+01
DMP:  13    -0.489520088691E+01    0.12302E+00   -0.11947E+01    36   0.350E+01-0.133E+01
DMP:  14    -0.520246931883E+01   -0.30727E+00   -0.33856E+00    36   0.136E+01-0.134E+01
DMP:  15    -0.538767221726E+01   -0.18520E+00   -0.85844E-01    36   0.178E+00 0.949E-01
DMP:  16    -0.540524927629E+01   -0.17577E-01   -0.67777E-01    36   0.217E+00-0.124E+00
DMP:  17    -0.544154646483E+01   -0.36297E-01   -0.11047E-01    36   0.224E-01 0.137E-01
DMP:  18    -0.544522102286E+01   -0.36746E-02   -0.99220E-02    36   0.280E-01-0.845E-02
DMP:  19    -0.545089658702E+01   -0.56756E-02   -0.19863E-02    36   0.353E-02 0.375E-02
DMP:  20    -0.545177092303E+01   -0.87434E-03   -0.14646E-02    36   0.388E-02-0.582E-03
DMP:  21    -0.545273181684E+01   -0.96089E-03   -0.47735E-03    36   0.755E-03 0.115E-02
DMP:  22    -0.545299193982E+01   -0.26012E-03   -0.26871E-03    36   0.630E-03 0.111E-03
DMP:  23    -0.545319258118E+01   -0.20064E-03   -0.14215E-03    36   0.227E-03 0.337E-03
DMP:  24    -0.545329087884E+01   -0.98298E-04   -0.84082E-04    36   0.157E-03 0.140E-03
DMP:  25    -0.545336042833E+01   -0.69549E-04   -0.54274E-04    36   0.827E-04 0.139E-03
DMP:  26    -0.545340468299E+01   -0.44255E-04   -0.35254E-04    36   0.550E-04 0.867E-04
   1 F= -.54534047E+01 E0= -.54534047E+01  d E =-.545340E+01  mag=     6.0000
