       N       E                     dE             d eps       ncg     rms          ort
DAV:   1     0.124951847646E+03    0.12495E+03   -0.37821E+03    36   0.259E+02
DAV:   2     0.171981365344E+02   -0.10775E+03   -0.10764E+03    36   0.376E+01
DAV:   3     0.158408202506E+01   -0.15614E+02   -0.15614E+02    36   0.332E+01
DAV:   4     0.235506954305E+00   -0.13486E+01   -0.13486E+01    36   0.121E+01
DAV:   5     0.664790895896E-01   -0.16903E+00   -0.16903E+00    36   0.386E+00
SDA:   6     0.235399674132E-01   -0.42939E-01   -0.60913E-01    36   0.152E+00 0.000E+00
DMP:   7    -0.613600027418E-02   -0.29676E-01   -0.65333E-02    36   0.186E-01-0.581E-02
DMP:   8    -0.861642278642E-02   -0.24804E-02   -0.63136E-02    36   0.177E-01-0.491E-02
DMP:   9    -0.115178079889E-01   -0.29014E-02   -0.85629E-03    36   0.270E-02-0.145E-02
DMP:  10    -0.116911416774E-01   -0.17333E-03   -0.73025E-03    36   0.232E-02-0.129E-02
DMP:  11    -0.120694568943E-01   -0.37832E-03   -0.25030E-03    36   0.600E-03 0.663E-04
DMP:  12    -0.121943991635E-01   -0.12494E-03   -0.13292E-03    36   0.332E-03 0.877E-06
DMP:  13    -0.122728253777E-01   -0.78426E-04   -0.37032E-04    36   0.719E-04 0.540E-04
DMP:  14    -0.122886237325E-01   -0.15798E-04   -0.11465E-04    36   0.354E-04-0.176E-04
   1 F= -.12288624E-01 E0= -.12288624E-01  d E =-.122886E-01  mag=     0.0000
