       N       E                     dE             d eps       ncg     rms          ort
DAV:   1     0.301272987293E+03    0.30127E+03   -0.40495E+03    36   0.281E+02
DAV:   2     0.932234278324E+02   -0.20805E+03   -0.20804E+03    36   0.480E+01
DAV:   3     0.105289593189E+02   -0.82694E+02   -0.82692E+02    36   0.685E+01
DAV:   4     0.115840394342E+01   -0.93706E+01   -0.92410E+01    36   0.310E+01
DAV:   5    -0.248497897801E+00   -0.14069E+01   -0.14004E+01    36   0.104E+01
SDA:   6    -0.119657147508E+01   -0.94807E+00   -0.14415E+02    36   0.360E+02 0.000E+00
DMP:   7     0.818593156175E-01    0.12784E+01   -0.11153E+02    36   0.310E+02-0.815E+01
DMP:   8     0.165307876347E+01    0.15712E+01   -0.13982E+02    36   0.464E+02-0.301E+02
DMP:   9    -0.387476514266E+00   -0.20406E+01   -0.86926E+01    36   0.321E+02-0.270E+02
DMP:  10    -0.205895476232E+01   -0.16715E+01   -0.29333E+01    36   0.121E+02-0.125E+02
DMP:  11    -0.291651610386E+01   -0.85756E+00   -0.10548E+01    36   0.416E+01-0.398E+01
DMP:  12    -0.305792116054E+01   -0.14141E+00   -0.29284E+00    36   0.992E+00-0.681E+00
DMP:  13    -0.304826368698E+01    0.96575E-02   -0.11819E+01    36   0.388E+01-0.243E+01
DMP:  14    -0.297114241528E+01    0.77121E-01   -0.47334E+00    36   0.161E+01-0.113E+01
DMP:  15    -0.283590804621E+01    0.13523E+00   -0.20539E+01    36   0.661E+01-0.386E+01
DMP:  16    -0.285580689533E+01   -0.19899E-01   -0.55131E+00    36   0.196E+01-0.151E+01
DMP:  17    -0.302939112109E+01   -0.17358E+00   -0.11184E+01    36   0.431E+01-0.396E+01
DMP:  18    -0.296130418456E+01    0.68087E-01   -0.39913E+00    36   0.137E+01-0.970E+00
DMP:  19    -0.291536105275E+01    0.45943E-01   -0.16540E+01    36   0.543E+01-0.339E+01
DMP:  20    -0.296366322043E+01   -0.48302E-01   -0.49200E+00    36   0.161E+01-0.100E+01
DMP:  21    -0.313619855180E+01   -0.17254E+00   -0.85260E+00    36   0.327E+01-0.299E+01
DMP:  22    -0.307471536763E+01    0.61483E-01   -0.37149E+00    36   0.137E+01-0.115E+01
DMP:  23    -0.297344750116E+01    0.10127E+00   -0.16133E+01    36   0.522E+01-0.311E+01
DMP:  24    -0.305134593606E+01   -0.77898E-01   -0.39821E+00    36   0.131E+01-0.825E+00
DMP:  25    -0.326541763430E+01   -0.21407E+00   -0.31202E+00    36   0.148E+01-0.183E+01
DMP:  26    -0.329841880480E+01   -0.33001E-01   -0.21314E+00    36   0.742E+00-0.547E+00
DMP:  27    -0.325694254513E+01    0.41476E-01   -0.55082E+00    36   0.171E+01-0.869E+00
DMP:  28    -0.323202158053E+01    0.24921E-01   -0.22478E+00    36   0.743E+00-0.475E+00
DMP:  29    -0.324140750652E+01   -0.93859E-02   -0.57469E+00    36   0.203E+01-0.154E+01
DMP:  30    -0.326370831681E+01   -0.22301E-01   -0.16818E+00    36   0.585E+00-0.431E+00
DMP:  31    -0.329040153164E+01   -0.26693E-01   -0.32257E+00    36   0.119E+01-0.992E+00
DMP:  32    -0.330314303519E+01   -0.12742E-01   -0.13103E+00    36   0.452E+00-0.326E+00
DMP:  33    -0.330167320136E+01    0.14698E-02   -0.28862E+00    36   0.992E+00-0.709E+00
DMP:  34    -0.330480724143E+01   -0.31340E-02   -0.12027E+00    36   0.415E+00-0.300E+00
DMP:  35    -0.330956732360E+01   -0.47601E-02   -0.24242E+00    36   0.854E+00-0.648E+00
DMP:  36    -0.331512718525E+01   -0.55599E-02   -0.10316E+00    36   0.358E+00-0.263E+00
DMP:  37    -0.331887079291E+01   -0.37436E-02   -0.19535E+00    36   0.687E+00-0.519E+00
DMP:  38    -0.332256027470E+01   -0.36895E-02   -0.90573E-01    36   0.314E+00-0.230E+00
DMP:  39    -0.332424395708E+01   -0.16837E-02   -0.16907E+00    36   0.590E+00-0.438E+00
DMP:  40    -0.332656892954E+01   -0.23250E-02   -0.82864E-01    36   0.287E+00-0.209E+00
DMP:  41    -0.332759456642E+01   -0.10256E-02   -0.15212E+00    36   0.530E+00-0.391E+00
DMP:  42    -0.332940046632E+01   -0.18059E-02   -0.77138E-01    36   0.267E+00-0.195E+00
DMP:  43    -0.333011101106E+01   -0.71054E-03   -0.13927E+00    36   0.484E+00-0.357E+00
DMP:  44    -0.333156046885E+01   -0.14495E-02   -0.72723E-01    36   0.252E+00-0.183E+00
DMP:  45    -0.333196373802E+01   -0.40327E-03   -0.12989E+00    36   0.451E+00-0.331E+00
DMP:  46    -0.333310775564E+01   -0.11440E-02   -0.69511E-01    36   0.241E+00-0.175E+00
DMP:  47    -0.333326275849E+01   -0.15500E-03   -0.12334E+00    36   0.428E+00-0.313E+00
DMP:  48    -0.333418275532E+01   -0.92000E-03   -0.67237E-01    36   0.233E+00-0.169E+00
DMP:  49    -0.333416837940E+01    0.14376E-04   -0.11878E+00    36   0.412E+00-0.300E+00
DMP:  50    -0.333493686603E+01   -0.76849E-03   -0.65619E-01    36   0.227E+00-0.165E+00
DMP:  51    -0.333480957010E+01    0.12730E-03   -0.11554E+00    36   0.400E+00-0.291E+00
DMP:  52    -0.333547457540E+01   -0.66501E-03   -0.64454E-01    36   0.223E+00-0.161E+00
DMP:  53    -0.333526894507E+01    0.20563E-03   -0.11322E+00    36   0.392E+00-0.285E+00
DMP:  54    -0.333586099059E+01   -0.59205E-03   -0.63611E-01    36   0.220E+00-0.159E+00
DMP:  55    -0.333559939735E+01    0.26159E-03   -0.11155E+00    36   0.386E+00-0.280E+00
DMP:  56    -0.333613924729E+01   -0.53985E-03   -0.63002E-01    36   0.218E+00-0.158E+00
DMP:  57    -0.333583755617E+01    0.30169E-03   -0.11035E+00    36   0.382E+00-0.277E+00
DMP:  58    -0.333634015872E+01   -0.50260E-03   -0.62561E-01    36   0.216E+00-0.156E+00
DMP:  59    -0.333601000242E+01    0.33016E-03   -0.10948E+00    36   0.379E+00-0.274E+00
DMP:  60    -0.333648629734E+01   -0.47629E-03   -0.62238E-01    36   0.215E+00-0.156E+00
DMP:  61    -0.333613620761E+01    0.35009E-03   -0.10884E+00    36   0.376E+00-0.273E+00
DMP:  62    -0.333659360075E+01   -0.45739E-03   -0.62001E-01    36   0.214E+00-0.155E+00
DMP:  63    -0.333622885838E+01    0.36474E-03   -0.10837E+00    36   0.375E+00-0.271E+00
DMP:  64    -0.333667202780E+01   -0.44317E-03   -0.61829E-01    36   0.214E+00-0.155E+00
DMP:  65    -0.333629557302E+01    0.37645E-03   -0.10804E+00    36   0.373E+00-0.270E+00
DMP:  66    -0.333672815221E+01   -0.43258E-03   -0.61705E-01    36   0.213E+00-0.154E+00
DMP:  67    -0.333634350225E+01    0.38465E-03   -0.10780E+00    36   0.373E+00-0.270E+00
DMP:  68    -0.333676874873E+01   -0.42525E-03   -0.61615E-01    36   0.213E+00-0.154E+00
DMP:  69    -0.333637857374E+01    0.39017E-03   -0.10762E+00    36   0.372E+00-0.269E+00
DMP:  70    -0.333679872510E+01   -0.42015E-03   -0.61549E-01    36   0.213E+00-0.154E+00
DMP:  71    -0.333640466495E+01    0.39406E-03   -0.10749E+00    36   0.371E+00-0.269E+00
DMP:  72    -0.333682115020E+01   -0.41649E-03   -0.61499E-01    36   0.212E+00-0.154E+00
DMP:  73    -0.333642426164E+01    0.39689E-03   -0.10739E+00    36   0.371E+00-0.269E+00
DMP:  74    -0.333683804997E+01   -0.41379E-03   -0.61461E-01    36   0.212E+00-0.154E+00
DMP:  75    -0.333643906498E+01    0.39898E-03   -0.10731E+00    36   0.371E+00-0.268E+00
DMP:  76    -0.333685084849E+01   -0.41178E-03   -0.61433E-01    36   0.212E+00-0.153E+00
DMP:  77    -0.333645029948E+01    0.40055E-03   -0.10725E+00    36   0.371E+00-0.268E+00
DMP:  78    -0.333686058615E+01   -0.41029E-03   -0.61411E-01    36   0.212E+00-0.153E+00
DMP:  79    -0.333645886504E+01    0.40172E-03   -0.10721E+00    36   0.370E+00-0.268E+00
DMP:  80    -0.333686802971E+01   -0.40916E-03   -0.61395E-01    36   0.212E+00-0.153E+00
DMP:  81    -0.333646542874E+01    0.40260E-03   -0.10718E+00    36   0.370E+00-0.268E+00
DMP:  82    -0.333687374853E+01   -0.40832E-03   -0.61382E-01    36   0.212E+00-0.153E+00
DMP:  83    -0.333647048191E+01    0.40327E-03   -0.10715E+00    36   0.370E+00-0.268E+00
DMP:  84    -0.333687816176E+01   -0.40768E-03   -0.61372E-01    36   0.212E+00-0.153E+00
DMP:  85    -0.333647438870E+01    0.40377E-03   -0.10713E+00    36   0.370E+00-0.268E+00
DMP:  86    -0.333688158200E+01   -0.40719E-03   -0.61364E-01    36   0.212E+00-0.153E+00
DMP:  87    -0.333647742173E+01    0.40416E-03   -0.10712E+00    36   0.370E+00-0.268E+00
DMP:  88    -0.333688424266E+01   -0.40682E-03   -0.61358E-01    36   0.212E+00-0.153E+00
DMP:  89    -0.333647978573E+01    0.40446E-03   -0.10710E+00    36   0.370E+00-0.268E+00
DMP:  90    -0.333688632144E+01   -0.40654E-03   -0.61354E-01    36   0.212E+00-0.153E+00
DMP:  91    -0.333648163579E+01    0.40469E-03   -0.10709E+00    36   0.370E+00-0.268E+00
DMP:  92    -0.333688795123E+01   -0.40632E-03   -0.61350E-01    36   0.212E+00-0.153E+00
DMP:  93    -0.333648308902E+01    0.40486E-03   -0.10709E+00    36   0.370E+00-0.268E+00
DMP:  94    -0.333688923439E+01   -0.40615E-03   -0.61347E-01    36   0.212E+00-0.153E+00
DMP:  95    -0.333648423489E+01    0.40500E-03   -0.10708E+00    36   0.370E+00-0.268E+00
DMP:  96    -0.333689024827E+01   -0.40601E-03   -0.61345E-01    36   0.212E+00-0.153E+00
DMP:  97    -0.333648514164E+01    0.40511E-03   -0.10708E+00    36   0.370E+00-0.268E+00
DMP:  98    -0.333689105171E+01   -0.40591E-03   -0.61343E-01    36   0.212E+00-0.153E+00
DMP:  99    -0.333648586087E+01    0.40519E-03   -0.10707E+00    36   0.370E+00-0.268E+00
DMP: 100    -0.333689169064E+01   -0.40583E-03   -0.61342E-01    36   0.212E+00-0.153E+00
DMP: 101    -0.333648643368E+01    0.40526E-03   -0.10707E+00    36   0.370E+00-0.268E+00
DMP: 102    -0.333689219954E+01   -0.40577E-03   -0.61341E-01    36   0.212E+00-0.153E+00
DMP: 103    -0.333648689056E+01    0.40531E-03   -0.10707E+00    36   0.370E+00-0.268E+00
DMP: 104    -0.333689260650E+01   -0.40572E-03   -0.61340E-01    36   0.212E+00-0.153E+00
DMP: 105    -0.333648725624E+01    0.40535E-03   -0.10707E+00    36   0.370E+00-0.268E+00
DMP: 106    -0.333689293244E+01   -0.40568E-03   -0.61339E-01    36   0.212E+00-0.153E+00
DMP: 107    -0.333648754957E+01    0.40538E-03   -0.10706E+00    36   0.370E+00-0.268E+00
DMP: 108    -0.333689319404E+01   -0.40564E-03   -0.61338E-01    36   0.212E+00-0.153E+00
DMP: 109    -0.333648778527E+01    0.40541E-03   -0.10706E+00    36   0.370E+00-0.268E+00
DMP: 110    -0.333689340496E+01   -0.40562E-03   -0.61338E-01    36   0.212E+00-0.153E+00
DMP: 111    -0.333648797437E+01    0.40543E-03   -0.10706E+00    36   0.370E+00-0.268E+00
DMP: 112    -0.333689357390E+01   -0.40560E-03   -0.61338E-01    36   0.212E+00-0.153E+00
DMP: 113    -0.333648812675E+01    0.40545E-03   -0.10706E+00    36   0.370E+00-0.268E+00
DMP: 114    -0.333689371024E+01   -0.40558E-03   -0.61337E-01    36   0.212E+00-0.153E+00
DMP: 115    -0.333648824995E+01    0.40546E-03   -0.10706E+00    36   0.370E+00-0.268E+00
DMP: 116    -0.333689382057E+01   -0.40557E-03   -0.61337E-01    36   0.212E+00-0.153E+00
DMP: 117    -0.333648834959E+01    0.40547E-03   -0.10706E+00    36   0.370E+00-0.268E+00
DMP: 118    -0.333689391022E+01   -0.40556E-03   -0.61337E-01    36   0.212E+00-0.153E+00
DMP: 119    -0.333648843058E+01    0.40548E-03   -0.10706E+00    36   0.370E+00-0.268E+00
DMP: 120    -0.333689398252E+01   -0.40555E-03   -0.61337E-01    36   0.212E+00-0.153E+00
DMP: 121    -0.333648849560E+01    0.40549E-03   -0.10706E+00    36   0.370E+00-0.268E+00
DMP: 122    -0.333689404102E+01   -0.40555E-03   -0.61337E-01    36   0.212E+00-0.153E+00
DMP: 123    -0.333648854844E+01    0.40549E-03   -0.10706E+00    36   0.370E+00-0.268E+00
DMP: 124    -0.333689408831E+01   -0.40554E-03   -0.61336E-01    36   0.212E+00-0.153E+00
DMP: 125    -0.333648859104E+01    0.40550E-03   -0.10706E+00    36   0.370E+00-0.268E+00
DMP: 126    -0.333689412682E+01   -0.40554E-03   -0.61336E-01    36   0.212E+00-0.153E+00
DMP: 127    -0.333648862622E+01    0.40550E-03   -0.10706E+00    36   0.370E+00-0.268E+00
DMP: 128    -0.333689415850E+01   -0.40553E-03   -0.61336E-01    36   0.212E+00-0.153E+00
DMP: 129    -0.333648865496E+01    0.40550E-03   -0.10706E+00    36   0.370E+00-0.268E+00
DMP: 130    -0.333689418466E+01   -0.40553E-03   -0.61336E-01    36   0.212E+00-0.153E+00
DMP: 131    -0.333648867757E+01    0.40551E-03   -0.10706E+00    36   0.370E+00-0.268E+00
DMP: 132    -0.333689420448E+01   -0.40553E-03   -0.61336E-01    36   0.212E+00-0.153E+00
DMP: 133    -0.333648869687E+01    0.40551E-03   -0.10706E+00    36   0.370E+00-0.268E+00
DMP: 134    -0.333689422170E+01   -0.40552E-03   -0.61336E-01    36   0.212E+00-0.153E+00
DMP: 135    -0.333648871204E+01    0.40551E-03   -0.10706E+00    36   0.370E+00-0.268E+00
DMP: 136    -0.333689423584E+01   -0.40552E-03   -0.61336E-01    36   0.212E+00-0.153E+00
DMP: 137    -0.333648872446E+01    0.40551E-03   -0.10706E+00    36   0.370E+00-0.268E+00
DMP: 138    -0.333689424685E+01   -0.40552E-03   -0.61336E-01    36   0.212E+00-0.153E+00
DMP: 139    -0.333648873450E+01    0.40551E-03   -0.10706E+00    36   0.370E+00-0.268E+00
DMP: 140    -0.333689425596E+01   -0.40552E-03   -0.61336E-01    36   0.212E+00-0.153E+00
DMP: 141    -0.333648874264E+01    0.40551E-03   -0.10706E+00    36   0.370E+00-0.268E+00
DMP: 142    -0.333689426333E+01   -0.40552E-03   -0.61336E-01    36   0.212E+00-0.153E+00
DMP: 143    -0.333648874922E+01    0.40551E-03   -0.10706E+00    36   0.370E+00-0.268E+00
DMP: 144    -0.333689426911E+01   -0.40552E-03   -0.61336E-01    36   0.212E+00-0.153E+00
DMP: 145    -0.333648875468E+01    0.40551E-03   -0.10706E+00    36   0.370E+00-0.268E+00
DMP: 146    -0.333689427405E+01   -0.40552E-03   -0.61336E-01    36   0.212E+00-0.153E+00
DMP: 147    -0.333648875942E+01    0.40551E-03   -0.10706E+00    36   0.370E+00-0.268E+00
DMP: 148    -0.333689427842E+01   -0.40552E-03   -0.61336E-01    36   0.212E+00-0.153E+00
DMP: 149    -0.333648876340E+01    0.40552E-03   -0.10706E+00    36   0.370E+00-0.268E+00
DMP: 150    -0.333689428184E+01   -0.40552E-03   -0.61336E-01    36   0.212E+00-0.153E+00
DMP: 151    -0.333648876621E+01    0.40552E-03   -0.10706E+00    36   0.370E+00-0.268E+00
DMP: 152    -0.333689428415E+01   -0.40552E-03   -0.61336E-01    36   0.212E+00-0.153E+00
DMP: 153    -0.333648876857E+01    0.40552E-03   -0.10706E+00    36   0.370E+00-0.268E+00
DMP: 154    -0.333689428683E+01   -0.40552E-03   -0.61336E-01    36   0.212E+00-0.153E+00
DMP: 155    -0.333648877042E+01    0.40552E-03   -0.10706E+00    36   0.370E+00-0.268E+00
DMP: 156    -0.333689428832E+01   -0.40552E-03   -0.61336E-01    36   0.212E+00-0.153E+00
DMP: 157    -0.333648877171E+01    0.40552E-03   -0.10706E+00    36   0.370E+00-0.268E+00
DMP: 158    -0.333689428970E+01   -0.40552E-03   -0.61336E-01    36   0.212E+00-0.153E+00
DMP: 159    -0.333648877327E+01    0.40552E-03   -0.10706E+00    36   0.370E+00-0.268E+00
DMP: 160    -0.333689429082E+01   -0.40552E-03   -0.61336E-01    36   0.212E+00-0.153E+00
DMP: 161    -0.333648877476E+01    0.40552E-03   -0.10706E+00    36   0.370E+00-0.268E+00
DMP: 162    -0.333689429199E+01   -0.40552E-03   -0.61336E-01    36   0.212E+00-0.153E+00
DMP: 163    -0.333648877582E+01    0.40552E-03   -0.10706E+00    36   0.370E+00-0.268E+00
DMP: 164    -0.333689429292E+01   -0.40552E-03   -0.61336E-01    36   0.212E+00-0.153E+00
DMP: 165    -0.333648877655E+01    0.40552E-03   -0.10706E+00    36   0.370E+00-0.268E+00
DMP: 166    -0.333689429385E+01   -0.40552E-03   -0.61336E-01    36   0.212E+00-0.153E+00
DMP: 167    -0.333648877705E+01    0.40552E-03   -0.10706E+00    36   0.370E+00-0.268E+00
DMP: 168    -0.333689429388E+01   -0.40552E-03   -0.61336E-01    36   0.212E+00-0.153E+00
DMP: 169    -0.333648877718E+01    0.40552E-03   -0.10706E+00    36   0.370E+00-0.268E+00
DMP: 170    -0.333689429420E+01   -0.40552E-03   -0.61336E-01    36   0.212E+00-0.153E+00
DMP: 171    -0.333648877805E+01    0.40552E-03   -0.10706E+00    36   0.370E+00-0.268E+00
DMP: 172    -0.333689429498E+01   -0.40552E-03   -0.61336E-01    36   0.212E+00-0.153E+00
DMP: 173    -0.333648877791E+01    0.40552E-03   -0.10706E+00    36   0.370E+00-0.268E+00
DMP: 174    -0.333689429511E+01   -0.40552E-03   -0.61336E-01    36   0.212E+00-0.153E+00
DMP: 175    -0.333648877806E+01    0.40552E-03   -0.10706E+00    36   0.370E+00-0.268E+00
DMP: 176    -0.333689429525E+01   -0.40552E-03   -0.61336E-01    36   0.212E+00-0.153E+00
DMP: 177    -0.333648877837E+01    0.40552E-03   -0.10706E+00    36   0.370E+00-0.268E+00
DMP: 178    -0.333689429534E+01   -0.40552E-03   -0.61336E-01    36   0.212E+00-0.153E+00
DMP: 179    -0.333648877891E+01    0.40552E-03   -0.10706E+00    36   0.370E+00-0.268E+00
DMP: 180    -0.333689429560E+01   -0.40552E-03   -0.61336E-01    36   0.212E+00-0.153E+00
DMP: 181    -0.333648877921E+01    0.40552E-03   -0.10706E+00    36   0.370E+00-0.268E+00
DMP: 182    -0.333689429613E+01   -0.40552E-03   -0.61336E-01    36   0.212E+00-0.153E+00
DMP: 183    -0.333648877921E+01    0.40552E-03   -0.10706E+00    36   0.370E+00-0.268E+00
DMP: 184    -0.333689429582E+01   -0.40552E-03   -0.61336E-01    36   0.212E+00-0.153E+00
DMP: 185    -0.333648877930E+01    0.40552E-03   -0.10706E+00    36   0.370E+00-0.268E+00
DMP: 186    -0.333689429620E+01   -0.40552E-03   -0.61336E-01    36   0.212E+00-0.153E+00
DMP: 187    -0.333648877966E+01    0.40552E-03   -0.10706E+00    36   0.370E+00-0.268E+00
DMP: 188    -0.333689429639E+01   -0.40552E-03   -0.61336E-01    36   0.212E+00-0.153E+00
DMP: 189    -0.333648877928E+01    0.40552E-03   -0.10706E+00    36   0.370E+00-0.268E+00
DMP: 190    -0.333689429585E+01   -0.40552E-03   -0.61336E-01    36   0.212E+00-0.153E+00
DMP: 191    -0.333648877932E+01    0.40552E-03   -0.10706E+00    36   0.370E+00-0.268E+00
DMP: 192    -0.333689429606E+01   -0.40552E-03   -0.61336E-01    36   0.212E+00-0.153E+00
DMP: 193    -0.333648877946E+01    0.40552E-03   -0.10706E+00    36   0.370E+00-0.268E+00
DMP: 194    -0.333689429620E+01   -0.40552E-03   -0.61336E-01    36   0.212E+00-0.153E+00
DMP: 195    -0.333648877973E+01    0.40552E-03   -0.10706E+00    36   0.370E+00-0.268E+00
DMP: 196    -0.333689429682E+01   -0.40552E-03   -0.61336E-01    36   0.212E+00-0.153E+00
DMP: 197    -0.333648877965E+01    0.40552E-03   -0.10706E+00    36   0.370E+00-0.268E+00
DMP: 198    -0.333689429621E+01   -0.40552E-03   -0.61336E-01    36   0.212E+00-0.153E+00
DMP: 199    -0.333648877956E+01    0.40552E-03   -0.10706E+00    36   0.370E+00-0.268E+00
DMP: 200    -0.333689429631E+01   -0.40552E-03   -0.61336E-01    36   0.212E+00-0.153E+00
DMP: 201    -0.333648877995E+01    0.40552E-03   -0.10706E+00    36   0.370E+00-0.268E+00
DMP: 202    -0.333689429685E+01   -0.40552E-03   -0.61336E-01    36   0.212E+00-0.153E+00
DMP: 203    -0.333648877976E+01    0.40552E-03   -0.10706E+00    36   0.370E+00-0.268E+00
DMP: 204    -0.333689429610E+01   -0.40552E-03   -0.61336E-01    36   0.212E+00-0.153E+00
DMP: 205    -0.333648877951E+01    0.40552E-03   -0.10706E+00    36   0.370E+00-0.268E+00
DMP: 206    -0.333689429614E+01   -0.40552E-03   -0.61336E-01    36   0.212E+00-0.153E+00
DMP: 207    -0.333648877978E+01    0.40552E-03   -0.10706E+00    36   0.370E+00-0.268E+00
DMP: 208    -0.333689429641E+01   -0.40552E-03   -0.61336E-01    36   0.212E+00-0.153E+00
DMP: 209    -0.333648877983E+01    0.40552E-03   -0.10706E+00    36   0.370E+00-0.268E+00
DMP: 210    -0.333689429660E+01   -0.40552E-03   -0.61336E-01    36   0.212E+00-0.153E+00
DMP: 211    -0.333648877996E+01    0.40552E-03   -0.10706E+00    36   0.370E+00-0.268E+00
DMP: 212    -0.333689429658E+01   -0.40552E-03   -0.61336E-01    36   0.212E+00-0.153E+00
DMP: 213    -0.333648877938E+01    0.40552E-03   -0.10706E+00    36   0.370E+00-0.268E+00
DMP: 214    -0.333689429651E+01   -0.40552E-03   -0.61336E-01    36   0.212E+00-0.153E+00
DMP: 215    -0.333648877959E+01    0.40552E-03   -0.10706E+00    36   0.370E+00-0.268E+00
DMP: 216    -0.333689429626E+01   -0.40552E-03   -0.61336E-01    36   0.212E+00-0.153E+00
DMP: 217    -0.333648877959E+01    0.40552E-03   -0.10706E+00    36   0.370E+00-0.268E+00
DMP: 218    -0.333689429644E+01   -0.40552E-03   -0.61336E-01    36   0.212E+00-0.153E+00
DMP: 219    -0.333648877967E+01    0.40552E-03   -0.10706E+00    36   0.370E+00-0.268E+00
DMP: 220    -0.333689429634E+01   -0.40552E-03   -0.61336E-01    36   0.212E+00-0.153E+00
DMP: 221    -0.333648877967E+01    0.40552E-03   -0.10706E+00    36   0.370E+00-0.268E+00
DMP: 222    -0.333689429612E+01   -0.40552E-03   -0.61336E-01    36   0.212E+00-0.153E+00
DMP: 223    -0.333648877939E+01    0.40552E-03   -0.10706E+00    36   0.370E+00-0.268E+00
DMP: 224    -0.333689429651E+01   -0.40552E-03   -0.61336E-01    36   0.212E+00-0.153E+00
DMP: 225    -0.333648877964E+01    0.40552E-03   -0.10706E+00    36   0.370E+00-0.268E+00
DMP: 226    -0.333689429645E+01   -0.40552E-03   -0.61336E-01    36   0.212E+00-0.153E+00
DMP: 227    -0.333648877925E+01    0.40552E-03   -0.10706E+00    36   0.370E+00-0.268E+00
DMP: 228    -0.333689429629E+01   -0.40552E-03   -0.61336E-01    36   0.212E+00-0.153E+00
DMP: 229    -0.333648877921E+01    0.40552E-03   -0.10706E+00    36   0.370E+00-0.268E+00
DMP: 230    -0.333689429655E+01   -0.40552E-03   -0.61336E-01    36   0.212E+00-0.153E+00
DMP: 231    -0.333648877948E+01    0.40552E-03   -0.10706E+00    36   0.370E+00-0.268E+00
DMP: 232    -0.333689429640E+01   -0.40552E-03   -0.61336E-01    36   0.212E+00-0.153E+00
DMP: 233    -0.333648877932E+01    0.40552E-03   -0.10706E+00    36   0.370E+00-0.268E+00
DMP: 234    -0.333689429641E+01   -0.40552E-03   -0.61336E-01    36   0.212E+00-0.153E+00
DMP: 235    -0.333648877940E+01    0.40552E-03   -0.10706E+00    36   0.370E+00-0.268E+00
DMP: 236    -0.333689429616E+01   -0.40552E-03   -0.61336E-01    36   0.212E+00-0.153E+00
DMP: 237    -0.333648877938E+01    0.40552E-03   -0.10706E+00    36   0.370E+00-0.268E+00
DMP: 238    -0.333689429644E+01   -0.40552E-03   -0.61336E-01    36   0.212E+00-0.153E+00
DMP: 239    -0.333648877941E+01    0.40552E-03   -0.10706E+00    36   0.370E+00-0.268E+00
DMP: 240    -0.333689429639E+01   -0.40552E-03   -0.61336E-01    36   0.212E+00-0.153E+00
DMP: 241    -0.333648877971E+01    0.40552E-03   -0.10706E+00    36   0.370E+00-0.268E+00
DMP: 242    -0.333689429634E+01   -0.40552E-03   -0.61336E-01    36   0.212E+00-0.153E+00
DMP: 243    -0.333648877928E+01    0.40552E-03   -0.10706E+00    36   0.370E+00-0.268E+00
DMP: 244    -0.333689429633E+01   -0.40552E-03   -0.61336E-01    36   0.212E+00-0.153E+00
DMP: 245    -0.333648877944E+01    0.40552E-03   -0.10706E+00    36   0.370E+00-0.268E+00
DMP: 246    -0.333689429645E+01   -0.40552E-03   -0.61336E-01    36   0.212E+00-0.153E+00
DMP: 247    -0.333648877923E+01    0.40552E-03   -0.10706E+00    36   0.370E+00-0.268E+00
DMP: 248    -0.333689429658E+01   -0.40552E-03   -0.61336E-01    36   0.212E+00-0.153E+00
DMP: 249    -0.333648877951E+01    0.40552E-03   -0.10706E+00    36   0.370E+00-0.268E+00
DMP: 250    -0.333689429613E+01   -0.40552E-03   -0.61336E-01    36   0.212E+00-0.153E+00
DMP: 251    -0.333648877941E+01    0.40552E-03   -0.10706E+00    36   0.370E+00-0.268E+00
DMP: 252    -0.333689429654E+01   -0.40552E-03   -0.61336E-01    36   0.212E+00-0.153E+00
DMP: 253    -0.333648877946E+01    0.40552E-03   -0.10706E+00    36   0.370E+00-0.268E+00
DMP: 254    -0.333689429610E+01   -0.40552E-03   -0.61336E-01    36   0.212E+00-0.153E+00
DMP: 255    -0.333648877958E+01    0.40552E-03   -0.10706E+00    36   0.370E+00-0.268E+00
DMP: 256    -0.333689429665E+01   -0.40552E-03   -0.61336E-01    36   0.212E+00-0.153E+00
DMP: 257    -0.333648877958E+01    0.40552E-03   -0.10706E+00    36   0.370E+00-0.268E+00
DMP: 258    -0.333689429611E+01   -0.40552E-03   -0.61336E-01    36   0.212E+00-0.153E+00
DMP: 259    -0.333648877969E+01    0.40552E-03   -0.10706E+00    36   0.370E+00-0.268E+00
DMP: 260    -0.333689429668E+01   -0.40552E-03   -0.61336E-01    36   0.212E+00-0.153E+00
DMP: 261    -0.333648877954E+01    0.40552E-03   -0.10706E+00    36   0.370E+00-0.268E+00
DMP: 262    -0.333689429639E+01   -0.40552E-03   -0.61336E-01    36   0.212E+00-0.153E+00
DMP: 263    -0.333648877974E+01    0.40552E-03   -0.10706E+00    36   0.370E+00-0.268E+00
DMP: 264    -0.333689429631E+01   -0.40552E-03   -0.61336E-01    36   0.212E+00-0.153E+00
DMP: 265    -0.333648877976E+01    0.40552E-03   -0.10706E+00    36   0.370E+00-0.268E+00
DMP: 266    -0.333689429679E+01   -0.40552E-03   -0.61336E-01    36   0.212E+00-0.153E+00
DMP: 267    -0.333648877939E+01    0.40552E-03   -0.10706E+00    36   0.370E+00-0.268E+00
DMP: 268    -0.333689429633E+01   -0.40552E-03   -0.61336E-01    36   0.212E+00-0.153E+00
DMP: 269    -0.333648877971E+01    0.40552E-03   -0.10706E+00    36   0.370E+00-0.268E+00
DMP: 270    -0.333689429644E+01   -0.40552E-03   -0.61336E-01    36   0.212E+00-0.153E+00
DMP: 271    -0.333648877934E+01    0.40552E-03   -0.10706E+00    36   0.370E+00-0.268E+00
DMP: 272    -0.333689429637E+01   -0.40552E-03   -0.61336E-01    36   0.212E+00-0.153E+00
DMP: 273    -0.333648877909E+01    0.40552E-03   -0.10706E+00    36   0.370E+00-0.268E+00
DMP: 274    -0.333689429631E+01   -0.40552E-03   -0.61336E-01    36   0.212E+00-0.153E+00
DMP: 275    -0.333648877936E+01    0.40552E-03   -0.10706E+00    36   0.370E+00-0.268E+00
DMP: 276    -0.333689429637E+01   -0.40552E-03   -0.61336E-01    36   0.212E+00-0.153E+00
DMP: 277    -0.333648877939E+01    0.40552E-03   -0.10706E+00    36   0.370E+00-0.268E+00
DMP: 278    -0.333689429588E+01   -0.40552E-03   -0.61336E-01    36   0.212E+00-0.153E+00
DMP: 279    -0.333648877944E+01    0.40552E-03   -0.10706E+00    36   0.370E+00-0.268E+00
DMP: 280    -0.333689429636E+01   -0.40552E-03   -0.61336E-01    36   0.212E+00-0.153E+00
DMP: 281    -0.333648877924E+01    0.40552E-03   -0.10706E+00    36   0.370E+00-0.268E+00
DMP: 282    -0.333689429611E+01   -0.40552E-03   -0.61336E-01    36   0.212E+00-0.153E+00
DMP: 283    -0.333648877962E+01    0.40552E-03   -0.10706E+00    36   0.370E+00-0.268E+00
DMP: 284    -0.333689429686E+01   -0.40552E-03   -0.61336E-01    36   0.212E+00-0.153E+00
DMP: 285    -0.333648877924E+01    0.40552E-03   -0.10706E+00    36   0.370E+00-0.268E+00
DMP: 286    -0.333689429630E+01   -0.40552E-03   -0.61336E-01    36   0.212E+00-0.153E+00
DMP: 287    -0.333648877923E+01    0.40552E-03   -0.10706E+00    36   0.370E+00-0.268E+00
DMP: 288    -0.333689429594E+01   -0.40552E-03   -0.61336E-01    36   0.212E+00-0.153E+00
DMP: 289    -0.333648877981E+01    0.40552E-03   -0.10706E+00    36   0.370E+00-0.268E+00
DMP: 290    -0.333689429680E+01   -0.40552E-03   -0.61336E-01    36   0.212E+00-0.153E+00
DMP: 291    -0.333648877937E+01    0.40552E-03   -0.10706E+00    36   0.370E+00-0.268E+00
DMP: 292    -0.333689429643E+01   -0.40552E-03   -0.61336E-01    36   0.212E+00-0.153E+00
DMP: 293    -0.333648877963E+01    0.40552E-03   -0.10706E+00    36   0.370E+00-0.268E+00
DMP: 294    -0.333689429605E+01   -0.40552E-03   -0.61336E-01    36   0.212E+00-0.153E+00
DMP: 295    -0.333648877963E+01    0.40552E-03   -0.10706E+00    36   0.370E+00-0.268E+00
DMP: 296    -0.333689429652E+01   -0.40552E-03   -0.61336E-01    36   0.212E+00-0.153E+00
DMP: 297    -0.333648878001E+01    0.40552E-03   -0.10706E+00    36   0.370E+00-0.268E+00
DMP: 298    -0.333689429687E+01   -0.40552E-03   -0.61336E-01    36   0.212E+00-0.153E+00
DMP: 299    -0.333648877945E+01    0.40552E-03   -0.10706E+00    36   0.370E+00-0.268E+00
DMP: 300    -0.333689429644E+01   -0.40552E-03   -0.61336E-01    36   0.212E+00-0.153E+00
   1 F= -.33368943E+01 E0= -.33178496E+01  d E =-.333689E+01  mag=     5.0000
