<?xml version="1.0" encoding="ISO-8859-1"?>
<modeling>
 <generator>
  <i name="program" type="string">vasp </i>
  <i name="version" type="string">5.4.4.18Apr17-6-g9f103f2a35  </i>
  <i name="subversion" type="string">(build Nov 08 2019 15:19:53) gamma-only         parallel </i>
  <i name="platform" type="string">LinuxIFC </i>
  <i name="date" type="string">2020 11 30 </i>
  <i name="time" type="string">09:31:12 </i>
 </generator>
 <incar>
  <i type="string" name="PREC">accurate</i>
  <i type="string" name="ALGO"> D</i>
  <i type="int" name="ISPIN">     2</i>
  <i type="int" name="NELM">   300</i>
  <i type="int" name="IBRION">     2</i>
  <i name="EDIFF">      0.00005000</i>
  <i type="int" name="NSW">    99</i>
  <i type="int" name="ISIF">     2</i>
  <i name="ENCUT">    520.00000000</i>
  <v name="MAGMOM">      0.60000000</v>
  <i type="string" name="LREAL"> Auto</i>
  <i type="int" name="ISMEAR">     0</i>
  <i name="SIGMA">      0.05000000</i>
  <i type="logical" name="LWAVE"> F  </i>
  <i type="int" name="LORBIT">    11</i>
  <i type="logical" name="LASPH"> T  </i>
  <v type="int" name="KPOINT_BSE">    -1     0     0     0</v>
  <i type="int" name="NELM">   300</i>
  <i type="logical" name="LASPH"> T  </i>
 </incar>
 <structure name="primitive_cell" >
  <crystal>
   <varray name="basis" >
    <v>      10.00000000       0.00000000       0.00000000 </v>
    <v>       0.00000000      10.00000000       0.00000000 </v>
    <v>       0.00000000       0.00000000      10.00000000 </v>
   </varray>
   <i name="volume">   1000.00000000 </i>
   <varray name="rec_basis" >
    <v>       0.10000000       0.00000000       0.00000000 </v>
    <v>       0.00000000       0.10000000       0.00000000 </v>
    <v>       0.00000000       0.00000000       0.10000000 </v>
   </varray>
  </crystal>
  <varray name="positions" >
   <v>      -0.50000000      -0.50000000      -0.50000000 </v>
  </varray>
 </structure>
 <varray name="primitive_index" >
  <v type="int" >        1 </v>
 </varray>
 <kpoints>
  <generation param="Gamma">
   <v type="int" name="divisions">       1        1        1 </v>
   <v name="usershift">      0.00000000       0.00000000       0.00000000 </v>
   <v name="genvec1">      1.00000000       0.00000000       0.00000000 </v>
   <v name="genvec2">      0.00000000       1.00000000       0.00000000 </v>
   <v name="genvec3">      0.00000000       0.00000000       1.00000000 </v>
   <v name="shift">      0.00000000       0.00000000       0.00000000 </v>
  </generation>
  <varray name="kpointlist" >
   <v>       0.00000000       0.00000000       0.00000000 </v>
  </varray>
  <varray name="weights" >
   <v>       1.00000000 </v>
  </varray>
 </kpoints>
 <parameters>
  <separator name="general" >
   <i type="string" name="SYSTEM">unknown system</i>
   <i type="logical" name="LCOMPAT"> F  </i>
  </separator>
  <separator name="electronic" >
   <i type="string" name="PREC">accura</i>
   <i name="ENMAX">    520.00000000</i>
   <i name="ENAUG">    437.05200000</i>
   <i name="EDIFF">      0.00005000</i>
   <i type="int" name="IALGO">    53</i>
   <i type="int" name="IWAVPR">    11</i>
   <i type="int" name="NBANDS">    36</i>
   <i name="NELECT">     13.00000000</i>
   <i type="int" name="TURBO">     0</i>
   <i type="int" name="IRESTART">     0</i>
   <i type="int" name="NREBOOT">     0</i>
   <i type="int" name="NMIN">     0</i>
   <i name="EREF">      0.00000000</i>
   <separator name="electronic smearing" >
    <i type="int" name="ISMEAR">     0</i>
    <i name="SIGMA">      0.05000000</i>
    <i name="KSPACING">      0.50000000</i>
    <i type="logical" name="KGAMMA"> T  </i>
   </separator>
   <separator name="electronic projectors" >
    <i type="logical" name="LREAL"> T  </i>
    <v name="ROPT">     -0.00025000</v>
    <i type="int" name="LMAXPAW">  -100</i>
    <i type="int" name="LMAXMIX">     2</i>
    <i type="logical" name="NLSPLINE"> F  </i>
   </separator>
   <separator name="electronic startup" >
    <i type="int" name="ISTART">     0</i>
    <i type="int" name="ICHARG">     2</i>
    <i type="int" name="INIWAV">     1</i>
   </separator>
   <separator name="electronic spin" >
    <i type="int" name="ISPIN">     2</i>
    <i type="logical" name="LNONCOLLINEAR"> F  </i>
    <v name="MAGMOM">      0.60000000</v>
    <i name="NUPDOWN">     -1.00000000</i>
    <i type="logical" name="LSORBIT"> F  </i>
    <v name="SAXIS">      0.00000000      0.00000000      1.00000000</v>
    <i type="logical" name="LSPIRAL"> F  </i>
    <v name="QSPIRAL">      0.00000000      0.00000000      0.00000000</v>
    <i type="logical" name="LZEROZ"> F  </i>
   </separator>
   <separator name="electronic exchange-correlation" >
    <i type="logical" name="LASPH"> T  </i>
    <i type="logical" name="LMETAGGA"> F  </i>
   </separator>
   <separator name="electronic convergence" >
    <i type="int" name="NELM">   300</i>
    <i type="int" name="NELMDL">    -5</i>
    <i type="int" name="NELMIN">     2</i>
    <i name="ENINI">    520.00000000</i>
    <separator name="electronic convergence detail" >
     <i type="logical" name="LDIAG"> T  </i>
     <i type="logical" name="LSUBROT"> F  </i>
     <i name="WEIMIN">      0.00100000</i>
     <i name="EBREAK">      0.00000035</i>
     <i name="DEPER">      0.30000000</i>
     <i type="int" name="NRMM">     4</i>
     <i name="TIME">      0.40000000</i>
    </separator>
   </separator>
   <separator name="electronic mixer" >
    <i name="AMIX">      0.40000000</i>
    <i name="BMIX">      1.00000000</i>
    <i name="AMIN">      0.10000000</i>
    <i name="AMIX_MAG">      1.60000000</i>
    <i name="BMIX_MAG">      1.00000000</i>
    <separator name="electronic mixer details" >
     <i type="int" name="IMIX">     4</i>
     <i type="logical" name="MIXFIRST"> F  </i>
     <i type="int" name="MAXMIX">   -45</i>
     <i name="WC">    100.00000000</i>
     <i type="int" name="INIMIX">     1</i>
     <i type="int" name="MIXPRE">     1</i>
     <i type="int" name="MREMOVE">     5</i>
    </separator>
   </separator>
   <separator name="electronic dipolcorrection" >
    <i type="logical" name="LDIPOL"> F  </i>
    <i type="logical" name="LMONO"> F  </i>
    <i type="int" name="IDIPOL">     0</i>
    <i name="EPSILON">      1.00000000</i>
    <v name="DIPOL">   -100.00000000   -100.00000000   -100.00000000</v>
    <i name="EFIELD">      0.00000000</i>
   </separator>
  </separator>
  <separator name="grids" >
   <i type="int" name="NGX">    80</i>
   <i type="int" name="NGY">    80</i>
   <i type="int" name="NGZ">    80</i>
   <i type="int" name="NGXF">   160</i>
   <i type="int" name="NGYF">   160</i>
   <i type="int" name="NGZF">   160</i>
   <i type="logical" name="ADDGRID"> F  </i>
  </separator>
  <separator name="ionic" >
   <i type="int" name="NSW">    99</i>
   <i type="int" name="IBRION">     2</i>
   <i type="int" name="MDALGO">     0</i>
   <i type="int" name="ISIF">     2</i>
   <i name="PSTRESS">      0.00000000</i>
   <i name="EDIFFG">      0.00050000</i>
   <i type="int" name="NFREE">     1</i>
   <i name="POTIM">      0.50000000</i>
   <i name="SMASS">     -3.00000000</i>
   <i name="SCALEE">      1.00000000</i>
  </separator>
  <separator name="ionic md" >
   <i name="TEBEG">      0.00010000</i>
   <i name="TEEND">      0.00010000</i>
   <i type="int" name="NBLOCK">     1</i>
   <i type="int" name="KBLOCK">    99</i>
   <i type="int" name="NPACO">   256</i>
   <i name="APACO">     16.00000000</i>
  </separator>
  <separator name="symmetry" >
   <i type="int" name="ISYM">     2</i>
   <i name="SYMPREC">      0.00001000</i>
  </separator>
  <separator name="dos" >
   <i type="int" name="LORBIT">    11</i>
   <v name="RWIGS">     -1.00000000</v>
   <i type="int" name="NEDOS">   301</i>
   <i name="EMIN">     10.00000000</i>
   <i name="EMAX">    -10.00000000</i>
   <i name="EFERMI">      0.00000000</i>
  </separator>
  <separator name="writing" >
   <i type="int" name="NWRITE">     2</i>
   <i type="logical" name="LWAVE"> F  </i>
   <i type="logical" name="LDOWNSAMPLE"> F  </i>
   <i type="logical" name="LCHARG"> T  </i>
   <i type="logical" name="LPARD"> F  </i>
   <i type="logical" name="LVTOT"> F  </i>
   <i type="logical" name="LVHAR"> F  </i>
   <i type="logical" name="LELF"> F  </i>
   <i type="logical" name="LOPTICS"> F  </i>
   <v name="STM">      0.00000000      0.00000000      0.00000000      0.00000000      0.00000000      0.00000000      0.00000000</v>
  </separator>
  <separator name="performance" >
   <i type="int" name="NPAR">    36</i>
   <i type="int" name="NSIM">     4</i>
   <i type="int" name="NBLK">    -1</i>
   <i type="logical" name="LPLANE"> T  </i>
   <i type="logical" name="LSCALAPACK"> T  </i>
   <i type="logical" name="LSCAAWARE"> F  </i>
   <i type="logical" name="LSCALU"> F  </i>
   <i type="logical" name="LASYNC"> F  </i>
   <i type="logical" name="LORBITALREAL"> F  </i>
  </separator>
  <separator name="miscellaneous" >
   <i type="int" name="IDIOT">     3</i>
   <i type="int" name="ISPECIAL">     0</i>
   <i type="logical" name="LMUSIC"> F  </i>
   <v name="POMASS">     98.90600000</v>
   <v name="DARWINR">      0.00000000</v>
   <v name="DARWINV">      1.00000000</v>
   <i type="logical" name="LCORR"> T  </i>
  </separator>
  <i type="logical" name="GGA_COMPAT"> T  </i>
  <i type="logical" name="LBERRY"> F  </i>
  <i type="int" name="ICORELEVEL">     0</i>
  <i type="logical" name="LDAU"> F  </i>
  <i type="int" name="I_CONSTRAINED_M">     0</i>
  <separator name="electronic exchange-correlation" >
   <i type="string" name="GGA">--</i>
   <i type="int" name="VOSKOWN">     0</i>
   <i type="logical" name="LHFCALC"> F  </i>
   <i type="string" name="PRECFOCK"></i>
   <i type="logical" name="LSYMGRAD"> F  </i>
   <i type="logical" name="LHFONE"> F  </i>
   <i type="logical" name="LRHFCALC"> F  </i>
   <i type="logical" name="LTHOMAS"> F  </i>
   <i type="logical" name="LMODELHF"> F  </i>
   <i name="ENCUT4O">     -1.00000000</i>
   <i type="int" name="EXXOEP">     0</i>
   <i type="int" name="FOURORBIT">     0</i>
   <i name="AEXX">      0.00000000</i>
   <i name="HFALPHA">      0.00000000</i>
   <i name="MCALPHA">      0.00000000</i>
   <i name="ALDAX">      1.00000000</i>
   <i name="AGGAX">      1.00000000</i>
   <i name="ALDAC">      1.00000000</i>
   <i name="AGGAC">      1.00000000</i>
   <i type="int" name="NKREDX">     1</i>
   <i type="int" name="NKREDY">     1</i>
   <i type="int" name="NKREDZ">     1</i>
   <i type="logical" name="SHIFTRED"> F  </i>
   <i type="logical" name="ODDONLY"> F  </i>
   <i type="logical" name="EVENONLY"> F  </i>
   <i type="int" name="LMAXFOCK">     0</i>
   <i type="int" name="NMAXFOCKAE">     0</i>
   <i type="logical" name="LFOCKAEDFT"> F  </i>
   <i name="HFSCREEN">      0.00000000</i>
   <i name="HFSCREENC">      0.00000000</i>
   <i type="int" name="NBANDSGWLOW">     0</i>
  </separator>
  <separator name="vdW DFT" >
   <i type="logical" name="LUSE_VDW"> F  </i>
   <i name="Zab_VDW">     -0.84910000</i>
   <i name="PARAM1">      0.12340000</i>
   <i name="PARAM2">      1.00000000</i>
   <i name="PARAM3">      0.00000000</i>
  </separator>
  <separator name="model GW" >
   <i type="int" name="MODEL_GW">     0</i>
   <i name="MODEL_EPS0">    600.00000000</i>
   <i name="MODEL_ALPHA">      1.00000000</i>
  </separator>
  <separator name="linear response parameters" >
   <i type="logical" name="LEPSILON"> F  </i>
   <i type="logical" name="LRPA"> F  </i>
   <i type="logical" name="LNABLA"> F  </i>
   <i type="logical" name="LVEL"> F  </i>
   <i type="int" name="KINTER">     0</i>
   <i name="CSHIFT">      0.10000000</i>
   <i name="OMEGAMAX">     -1.00000000</i>
   <i name="DEG_THRESHOLD">      0.00200000</i>
   <i name="RTIME">     -0.10000000</i>
   <i name="WPLASMAI">      0.00000000</i>
   <v name="DFIELD">      0.00000000      0.00000000      0.00000000</v>
   <v name="WPLASMA">      0.00000000      0.00000000      0.00000000      0.00000000      0.00000000      0.00000000      0.00000000      0.00000000      0.00000000</v>
  </separator>
  <separator name="orbital magnetization" >
   <i type="logical" name="NUCIND"> F  </i>
   <v name="MAGPOS">      0.00000000      0.00000000      0.00000000</v>
   <i type="logical" name="LNICSALL"> T  </i>
   <i type="logical" name="ORBITALMAG"> F  </i>
   <i type="logical" name="LMAGBLOCH"> F  </i>
   <i type="logical" name="LCHIMAG"> F  </i>
   <i type="logical" name="LGAUGE"> T  </i>
   <i type="int" name="MAGATOM">     0</i>
   <v name="MAGDIPOL">      0.00000000      0.00000000      0.00000000</v>
   <v name="AVECCONST">      0.00000000      0.00000000      0.00000000</v>
  </separator>
  <separator name="response functions" >
   <i type="logical" name="LADDER"> F  </i>
   <i type="logical" name="LRPAFORCE"> F  </i>
   <i type="logical" name="LFXC"> F  </i>
   <i type="logical" name="LHARTREE"> T  </i>
   <i type="int" name="IBSE">     0</i>
   <v type="int" name="KPOINT">    -1     0     0     0</v>
   <i type="logical" name="LTCTE"> F  </i>
   <i type="logical" name="LTETE"> F  </i>
   <i type="logical" name="LTRIPLET"> F  </i>
   <i type="logical" name="LFXCEPS"> F  </i>
   <i type="logical" name="LFXHEG"> F  </i>
   <i type="int" name="NATURALO">     2</i>
   <i type="logical" name="L2ORDER"> F  </i>
   <i type="logical" name="LMP2LT"> F  </i>
   <i type="logical" name="LUSEW"> F  </i>
   <i name="ENCUTGW">     -2.00000000</i>
   <i name="ENCUTGWSOFT">     -2.00000000</i>
   <i name="ENCUTLF">     -1.00000000</i>
   <i type="int" name="LMAXMP2">    -1</i>
   <i name="SCISSOR">      0.00000000</i>
   <i type="int" name="NOMEGA">     0</i>
   <i type="int" name="NOMEGAR">     0</i>
   <i type="int" name="NBANDSGW">    -1</i>
   <i type="int" name="NBANDSO">    -1</i>
   <i type="int" name="NBANDSV">    -1</i>
   <i type="int" name="NELM">   300</i>
   <i type="int" name="NELMHF">     1</i>
   <i type="int" name="DIM">     3</i>
   <i type="int" name="ANTIRES">     0</i>
   <i name="OMEGAMAX">    -30.00000000</i>
   <i name="OMEGAMIN">    -30.00000000</i>
   <i name="OMEGATL">   -200.00000000</i>
   <i type="int" name="OMEGAGRID">   140</i>
   <i name="CSHIFT">     -0.10000000</i>
   <i type="logical" name="SELFENERGY"> F  </i>
   <i type="logical" name="LSPECTRAL"> F  </i>
   <i type="logical" name="LSPECTRALGW"> F  </i>
   <i type="logical" name="LSINGLES"> F  </i>
   <i type="logical" name="LFERMIGW"> F  </i>
   <i type="logical" name="ODDONLYGW"> F  </i>
   <i type="logical" name="EVENONLYGW"> F  </i>
   <i type="int" name="NKREDLFX">     1</i>
   <i type="int" name="NKREDLFY">     1</i>
   <i type="int" name="NKREDLFZ">     1</i>
   <i type="int" name="MAXMEM">  2800</i>
   <i type="int" name="TELESCOPE">     0</i>
   <i type="int" name="TAUPAR">     1</i>
   <i type="int" name="OMEGAPAR">    -1</i>
   <i name="LAMBDA">      1.00000000</i>
  </separator>
  <separator name="External order field" >
   <i name="OFIELD_KAPPA">      0.00000000</i>
   <v name="OFIELD_K">      0.00000000      0.00000000      0.00000000</v>
   <i name="OFIELD_Q6_NEAR">      0.00000000</i>
   <i name="OFIELD_Q6_FAR">      0.00000000</i>
   <i name="OFIELD_A">      0.00000000</i>
  </separator>
 </parameters>
 <atominfo>
  <atoms>       1 </atoms>
  <types>       1 </types>
  <array name="atoms" >
   <dimension dim="1">ion</dimension>
   <field type="string">element</field>
   <field type="int">atomtype</field>
   <set>
    <rc><c>Tc</c><c>   1</c></rc>
   </set>
  </array>
  <array name="atomtypes" >
   <dimension dim="1">type</dimension>
   <field type="int">atomspertype</field>
   <field type="string">element</field>
   <field>mass</field>
   <field>valence</field>
   <field type="string">pseudopotential</field>
   <set>
    <rc><c>   1</c><c>Tc</c><c>     98.90600000</c><c>     13.00000000</c><c>  PAW_PBE Tc_pv 04Feb2005               </c></rc>
   </set>
  </array>
 </atominfo>
 <structure name="initialpos" >
  <crystal>
   <varray name="basis" >
    <v>      10.00000000       0.00000000       0.00000000 </v>
    <v>       0.00000000      10.00000000       0.00000000 </v>
    <v>       0.00000000       0.00000000      10.00000000 </v>
   </varray>
   <i name="volume">   1000.00000000 </i>
   <varray name="rec_basis" >
    <v>       0.10000000       0.00000000       0.00000000 </v>
    <v>       0.00000000       0.10000000       0.00000000 </v>
    <v>       0.00000000       0.00000000       0.10000000 </v>
   </varray>
  </crystal>
  <varray name="positions" >
   <v>       0.50000000       0.50000000       0.50000000 </v>
  </varray>
 </structure>
 <calculation>
  <scstep>
   <time name="total">    0.91    0.92</time>
   <energy>
    <i name="alphaZ">      1.52569131 </i>
    <i name="ewald">   -345.23725609 </i>
    <i name="hartreedc">   -991.93389793 </i>
    <i name="XCdc">     45.87123003 </i>
    <i name="pawpsdc">   1285.28582430 </i>
    <i name="pawaedc">  -1273.90142797 </i>
    <i name="eentropy">     -0.00384066 </i>
    <i name="bandstr">     19.47188862 </i>
    <i name="atom">   1560.19477567 </i>
    <i name="e_fr_energy">    301.27298729 </i>
    <i name="e_wo_entrp">    301.27682795 </i>
    <i name="e_0_energy">    301.27490762 </i>
   </energy>
  </scstep>
  <scstep>
   <time name="total">    0.40    0.40</time>
   <energy>
    <i name="e_fr_energy">     93.22342783 </i>
    <i name="e_wo_entrp">     93.22607036 </i>
    <i name="e_0_energy">     93.22474910 </i>
   </energy>
  </scstep>
  <scstep>
   <time name="total">    0.31    0.31</time>
   <energy>
    <i name="e_fr_energy">     10.52895932 </i>
    <i name="e_wo_entrp">     10.52896061 </i>
    <i name="e_0_energy">     10.52895996 </i>
   </energy>
  </scstep>
  <scstep>
   <time name="total">    0.42    0.42</time>
   <energy>
    <i name="e_fr_energy">      1.15840394 </i>
    <i name="e_wo_entrp">      1.19972817 </i>
    <i name="e_0_energy">      1.17906605 </i>
   </energy>
  </scstep>
  <scstep>
   <time name="total">    0.63    0.63</time>
   <energy>
    <i name="e_fr_energy">     -0.24849790 </i>
    <i name="e_wo_entrp">     -0.19519185 </i>
    <i name="e_0_energy">     -0.22184487 </i>
   </energy>
  </scstep>
  <scstep>
   <time name="total">    0.96    0.97</time>
   <energy>
    <i name="e_fr_energy">     -1.19657148 </i>
    <i name="e_wo_entrp">     -1.19343400 </i>
    <i name="e_0_energy">     -1.19500274 </i>
   </energy>
  </scstep>
  <scstep>
   <time name="total">    0.92    0.92</time>
   <energy>
    <i name="e_fr_energy">      0.08185932 </i>
    <i name="e_wo_entrp">      0.09055745 </i>
    <i name="e_0_energy">      0.08620838 </i>
   </energy>
  </scstep>
  <scstep>
   <time name="total">    0.91    0.91</time>
   <energy>
    <i name="e_fr_energy">      1.65307876 </i>
    <i name="e_wo_entrp">      1.66491966 </i>
    <i name="e_0_energy">      1.65899921 </i>
   </energy>
  </scstep>
  <scstep>
   <time name="total">    0.90    0.90</time>
   <energy>
    <i name="e_fr_energy">     -0.38747651 </i>
    <i name="e_wo_entrp">     -0.34397624 </i>
    <i name="e_0_energy">     -0.36572638 </i>
   </energy>
  </scstep>
  <scstep>
   <time name="total">    0.89    0.89</time>
   <energy>
    <i name="e_fr_energy">     -2.05895476 </i>
    <i name="e_wo_entrp">     -2.01604880 </i>
    <i name="e_0_energy">     -2.03750178 </i>
   </energy>
  </scstep>
  <scstep>
   <time name="total">    0.91    0.91</time>
   <energy>
    <i name="e_fr_energy">     -2.91651610 </i>
    <i name="e_wo_entrp">     -2.87480844 </i>
    <i name="e_0_energy">     -2.89566227 </i>
   </energy>
  </scstep>
  <scstep>
   <time name="total">    0.91    0.91</time>
   <energy>
    <i name="e_fr_energy">     -3.05792116 </i>
    <i name="e_wo_entrp">     -3.01751457 </i>
    <i name="e_0_energy">     -3.03771786 </i>
   </energy>
  </scstep>
  <scstep>
   <time name="total">    0.91    0.91</time>
   <energy>
    <i name="e_fr_energy">     -3.04826369 </i>
    <i name="e_wo_entrp">     -3.00331586 </i>
    <i name="e_0_energy">     -3.02578977 </i>
   </energy>
  </scstep>
  <scstep>
   <time name="total">    0.91    0.91</time>
   <energy>
    <i name="e_fr_energy">     -2.97114242 </i>
    <i name="e_wo_entrp">     -2.94506298 </i>
    <i name="e_0_energy">     -2.95810270 </i>
   </energy>
  </scstep>
  <scstep>
   <time name="total">    0.91    0.91</time>
   <energy>
    <i name="e_fr_energy">     -2.83590805 </i>
    <i name="e_wo_entrp">     -2.79847427 </i>
    <i name="e_0_energy">     -2.81719116 </i>
   </energy>
  </scstep>
  <scstep>
   <time name="total">    0.90    0.90</time>
   <energy>
    <i name="e_fr_energy">     -2.85580690 </i>
    <i name="e_wo_entrp">     -2.82546646 </i>
    <i name="e_0_energy">     -2.84063668 </i>
   </energy>
  </scstep>
  <scstep>
   <time name="total">    0.90    0.90</time>
   <energy>
    <i name="e_fr_energy">     -3.02939112 </i>
    <i name="e_wo_entrp">     -2.98173982 </i>
    <i name="e_0_energy">     -3.00556547 </i>
   </energy>
  </scstep>
  <scstep>
   <time name="total">    0.91    0.91</time>
   <energy>
    <i name="e_fr_energy">     -2.96130418 </i>
    <i name="e_wo_entrp">     -2.93479721 </i>
    <i name="e_0_energy">     -2.94805070 </i>
   </energy>
  </scstep>
  <scstep>
   <time name="total">    0.91    0.91</time>
   <energy>
    <i name="e_fr_energy">     -2.91536105 </i>
    <i name="e_wo_entrp">     -2.87973284 </i>
    <i name="e_0_energy">     -2.89754695 </i>
   </energy>
  </scstep>
  <scstep>
   <time name="total">    0.90    0.90</time>
   <energy>
    <i name="e_fr_energy">     -2.96366322 </i>
    <i name="e_wo_entrp">     -2.93099391 </i>
    <i name="e_0_energy">     -2.94732856 </i>
   </energy>
  </scstep>
  <scstep>
   <time name="total">    0.90    0.90</time>
   <energy>
    <i name="e_fr_energy">     -3.13619855 </i>
    <i name="e_wo_entrp">     -3.09173474 </i>
    <i name="e_0_energy">     -3.11396664 </i>
   </energy>
  </scstep>
  <scstep>
   <time name="total">    0.90    0.90</time>
   <energy>
    <i name="e_fr_energy">     -3.07471537 </i>
    <i name="e_wo_entrp">     -3.04533588 </i>
    <i name="e_0_energy">     -3.06002563 </i>
   </energy>
  </scstep>
  <scstep>
   <time name="total">    0.90    0.90</time>
   <energy>
    <i name="e_fr_energy">     -2.97344750 </i>
    <i name="e_wo_entrp">     -2.94027207 </i>
    <i name="e_0_energy">     -2.95685978 </i>
   </energy>
  </scstep>
  <scstep>
   <time name="total">    0.90    0.90</time>
   <energy>
    <i name="e_fr_energy">     -3.05134594 </i>
    <i name="e_wo_entrp">     -3.01421056 </i>
    <i name="e_0_energy">     -3.03277825 </i>
   </energy>
  </scstep>
  <scstep>
   <time name="total">    0.92    0.92</time>
   <energy>
    <i name="e_fr_energy">     -3.26541763 </i>
    <i name="e_wo_entrp">     -3.22854373 </i>
    <i name="e_0_energy">     -3.24698068 </i>
   </energy>
  </scstep>
  <scstep>
   <time name="total">    0.90    0.90</time>
   <energy>
    <i name="e_fr_energy">     -3.29841880 </i>
    <i name="e_wo_entrp">     -3.26093959 </i>
    <i name="e_0_energy">     -3.27967920 </i>
   </energy>
  </scstep>
  <scstep>
   <time name="total">    0.90    0.90</time>
   <energy>
    <i name="e_fr_energy">     -3.25694255 </i>
    <i name="e_wo_entrp">     -3.22693709 </i>
    <i name="e_0_energy">     -3.24193982 </i>
   </energy>
  </scstep>
  <scstep>
   <time name="total">    0.90    0.90</time>
   <energy>
    <i name="e_fr_energy">     -3.23202158 </i>
    <i name="e_wo_entrp">     -3.19442289 </i>
    <i name="e_0_energy">     -3.21322224 </i>
   </energy>
  </scstep>
  <scstep>
   <time name="total">    0.92    0.92</time>
   <energy>
    <i name="e_fr_energy">     -3.24140751 </i>
    <i name="e_wo_entrp">     -3.21145988 </i>
    <i name="e_0_energy">     -3.22643369 </i>
   </energy>
  </scstep>
  <scstep>
   <time name="total">    0.90    0.90</time>
   <energy>
    <i name="e_fr_energy">     -3.26370832 </i>
    <i name="e_wo_entrp">     -3.22525395 </i>
    <i name="e_0_energy">     -3.24448113 </i>
   </energy>
  </scstep>
  <scstep>
   <time name="total">    0.90    0.90</time>
   <energy>
    <i name="e_fr_energy">     -3.29040153 </i>
    <i name="e_wo_entrp">     -3.25910448 </i>
    <i name="e_0_energy">     -3.27475301 </i>
   </energy>
  </scstep>
  <scstep>
   <time name="total">    0.89    0.89</time>
   <energy>
    <i name="e_fr_energy">     -3.30314304 </i>
    <i name="e_wo_entrp">     -3.26458773 </i>
    <i name="e_0_energy">     -3.28386538 </i>
   </energy>
  </scstep>
  <scstep>
   <time name="total">    0.90    0.90</time>
   <energy>
    <i name="e_fr_energy">     -3.30167320 </i>
    <i name="e_wo_entrp">     -3.27071238 </i>
    <i name="e_0_energy">     -3.28619279 </i>
   </energy>
  </scstep>
  <scstep>
   <time name="total">    0.90    0.90</time>
   <energy>
    <i name="e_fr_energy">     -3.30480724 </i>
    <i name="e_wo_entrp">     -3.26624900 </i>
    <i name="e_0_energy">     -3.28552812 </i>
   </energy>
  </scstep>
  <scstep>
   <time name="total">    0.90    0.90</time>
   <energy>
    <i name="e_fr_energy">     -3.30956732 </i>
    <i name="e_wo_entrp">     -3.27824277 </i>
    <i name="e_0_energy">     -3.29390505 </i>
   </energy>
  </scstep>
  <scstep>
   <time name="total">    0.91    0.91</time>
   <energy>
    <i name="e_fr_energy">     -3.31512719 </i>
    <i name="e_wo_entrp">     -3.27663392 </i>
    <i name="e_0_energy">     -3.29588055 </i>
   </energy>
  </scstep>
  <scstep>
   <time name="total">    0.90    0.90</time>
   <energy>
    <i name="e_fr_energy">     -3.31887079 </i>
    <i name="e_wo_entrp">     -3.28721421 </i>
    <i name="e_0_energy">     -3.30304250 </i>
   </energy>
  </scstep>
  <scstep>
   <time name="total">    0.89    0.89</time>
   <energy>
    <i name="e_fr_energy">     -3.32256027 </i>
    <i name="e_wo_entrp">     -3.28414565 </i>
    <i name="e_0_energy">     -3.30335296 </i>
   </energy>
  </scstep>
  <scstep>
   <time name="total">    0.90    0.90</time>
   <energy>
    <i name="e_fr_energy">     -3.32424396 </i>
    <i name="e_wo_entrp">     -3.29241486 </i>
    <i name="e_0_energy">     -3.30832941 </i>
   </energy>
  </scstep>
  <scstep>
   <time name="total">    0.90    0.90</time>
   <energy>
    <i name="e_fr_energy">     -3.32656893 </i>
    <i name="e_wo_entrp">     -3.28822352 </i>
    <i name="e_0_energy">     -3.30739622 </i>
   </energy>
  </scstep>
  <scstep>
   <time name="total">    0.90    0.90</time>
   <energy>
    <i name="e_fr_energy">     -3.32759457 </i>
    <i name="e_wo_entrp">     -3.29563022 </i>
    <i name="e_0_energy">     -3.31161239 </i>
   </energy>
  </scstep>
  <scstep>
   <time name="total">    0.90    0.90</time>
   <energy>
    <i name="e_fr_energy">     -3.32940047 </i>
    <i name="e_wo_entrp">     -3.29111641 </i>
    <i name="e_0_energy">     -3.31025844 </i>
   </energy>
  </scstep>
  <scstep>
   <time name="total">    0.90    0.90</time>
   <energy>
    <i name="e_fr_energy">     -3.33011101 </i>
    <i name="e_wo_entrp">     -3.29802819 </i>
    <i name="e_0_energy">     -3.31406960 </i>
   </energy>
  </scstep>
  <scstep>
   <time name="total">    0.90    0.90</time>
   <energy>
    <i name="e_fr_energy">     -3.33156047 </i>
    <i name="e_wo_entrp">     -3.29332688 </i>
    <i name="e_0_energy">     -3.31244367 </i>
   </energy>
  </scstep>
  <scstep>
   <time name="total">    0.91    0.91</time>
   <energy>
    <i name="e_fr_energy">     -3.33196374 </i>
    <i name="e_wo_entrp">     -3.29978924 </i>
    <i name="e_0_energy">     -3.31587649 </i>
   </energy>
  </scstep>
  <scstep>
   <time name="total">    0.90    0.90</time>
   <energy>
    <i name="e_fr_energy">     -3.33310776 </i>
    <i name="e_wo_entrp">     -3.29491263 </i>
    <i name="e_0_energy">     -3.31401019 </i>
   </energy>
  </scstep>
  <scstep>
   <time name="total">    0.89    0.89</time>
   <energy>
    <i name="e_fr_energy">     -3.33326276 </i>
    <i name="e_wo_entrp">     -3.30102178 </i>
    <i name="e_0_energy">     -3.31714227 </i>
   </energy>
  </scstep>
  <scstep>
   <time name="total">    0.89    0.89</time>
   <energy>
    <i name="e_fr_energy">     -3.33418276 </i>
    <i name="e_wo_entrp">     -3.29601604 </i>
    <i name="e_0_energy">     -3.31509940 </i>
   </energy>
  </scstep>
  <scstep>
   <time name="total">    0.90    0.90</time>
   <energy>
    <i name="e_fr_energy">     -3.33416838 </i>
    <i name="e_wo_entrp">     -3.30187918 </i>
    <i name="e_0_energy">     -3.31802378 </i>
   </energy>
  </scstep>
  <scstep>
   <time name="total">    0.90    0.90</time>
   <energy>
    <i name="e_fr_energy">     -3.33493687 </i>
    <i name="e_wo_entrp">     -3.29679101 </i>
    <i name="e_0_energy">     -3.31586394 </i>
   </energy>
  </scstep>
  <scstep>
   <time name="total">    0.90    0.90</time>
   <energy>
    <i name="e_fr_energy">     -3.33480957 </i>
    <i name="e_wo_entrp">     -3.30248493 </i>
    <i name="e_0_energy">     -3.31864725 </i>
   </energy>
  </scstep>
  <scstep>
   <time name="total">    0.90    0.90</time>
   <energy>
    <i name="e_fr_energy">     -3.33547458 </i>
    <i name="e_wo_entrp">     -3.29734399 </i>
    <i name="e_0_energy">     -3.31640928 </i>
   </energy>
  </scstep>
  <scstep>
   <time name="total">    0.91    0.91</time>
   <energy>
    <i name="e_fr_energy">     -3.33526895 </i>
    <i name="e_wo_entrp">     -3.30291818 </i>
    <i name="e_0_energy">     -3.31909356 </i>
   </energy>
  </scstep>
  <scstep>
   <time name="total">    0.89    0.89</time>
   <energy>
    <i name="e_fr_energy">     -3.33586099 </i>
    <i name="e_wo_entrp">     -3.29774153 </i>
    <i name="e_0_energy">     -3.31680126 </i>
   </energy>
  </scstep>
  <scstep>
   <time name="total">    0.89    0.89</time>
   <energy>
    <i name="e_fr_energy">     -3.33559940 </i>
    <i name="e_wo_entrp">     -3.30322943 </i>
    <i name="e_0_energy">     -3.31941442 </i>
   </energy>
  </scstep>
  <scstep>
   <time name="total">    0.89    0.89</time>
   <energy>
    <i name="e_fr_energy">     -3.33613925 </i>
    <i name="e_wo_entrp">     -3.29802786 </i>
    <i name="e_0_energy">     -3.31708356 </i>
   </energy>
  </scstep>
  <scstep>
   <time name="total">    0.90    0.90</time>
   <energy>
    <i name="e_fr_energy">     -3.33583756 </i>
    <i name="e_wo_entrp">     -3.30345351 </i>
    <i name="e_0_energy">     -3.31964553 </i>
   </energy>
  </scstep>
  <scstep>
   <time name="total">    0.90    0.90</time>
   <energy>
    <i name="e_fr_energy">     -3.33634016 </i>
    <i name="e_wo_entrp">     -3.29823464 </i>
    <i name="e_0_energy">     -3.31728740 </i>
   </energy>
  </scstep>
  <scstep>
   <time name="total">    0.89    0.89</time>
   <energy>
    <i name="e_fr_energy">     -3.33601000 </i>
    <i name="e_wo_entrp">     -3.30361559 </i>
    <i name="e_0_energy">     -3.31981280 </i>
   </energy>
  </scstep>
  <scstep>
   <time name="total">    0.90    0.90</time>
   <energy>
    <i name="e_fr_energy">     -3.33648630 </i>
    <i name="e_wo_entrp">     -3.29838506 </i>
    <i name="e_0_energy">     -3.31743568 </i>
   </energy>
  </scstep>
  <scstep>
   <time name="total">    0.90    0.90</time>
   <energy>
    <i name="e_fr_energy">     -3.33613621 </i>
    <i name="e_wo_entrp">     -3.30373407 </i>
    <i name="e_0_energy">     -3.31993514 </i>
   </energy>
  </scstep>
  <scstep>
   <time name="total">    0.90    0.90</time>
   <energy>
    <i name="e_fr_energy">     -3.33659360 </i>
    <i name="e_wo_entrp">     -3.29849549 </i>
    <i name="e_0_energy">     -3.31754454 </i>
   </energy>
  </scstep>
  <scstep>
   <time name="total">    0.89    0.90</time>
   <energy>
    <i name="e_fr_energy">     -3.33622886 </i>
    <i name="e_wo_entrp">     -3.30382098 </i>
    <i name="e_0_energy">     -3.32002492 </i>
   </energy>
  </scstep>
  <scstep>
   <time name="total">    0.90    0.90</time>
   <energy>
    <i name="e_fr_energy">     -3.33667203 </i>
    <i name="e_wo_entrp">     -3.29857617 </i>
    <i name="e_0_energy">     -3.31762410 </i>
   </energy>
  </scstep>
  <scstep>
   <time name="total">    0.90    0.90</time>
   <energy>
    <i name="e_fr_energy">     -3.33629557 </i>
    <i name="e_wo_entrp">     -3.30388360 </i>
    <i name="e_0_energy">     -3.32008959 </i>
   </energy>
  </scstep>
  <scstep>
   <time name="total">    0.89    0.89</time>
   <energy>
    <i name="e_fr_energy">     -3.33672815 </i>
    <i name="e_wo_entrp">     -3.29863392 </i>
    <i name="e_0_energy">     -3.31768104 </i>
   </energy>
  </scstep>
  <scstep>
   <time name="total">    0.90    0.90</time>
   <energy>
    <i name="e_fr_energy">     -3.33634350 </i>
    <i name="e_wo_entrp">     -3.30392856 </i>
    <i name="e_0_energy">     -3.32013603 </i>
   </energy>
  </scstep>
  <scstep>
   <time name="total">    0.89    0.89</time>
   <energy>
    <i name="e_fr_energy">     -3.33676875 </i>
    <i name="e_wo_entrp">     -3.29867571 </i>
    <i name="e_0_energy">     -3.31772223 </i>
   </energy>
  </scstep>
  <scstep>
   <time name="total">    0.89    0.89</time>
   <energy>
    <i name="e_fr_energy">     -3.33637857 </i>
    <i name="e_wo_entrp">     -3.30396143 </i>
    <i name="e_0_energy">     -3.32017000 </i>
   </energy>
  </scstep>
  <scstep>
   <time name="total">    0.90    0.90</time>
   <energy>
    <i name="e_fr_energy">     -3.33679873 </i>
    <i name="e_wo_entrp">     -3.29870656 </i>
    <i name="e_0_energy">     -3.31775264 </i>
   </energy>
  </scstep>
  <scstep>
   <time name="total">    0.90    0.90</time>
   <energy>
    <i name="e_fr_energy">     -3.33640466 </i>
    <i name="e_wo_entrp">     -3.30398586 </i>
    <i name="e_0_energy">     -3.32019526 </i>
   </energy>
  </scstep>
  <scstep>
   <time name="total">    0.90    0.90</time>
   <energy>
    <i name="e_fr_energy">     -3.33682115 </i>
    <i name="e_wo_entrp">     -3.29872964 </i>
    <i name="e_0_energy">     -3.31777539 </i>
   </energy>
  </scstep>
  <scstep>
   <time name="total">    0.91    0.91</time>
   <energy>
    <i name="e_fr_energy">     -3.33642426 </i>
    <i name="e_wo_entrp">     -3.30400419 </i>
    <i name="e_0_energy">     -3.32021423 </i>
   </energy>
  </scstep>
  <scstep>
   <time name="total">    0.90    0.90</time>
   <energy>
    <i name="e_fr_energy">     -3.33683805 </i>
    <i name="e_wo_entrp">     -3.29874702 </i>
    <i name="e_0_energy">     -3.31779254 </i>
   </energy>
  </scstep>
  <scstep>
   <time name="total">    0.90    0.90</time>
   <energy>
    <i name="e_fr_energy">     -3.33643906 </i>
    <i name="e_wo_entrp">     -3.30401803 </i>
    <i name="e_0_energy">     -3.32022855 </i>
   </energy>
  </scstep>
  <scstep>
   <time name="total">    0.89    0.89</time>
   <energy>
    <i name="e_fr_energy">     -3.33685085 </i>
    <i name="e_wo_entrp">     -3.29876019 </i>
    <i name="e_0_energy">     -3.31780552 </i>
   </energy>
  </scstep>
  <scstep>
   <time name="total">    0.90    0.90</time>
   <energy>
    <i name="e_fr_energy">     -3.33645030 </i>
    <i name="e_wo_entrp">     -3.30402853 </i>
    <i name="e_0_energy">     -3.32023941 </i>
   </energy>
  </scstep>
  <scstep>
   <time name="total">    0.90    0.90</time>
   <energy>
    <i name="e_fr_energy">     -3.33686059 </i>
    <i name="e_wo_entrp">     -3.29877020 </i>
    <i name="e_0_energy">     -3.31781539 </i>
   </energy>
  </scstep>
  <scstep>
   <time name="total">    0.89    0.89</time>
   <energy>
    <i name="e_fr_energy">     -3.33645887 </i>
    <i name="e_wo_entrp">     -3.30403652 </i>
    <i name="e_0_energy">     -3.32024769 </i>
   </energy>
  </scstep>
  <scstep>
   <time name="total">    0.89    0.89</time>
   <energy>
    <i name="e_fr_energy">     -3.33686803 </i>
    <i name="e_wo_entrp">     -3.29877786 </i>
    <i name="e_0_energy">     -3.31782294 </i>
   </energy>
  </scstep>
  <scstep>
   <time name="total">    0.89    0.89</time>
   <energy>
    <i name="e_fr_energy">     -3.33646543 </i>
    <i name="e_wo_entrp">     -3.30404264 </i>
    <i name="e_0_energy">     -3.32025404 </i>
   </energy>
  </scstep>
  <scstep>
   <time name="total">    0.89    0.89</time>
   <energy>
    <i name="e_fr_energy">     -3.33687375 </i>
    <i name="e_wo_entrp">     -3.29878373 </i>
    <i name="e_0_energy">     -3.31782874 </i>
   </energy>
  </scstep>
  <scstep>
   <time name="total">    0.89    0.89</time>
   <energy>
    <i name="e_fr_energy">     -3.33647048 </i>
    <i name="e_wo_entrp">     -3.30404735 </i>
    <i name="e_0_energy">     -3.32025892 </i>
   </energy>
  </scstep>
  <scstep>
   <time name="total">    0.90    0.90</time>
   <energy>
    <i name="e_fr_energy">     -3.33687816 </i>
    <i name="e_wo_entrp">     -3.29878827 </i>
    <i name="e_0_energy">     -3.31783322 </i>
   </energy>
  </scstep>
  <scstep>
   <time name="total">    0.90    0.90</time>
   <energy>
    <i name="e_fr_energy">     -3.33647439 </i>
    <i name="e_wo_entrp">     -3.30405099 </i>
    <i name="e_0_energy">     -3.32026269 </i>
   </energy>
  </scstep>
  <scstep>
   <time name="total">    0.89    0.90</time>
   <energy>
    <i name="e_fr_energy">     -3.33688158 </i>
    <i name="e_wo_entrp">     -3.29879178 </i>
    <i name="e_0_energy">     -3.31783668 </i>
   </energy>
  </scstep>
  <scstep>
   <time name="total">    0.89    0.89</time>
   <energy>
    <i name="e_fr_energy">     -3.33647742 </i>
    <i name="e_wo_entrp">     -3.30405381 </i>
    <i name="e_0_energy">     -3.32026562 </i>
   </energy>
  </scstep>
  <scstep>
   <time name="total">    0.90    0.90</time>
   <energy>
    <i name="e_fr_energy">     -3.33688424 </i>
    <i name="e_wo_entrp">     -3.29879452 </i>
    <i name="e_0_energy">     -3.31783938 </i>
   </energy>
  </scstep>
  <scstep>
   <time name="total">    0.89    0.89</time>
   <energy>
    <i name="e_fr_energy">     -3.33647979 </i>
    <i name="e_wo_entrp">     -3.30405601 </i>
    <i name="e_0_energy">     -3.32026790 </i>
   </energy>
  </scstep>
  <scstep>
   <time name="total">    0.90    0.90</time>
   <energy>
    <i name="e_fr_energy">     -3.33688632 </i>
    <i name="e_wo_entrp">     -3.29879665 </i>
    <i name="e_0_energy">     -3.31784149 </i>
   </energy>
  </scstep>
  <scstep>
   <time name="total">    0.91    0.91</time>
   <energy>
    <i name="e_fr_energy">     -3.33648164 </i>
    <i name="e_wo_entrp">     -3.30405773 </i>
    <i name="e_0_energy">     -3.32026968 </i>
   </energy>
  </scstep>
  <scstep>
   <time name="total">    0.90    0.90</time>
   <energy>
    <i name="e_fr_energy">     -3.33688795 </i>
    <i name="e_wo_entrp">     -3.29879832 </i>
    <i name="e_0_energy">     -3.31784314 </i>
   </energy>
  </scstep>
  <scstep>
   <time name="total">    0.90    0.90</time>
   <energy>
    <i name="e_fr_energy">     -3.33648309 </i>
    <i name="e_wo_entrp">     -3.30405908 </i>
    <i name="e_0_energy">     -3.32027108 </i>
   </energy>
  </scstep>
  <scstep>
   <time name="total">    0.89    0.90</time>
   <energy>
    <i name="e_fr_energy">     -3.33688923 </i>
    <i name="e_wo_entrp">     -3.29879964 </i>
    <i name="e_0_energy">     -3.31784444 </i>
   </energy>
  </scstep>
  <scstep>
   <time name="total">    0.90    0.90</time>
   <energy>
    <i name="e_fr_energy">     -3.33648423 </i>
    <i name="e_wo_entrp">     -3.30406014 </i>
    <i name="e_0_energy">     -3.32027219 </i>
   </energy>
  </scstep>
  <scstep>
   <time name="total">    0.93    0.94</time>
   <energy>
    <i name="e_fr_energy">     -3.33689025 </i>
    <i name="e_wo_entrp">     -3.29880068 </i>
    <i name="e_0_energy">     -3.31784546 </i>
   </energy>
  </scstep>
  <scstep>
   <time name="total">    0.90    0.90</time>
   <energy>
    <i name="e_fr_energy">     -3.33648514 </i>
    <i name="e_wo_entrp">     -3.30406098 </i>
    <i name="e_0_energy">     -3.32027306 </i>
   </energy>
  </scstep>
  <scstep>
   <time name="total">    0.89    0.89</time>
   <energy>
    <i name="e_fr_energy">     -3.33689105 </i>
    <i name="e_wo_entrp">     -3.29880150 </i>
    <i name="e_0_energy">     -3.31784628 </i>
   </energy>
  </scstep>
  <scstep>
   <time name="total">    0.89    0.89</time>
   <energy>
    <i name="e_fr_energy">     -3.33648586 </i>
    <i name="e_wo_entrp">     -3.30406165 </i>
    <i name="e_0_energy">     -3.32027375 </i>
   </energy>
  </scstep>
  <scstep>
   <time name="total">    0.89    0.89</time>
   <energy>
    <i name="e_fr_energy">     -3.33689169 </i>
    <i name="e_wo_entrp">     -3.29880216 </i>
    <i name="e_0_energy">     -3.31784692 </i>
   </energy>
  </scstep>
  <scstep>
   <time name="total">    0.89    0.89</time>
   <energy>
    <i name="e_fr_energy">     -3.33648643 </i>
    <i name="e_wo_entrp">     -3.30406218 </i>
    <i name="e_0_energy">     -3.32027431 </i>
   </energy>
  </scstep>
  <scstep>
   <time name="total">    0.90    0.90</time>
   <energy>
    <i name="e_fr_energy">     -3.33689220 </i>
    <i name="e_wo_entrp">     -3.29880268 </i>
    <i name="e_0_energy">     -3.31784744 </i>
   </energy>
  </scstep>
  <scstep>
   <time name="total">    0.90    0.90</time>
   <energy>
    <i name="e_fr_energy">     -3.33648689 </i>
    <i name="e_wo_entrp">     -3.30406260 </i>
    <i name="e_0_energy">     -3.32027474 </i>
   </energy>
  </scstep>
  <scstep>
   <time name="total">    0.89    0.89</time>
   <energy>
    <i name="e_fr_energy">     -3.33689261 </i>
    <i name="e_wo_entrp">     -3.29880310 </i>
    <i name="e_0_energy">     -3.31784785 </i>
   </energy>
  </scstep>
  <scstep>
   <time name="total">    0.89    0.89</time>
   <energy>
    <i name="e_fr_energy">     -3.33648726 </i>
    <i name="e_wo_entrp">     -3.30406294 </i>
    <i name="e_0_energy">     -3.32027510 </i>
   </energy>
  </scstep>
  <scstep>
   <time name="total">    0.89    0.89</time>
   <energy>
    <i name="e_fr_energy">     -3.33689293 </i>
    <i name="e_wo_entrp">     -3.29880343 </i>
    <i name="e_0_energy">     -3.31784818 </i>
   </energy>
  </scstep>
  <scstep>
   <time name="total">    0.89    0.89</time>
   <energy>
    <i name="e_fr_energy">     -3.33648755 </i>
    <i name="e_wo_entrp">     -3.30406321 </i>
    <i name="e_0_energy">     -3.32027538 </i>
   </energy>
  </scstep>
  <scstep>
   <time name="total">    0.90    0.90</time>
   <energy>
    <i name="e_fr_energy">     -3.33689319 </i>
    <i name="e_wo_entrp">     -3.29880370 </i>
    <i name="e_0_energy">     -3.31784845 </i>
   </energy>
  </scstep>
  <scstep>
   <time name="total">    0.90    0.90</time>
   <energy>
    <i name="e_fr_energy">     -3.33648779 </i>
    <i name="e_wo_entrp">     -3.30406343 </i>
    <i name="e_0_energy">     -3.32027561 </i>
   </energy>
  </scstep>
  <scstep>
   <time name="total">    0.89    0.89</time>
   <energy>
    <i name="e_fr_energy">     -3.33689340 </i>
    <i name="e_wo_entrp">     -3.29880392 </i>
    <i name="e_0_energy">     -3.31784866 </i>
   </energy>
  </scstep>
  <scstep>
   <time name="total">    0.90    0.90</time>
   <energy>
    <i name="e_fr_energy">     -3.33648797 </i>
    <i name="e_wo_entrp">     -3.30406360 </i>
    <i name="e_0_energy">     -3.32027579 </i>
   </energy>
  </scstep>
  <scstep>
   <time name="total">    0.90    0.90</time>
   <energy>
    <i name="e_fr_energy">     -3.33689357 </i>
    <i name="e_wo_entrp">     -3.29880409 </i>
    <i name="e_0_energy">     -3.31784883 </i>
   </energy>
  </scstep>
  <scstep>
   <time name="total">    0.89    0.89</time>
   <energy>
    <i name="e_fr_energy">     -3.33648813 </i>
    <i name="e_wo_entrp">     -3.30406374 </i>
    <i name="e_0_energy">     -3.32027593 </i>
   </energy>
  </scstep>
  <scstep>
   <time name="total">    0.89    0.89</time>
   <energy>
    <i name="e_fr_energy">     -3.33689371 </i>
    <i name="e_wo_entrp">     -3.29880423 </i>
    <i name="e_0_energy">     -3.31784897 </i>
   </energy>
  </scstep>
  <scstep>
   <time name="total">    0.90    0.90</time>
   <energy>
    <i name="e_fr_energy">     -3.33648825 </i>
    <i name="e_wo_entrp">     -3.30406385 </i>
    <i name="e_0_energy">     -3.32027605 </i>
   </energy>
  </scstep>
  <scstep>
   <time name="total">    0.90    0.90</time>
   <energy>
    <i name="e_fr_energy">     -3.33689382 </i>
    <i name="e_wo_entrp">     -3.29880434 </i>
    <i name="e_0_energy">     -3.31784908 </i>
   </energy>
  </scstep>
  <scstep>
   <time name="total">    0.89    0.89</time>
   <energy>
    <i name="e_fr_energy">     -3.33648835 </i>
    <i name="e_wo_entrp">     -3.30406395 </i>
    <i name="e_0_energy">     -3.32027615 </i>
   </energy>
  </scstep>
  <scstep>
   <time name="total">    0.89    0.89</time>
   <energy>
    <i name="e_fr_energy">     -3.33689391 </i>
    <i name="e_wo_entrp">     -3.29880443 </i>
    <i name="e_0_energy">     -3.31784917 </i>
   </energy>
  </scstep>
  <scstep>
   <time name="total">    0.89    0.89</time>
   <energy>
    <i name="e_fr_energy">     -3.33648843 </i>
    <i name="e_wo_entrp">     -3.30406402 </i>
    <i name="e_0_energy">     -3.32027623 </i>
   </energy>
  </scstep>
  <scstep>
   <time name="total">    0.90    0.90</time>
   <energy>
    <i name="e_fr_energy">     -3.33689398 </i>
    <i name="e_wo_entrp">     -3.29880451 </i>
    <i name="e_0_energy">     -3.31784924 </i>
   </energy>
  </scstep>
  <scstep>
   <time name="total">    0.89    0.89</time>
   <energy>
    <i name="e_fr_energy">     -3.33648850 </i>
    <i name="e_wo_entrp">     -3.30406408 </i>
    <i name="e_0_energy">     -3.32027629 </i>
   </energy>
  </scstep>
  <scstep>
   <time name="total">    0.89    0.89</time>
   <energy>
    <i name="e_fr_energy">     -3.33689404 </i>
    <i name="e_wo_entrp">     -3.29880457 </i>
    <i name="e_0_energy">     -3.31784930 </i>
   </energy>
  </scstep>
  <scstep>
   <time name="total">    0.89    0.89</time>
   <energy>
    <i name="e_fr_energy">     -3.33648855 </i>
    <i name="e_wo_entrp">     -3.30406413 </i>
    <i name="e_0_energy">     -3.32027634 </i>
   </energy>
  </scstep>
  <scstep>
   <time name="total">    0.90    0.90</time>
   <energy>
    <i name="e_fr_energy">     -3.33689409 </i>
    <i name="e_wo_entrp">     -3.29880461 </i>
    <i name="e_0_energy">     -3.31784935 </i>
   </energy>
  </scstep>
  <scstep>
   <time name="total">    0.89    0.89</time>
   <energy>
    <i name="e_fr_energy">     -3.33648859 </i>
    <i name="e_wo_entrp">     -3.30406417 </i>
    <i name="e_0_energy">     -3.32027638 </i>
   </energy>
  </scstep>
  <scstep>
   <time name="total">    0.89    0.89</time>
   <energy>
    <i name="e_fr_energy">     -3.33689413 </i>
    <i name="e_wo_entrp">     -3.29880465 </i>
    <i name="e_0_energy">     -3.31784939 </i>
   </energy>
  </scstep>
  <scstep>
   <time name="total">    0.89    0.89</time>
   <energy>
    <i name="e_fr_energy">     -3.33648863 </i>
    <i name="e_wo_entrp">     -3.30406420 </i>
    <i name="e_0_energy">     -3.32027641 </i>
   </energy>
  </scstep>
  <scstep>
   <time name="total">    0.89    0.89</time>
   <energy>
    <i name="e_fr_energy">     -3.33689416 </i>
    <i name="e_wo_entrp">     -3.29880469 </i>
    <i name="e_0_energy">     -3.31784942 </i>
   </energy>
  </scstep>
  <scstep>
   <time name="total">    0.89    0.89</time>
   <energy>
    <i name="e_fr_energy">     -3.33648865 </i>
    <i name="e_wo_entrp">     -3.30406423 </i>
    <i name="e_0_energy">     -3.32027644 </i>
   </energy>
  </scstep>
  <scstep>
   <time name="total">    0.89    0.89</time>
   <energy>
    <i name="e_fr_energy">     -3.33689418 </i>
    <i name="e_wo_entrp">     -3.29880471 </i>
    <i name="e_0_energy">     -3.31784945 </i>
   </energy>
  </scstep>
  <scstep>
   <time name="total">    0.93    0.93</time>
   <energy>
    <i name="e_fr_energy">     -3.33648868 </i>
    <i name="e_wo_entrp">     -3.30406425 </i>
    <i name="e_0_energy">     -3.32027646 </i>
   </energy>
  </scstep>
  <scstep>
   <time name="total">    0.90    0.90</time>
   <energy>
    <i name="e_fr_energy">     -3.33689420 </i>
    <i name="e_wo_entrp">     -3.29880473 </i>
    <i name="e_0_energy">     -3.31784947 </i>
   </energy>
  </scstep>
  <scstep>
   <time name="total">    0.90    0.90</time>
   <energy>
    <i name="e_fr_energy">     -3.33648870 </i>
    <i name="e_wo_entrp">     -3.30406427 </i>
    <i name="e_0_energy">     -3.32027648 </i>
   </energy>
  </scstep>
  <scstep>
   <time name="total">    0.90    0.90</time>
   <energy>
    <i name="e_fr_energy">     -3.33689422 </i>
    <i name="e_wo_entrp">     -3.29880475 </i>
    <i name="e_0_energy">     -3.31784949 </i>
   </energy>
  </scstep>
  <scstep>
   <time name="total">    0.89    0.89</time>
   <energy>
    <i name="e_fr_energy">     -3.33648871 </i>
    <i name="e_wo_entrp">     -3.30406428 </i>
    <i name="e_0_energy">     -3.32027650 </i>
   </energy>
  </scstep>
  <scstep>
   <time name="total">    0.90    0.90</time>
   <energy>
    <i name="e_fr_energy">     -3.33689424 </i>
    <i name="e_wo_entrp">     -3.29880477 </i>
    <i name="e_0_energy">     -3.31784950 </i>
   </energy>
  </scstep>
  <scstep>
   <time name="total">    0.89    0.90</time>
   <energy>
    <i name="e_fr_energy">     -3.33648872 </i>
    <i name="e_wo_entrp">     -3.30406429 </i>
    <i name="e_0_energy">     -3.32027651 </i>
   </energy>
  </scstep>
  <scstep>
   <time name="total">    0.90    0.90</time>
   <energy>
    <i name="e_fr_energy">     -3.33689425 </i>
    <i name="e_wo_entrp">     -3.29880478 </i>
    <i name="e_0_energy">     -3.31784951 </i>
   </energy>
  </scstep>
  <scstep>
   <time name="total">    0.90    0.90</time>
   <energy>
    <i name="e_fr_energy">     -3.33648873 </i>
    <i name="e_wo_entrp">     -3.30406430 </i>
    <i name="e_0_energy">     -3.32027652 </i>
   </energy>
  </scstep>
  <scstep>
   <time name="total">    0.90    0.90</time>
   <energy>
    <i name="e_fr_energy">     -3.33689426 </i>
    <i name="e_wo_entrp">     -3.29880479 </i>
    <i name="e_0_energy">     -3.31784952 </i>
   </energy>
  </scstep>
  <scstep>
   <time name="total">    0.89    0.89</time>
   <energy>
    <i name="e_fr_energy">     -3.33648874 </i>
    <i name="e_wo_entrp">     -3.30406431 </i>
    <i name="e_0_energy">     -3.32027653 </i>
   </energy>
  </scstep>
  <scstep>
   <time name="total">    0.90    0.90</time>
   <energy>
    <i name="e_fr_energy">     -3.33689426 </i>
    <i name="e_wo_entrp">     -3.29880479 </i>
    <i name="e_0_energy">     -3.31784953 </i>
   </energy>
  </scstep>
  <scstep>
   <time name="total">    0.89    0.89</time>
   <energy>
    <i name="e_fr_energy">     -3.33648875 </i>
    <i name="e_wo_entrp">     -3.30406431 </i>
    <i name="e_0_energy">     -3.32027653 </i>
   </energy>
  </scstep>
  <scstep>
   <time name="total">    0.89    0.89</time>
   <energy>
    <i name="e_fr_energy">     -3.33689427 </i>
    <i name="e_wo_entrp">     -3.29880480 </i>
    <i name="e_0_energy">     -3.31784953 </i>
   </energy>
  </scstep>
  <scstep>
   <time name="total">    0.89    0.89</time>
   <energy>
    <i name="e_fr_energy">     -3.33648875 </i>
    <i name="e_wo_entrp">     -3.30406432 </i>
    <i name="e_0_energy">     -3.32027654 </i>
   </energy>
  </scstep>
  <scstep>
   <time name="total">    0.90    0.90</time>
   <energy>
    <i name="e_fr_energy">     -3.33689427 </i>
    <i name="e_wo_entrp">     -3.29880480 </i>
    <i name="e_0_energy">     -3.31784954 </i>
   </energy>
  </scstep>
  <scstep>
   <time name="total">    0.89    0.89</time>
   <energy>
    <i name="e_fr_energy">     -3.33648876 </i>
    <i name="e_wo_entrp">     -3.30406432 </i>
    <i name="e_0_energy">     -3.32027654 </i>
   </energy>
  </scstep>
  <scstep>
   <time name="total">    0.90    0.90</time>
   <energy>
    <i name="e_fr_energy">     -3.33689428 </i>
    <i name="e_wo_entrp">     -3.29880481 </i>
    <i name="e_0_energy">     -3.31784954 </i>
   </energy>
  </scstep>
  <scstep>
   <time name="total">    0.90    0.90</time>
   <energy>
    <i name="e_fr_energy">     -3.33648876 </i>
    <i name="e_wo_entrp">     -3.30406433 </i>
    <i name="e_0_energy">     -3.32027655 </i>
   </energy>
  </scstep>
  <scstep>
   <time name="total">    0.89    0.89</time>
   <energy>
    <i name="e_fr_energy">     -3.33689428 </i>
    <i name="e_wo_entrp">     -3.29880481 </i>
    <i name="e_0_energy">     -3.31784955 </i>
   </energy>
  </scstep>
  <scstep>
   <time name="total">    0.90    0.90</time>
   <energy>
    <i name="e_fr_energy">     -3.33648877 </i>
    <i name="e_wo_entrp">     -3.30406433 </i>
    <i name="e_0_energy">     -3.32027655 </i>
   </energy>
  </scstep>
  <scstep>
   <time name="total">    0.90    0.90</time>
   <energy>
    <i name="e_fr_energy">     -3.33689428 </i>
    <i name="e_wo_entrp">     -3.29880482 </i>
    <i name="e_0_energy">     -3.31784955 </i>
   </energy>
  </scstep>
  <scstep>
   <time name="total">    0.89    0.89</time>
   <energy>
    <i name="e_fr_energy">     -3.33648877 </i>
    <i name="e_wo_entrp">     -3.30406433 </i>
    <i name="e_0_energy">     -3.32027655 </i>
   </energy>
  </scstep>
  <scstep>
   <time name="total">    0.89    0.89</time>
   <energy>
    <i name="e_fr_energy">     -3.33689429 </i>
    <i name="e_wo_entrp">     -3.29880482 </i>
    <i name="e_0_energy">     -3.31784955 </i>
   </energy>
  </scstep>
  <scstep>
   <time name="total">    0.89    0.89</time>
   <energy>
    <i name="e_fr_energy">     -3.33648877 </i>
    <i name="e_wo_entrp">     -3.30406433 </i>
    <i name="e_0_energy">     -3.32027655 </i>
   </energy>
  </scstep>
  <scstep>
   <time name="total">    0.89    0.89</time>
   <energy>
    <i name="e_fr_energy">     -3.33689429 </i>
    <i name="e_wo_entrp">     -3.29880482 </i>
    <i name="e_0_energy">     -3.31784955 </i>
   </energy>
  </scstep>
  <scstep>
   <time name="total">    0.89    0.89</time>
   <energy>
    <i name="e_fr_energy">     -3.33648877 </i>
    <i name="e_wo_entrp">     -3.30406434 </i>
    <i name="e_0_energy">     -3.32027655 </i>
   </energy>
  </scstep>
  <scstep>
   <time name="total">    0.90    0.90</time>
   <energy>
    <i name="e_fr_energy">     -3.33689429 </i>
    <i name="e_wo_entrp">     -3.29880482 </i>
    <i name="e_0_energy">     -3.31784956 </i>
   </energy>
  </scstep>
  <scstep>
   <time name="total">    0.89    0.89</time>
   <energy>
    <i name="e_fr_energy">     -3.33648877 </i>
    <i name="e_wo_entrp">     -3.30406434 </i>
    <i name="e_0_energy">     -3.32027655 </i>
   </energy>
  </scstep>
  <scstep>
   <time name="total">    0.89    0.89</time>
   <energy>
    <i name="e_fr_energy">     -3.33689429 </i>
    <i name="e_wo_entrp">     -3.29880482 </i>
    <i name="e_0_energy">     -3.31784956 </i>
   </energy>
  </scstep>
  <scstep>
   <time name="total">    0.89    0.89</time>
   <energy>
    <i name="e_fr_energy">     -3.33648877 </i>
    <i name="e_wo_entrp">     -3.30406434 </i>
    <i name="e_0_energy">     -3.32027656 </i>
   </energy>
  </scstep>
  <scstep>
   <time name="total">    0.89    0.89</time>
   <energy>
    <i name="e_fr_energy">     -3.33689429 </i>
    <i name="e_wo_entrp">     -3.29880482 </i>
    <i name="e_0_energy">     -3.31784956 </i>
   </energy>
  </scstep>
  <scstep>
   <time name="total">    0.90    0.90</time>
   <energy>
    <i name="e_fr_energy">     -3.33648878 </i>
    <i name="e_wo_entrp">     -3.30406434 </i>
    <i name="e_0_energy">     -3.32027656 </i>
   </energy>
  </scstep>
  <scstep>
   <time name="total">    0.92    0.92</time>
   <energy>
    <i name="e_fr_energy">     -3.33689429 </i>
    <i name="e_wo_entrp">     -3.29880482 </i>
    <i name="e_0_energy">     -3.31784956 </i>
   </energy>
  </scstep>
  <scstep>
   <time name="total">    0.92    0.93</time>
   <energy>
    <i name="e_fr_energy">     -3.33648878 </i>
    <i name="e_wo_entrp">     -3.30406434 </i>
    <i name="e_0_energy">     -3.32027656 </i>
   </energy>
  </scstep>
  <scstep>
   <time name="total">    0.89    0.89</time>
   <energy>
    <i name="e_fr_energy">     -3.33689429 </i>
    <i name="e_wo_entrp">     -3.29880482 </i>
    <i name="e_0_energy">     -3.31784956 </i>
   </energy>
  </scstep>
  <scstep>
   <time name="total">    0.90    0.90</time>
   <energy>
    <i name="e_fr_energy">     -3.33648878 </i>
    <i name="e_wo_entrp">     -3.30406434 </i>
    <i name="e_0_energy">     -3.32027656 </i>
   </energy>
  </scstep>
  <scstep>
   <time name="total">    0.91    0.91</time>
   <energy>
    <i name="e_fr_energy">     -3.33689429 </i>
    <i name="e_wo_entrp">     -3.29880482 </i>
    <i name="e_0_energy">     -3.31784956 </i>
   </energy>
  </scstep>
  <scstep>
   <time name="total">    0.90    0.90</time>
   <energy>
    <i name="e_fr_energy">     -3.33648878 </i>
    <i name="e_wo_entrp">     -3.30406434 </i>
    <i name="e_0_energy">     -3.32027656 </i>
   </energy>
  </scstep>
  <scstep>
   <time name="total">    0.89    0.89</time>
   <energy>
    <i name="e_fr_energy">     -3.33689429 </i>
    <i name="e_wo_entrp">     -3.29880483 </i>
    <i name="e_0_energy">     -3.31784956 </i>
   </energy>
  </scstep>
  <scstep>
   <time name="total">    0.89    0.89</time>
   <energy>
    <i name="e_fr_energy">     -3.33648878 </i>
    <i name="e_wo_entrp">     -3.30406434 </i>
    <i name="e_0_energy">     -3.32027656 </i>
   </energy>
  </scstep>
  <scstep>
   <time name="total">    0.89    0.89</time>
   <energy>
    <i name="e_fr_energy">     -3.33689429 </i>
    <i name="e_wo_entrp">     -3.29880483 </i>
    <i name="e_0_energy">     -3.31784956 </i>
   </energy>
  </scstep>
  <scstep>
   <time name="total">    0.89    0.89</time>
   <energy>
    <i name="e_fr_energy">     -3.33648878 </i>
    <i name="e_wo_entrp">     -3.30406434 </i>
    <i name="e_0_energy">     -3.32027656 </i>
   </energy>
  </scstep>
  <scstep>
   <time name="total">    0.89    0.89</time>
   <energy>
    <i name="e_fr_energy">     -3.33689430 </i>
    <i name="e_wo_entrp">     -3.29880483 </i>
    <i name="e_0_energy">     -3.31784956 </i>
   </energy>
  </scstep>
  <scstep>
   <time name="total">    0.89    0.89</time>
   <energy>
    <i name="e_fr_energy">     -3.33648878 </i>
    <i name="e_wo_entrp">     -3.30406434 </i>
    <i name="e_0_energy">     -3.32027656 </i>
   </energy>
  </scstep>
  <scstep>
   <time name="total">    0.89    0.89</time>
   <energy>
    <i name="e_fr_energy">     -3.33689430 </i>
    <i name="e_wo_entrp">     -3.29880483 </i>
    <i name="e_0_energy">     -3.31784956 </i>
   </energy>
  </scstep>
  <scstep>
   <time name="total">    0.89    0.89</time>
   <energy>
    <i name="e_fr_energy">     -3.33648878 </i>
    <i name="e_wo_entrp">     -3.30406434 </i>
    <i name="e_0_energy">     -3.32027656 </i>
   </energy>
  </scstep>
  <scstep>
   <time name="total">    0.89    0.89</time>
   <energy>
    <i name="e_fr_energy">     -3.33689430 </i>
    <i name="e_wo_entrp">     -3.29880483 </i>
    <i name="e_0_energy">     -3.31784956 </i>
   </energy>
  </scstep>
  <scstep>
   <time name="total">    0.89    0.89</time>
   <energy>
    <i name="e_fr_energy">     -3.33648878 </i>
    <i name="e_wo_entrp">     -3.30406434 </i>
    <i name="e_0_energy">     -3.32027656 </i>
   </energy>
  </scstep>
  <scstep>
   <time name="total">    0.90    0.90</time>
   <energy>
    <i name="e_fr_energy">     -3.33689430 </i>
    <i name="e_wo_entrp">     -3.29880483 </i>
    <i name="e_0_energy">     -3.31784956 </i>
   </energy>
  </scstep>
  <scstep>
   <time name="total">    0.90    0.90</time>
   <energy>
    <i name="e_fr_energy">     -3.33648878 </i>
    <i name="e_wo_entrp">     -3.30406434 </i>
    <i name="e_0_energy">     -3.32027656 </i>
   </energy>
  </scstep>
  <scstep>
   <time name="total">    0.89    0.89</time>
   <energy>
    <i name="e_fr_energy">     -3.33689430 </i>
    <i name="e_wo_entrp">     -3.29880483 </i>
    <i name="e_0_energy">     -3.31784956 </i>
   </energy>
  </scstep>
  <scstep>
   <time name="total">    0.89    0.89</time>
   <energy>
    <i name="e_fr_energy">     -3.33648878 </i>
    <i name="e_wo_entrp">     -3.30406434 </i>
    <i name="e_0_energy">     -3.32027656 </i>
   </energy>
  </scstep>
  <scstep>
   <time name="total">    0.89    0.89</time>
   <energy>
    <i name="e_fr_energy">     -3.33689430 </i>
    <i name="e_wo_entrp">     -3.29880483 </i>
    <i name="e_0_energy">     -3.31784956 </i>
   </energy>
  </scstep>
  <scstep>
   <time name="total">    0.89    0.89</time>
   <energy>
    <i name="e_fr_energy">     -3.33648878 </i>
    <i name="e_wo_entrp">     -3.30406434 </i>
    <i name="e_0_energy">     -3.32027656 </i>
   </energy>
  </scstep>
  <scstep>
   <time name="total">    0.89    0.89</time>
   <energy>
    <i name="e_fr_energy">     -3.33689430 </i>
    <i name="e_wo_entrp">     -3.29880483 </i>
    <i name="e_0_energy">     -3.31784956 </i>
   </energy>
  </scstep>
  <scstep>
   <time name="total">    0.89    0.89</time>
   <energy>
    <i name="e_fr_energy">     -3.33648878 </i>
    <i name="e_wo_entrp">     -3.30406434 </i>
    <i name="e_0_energy">     -3.32027656 </i>
   </energy>
  </scstep>
  <scstep>
   <time name="total">    0.90    0.90</time>
   <energy>
    <i name="e_fr_energy">     -3.33689430 </i>
    <i name="e_wo_entrp">     -3.29880483 </i>
    <i name="e_0_energy">     -3.31784956 </i>
   </energy>
  </scstep>
  <scstep>
   <time name="total">    0.90    0.90</time>
   <energy>
    <i name="e_fr_energy">     -3.33648878 </i>
    <i name="e_wo_entrp">     -3.30406434 </i>
    <i name="e_0_energy">     -3.32027656 </i>
   </energy>
  </scstep>
  <scstep>
   <time name="total">    0.89    0.89</time>
   <energy>
    <i name="e_fr_energy">     -3.33689430 </i>
    <i name="e_wo_entrp">     -3.29880483 </i>
    <i name="e_0_energy">     -3.31784956 </i>
   </energy>
  </scstep>
  <scstep>
   <time name="total">    0.89    0.89</time>
   <energy>
    <i name="e_fr_energy">     -3.33648878 </i>
    <i name="e_wo_entrp">     -3.30406434 </i>
    <i name="e_0_energy">     -3.32027656 </i>
   </energy>
  </scstep>
  <scstep>
   <time name="total">    0.89    0.89</time>
   <energy>
    <i name="e_fr_energy">     -3.33689430 </i>
    <i name="e_wo_entrp">     -3.29880483 </i>
    <i name="e_0_energy">     -3.31784956 </i>
   </energy>
  </scstep>
  <scstep>
   <time name="total">    0.89    0.89</time>
   <energy>
    <i name="e_fr_energy">     -3.33648878 </i>
    <i name="e_wo_entrp">     -3.30406434 </i>
    <i name="e_0_energy">     -3.32027656 </i>
   </energy>
  </scstep>
  <scstep>
   <time name="total">    0.89    0.89</time>
   <energy>
    <i name="e_fr_energy">     -3.33689430 </i>
    <i name="e_wo_entrp">     -3.29880483 </i>
    <i name="e_0_energy">     -3.31784956 </i>
   </energy>
  </scstep>
  <scstep>
   <time name="total">    0.89    0.89</time>
   <energy>
    <i name="e_fr_energy">     -3.33648878 </i>
    <i name="e_wo_entrp">     -3.30406434 </i>
    <i name="e_0_energy">     -3.32027656 </i>
   </energy>
  </scstep>
  <scstep>
   <time name="total">    0.89    0.89</time>
   <energy>
    <i name="e_fr_energy">     -3.33689430 </i>
    <i name="e_wo_entrp">     -3.29880483 </i>
    <i name="e_0_energy">     -3.31784956 </i>
   </energy>
  </scstep>
  <scstep>
   <time name="total">    0.89    0.89</time>
   <energy>
    <i name="e_fr_energy">     -3.33648878 </i>
    <i name="e_wo_entrp">     -3.30406434 </i>
    <i name="e_0_energy">     -3.32027656 </i>
   </energy>
  </scstep>
  <scstep>
   <time name="total">    0.90    0.90</time>
   <energy>
    <i name="e_fr_energy">     -3.33689430 </i>
    <i name="e_wo_entrp">     -3.29880483 </i>
    <i name="e_0_energy">     -3.31784956 </i>
   </energy>
  </scstep>
  <scstep>
   <time name="total">    0.92    0.92</time>
   <energy>
    <i name="e_fr_energy">     -3.33648878 </i>
    <i name="e_wo_entrp">     -3.30406434 </i>
    <i name="e_0_energy">     -3.32027656 </i>
   </energy>
  </scstep>
  <scstep>
   <time name="total">    0.88    0.88</time>
   <energy>
    <i name="e_fr_energy">     -3.33689430 </i>
    <i name="e_wo_entrp">     -3.29880483 </i>
    <i name="e_0_energy">     -3.31784956 </i>
   </energy>
  </scstep>
  <scstep>
   <time name="total">    0.89    0.89</time>
   <energy>
    <i name="e_fr_energy">     -3.33648878 </i>
    <i name="e_wo_entrp">     -3.30406434 </i>
    <i name="e_0_energy">     -3.32027656 </i>
   </energy>
  </scstep>
  <scstep>
   <time name="total">    0.89    0.89</time>
   <energy>
    <i name="e_fr_energy">     -3.33689430 </i>
    <i name="e_wo_entrp">     -3.29880483 </i>
    <i name="e_0_energy">     -3.31784956 </i>
   </energy>
  </scstep>
  <scstep>
   <time name="total">    0.91    0.91</time>
   <energy>
    <i name="e_fr_energy">     -3.33648878 </i>
    <i name="e_wo_entrp">     -3.30406434 </i>
    <i name="e_0_energy">     -3.32027656 </i>
   </energy>
  </scstep>
  <scstep>
   <time name="total">    0.90    0.90</time>
   <energy>
    <i name="e_fr_energy">     -3.33689430 </i>
    <i name="e_wo_entrp">     -3.29880483 </i>
    <i name="e_0_energy">     -3.31784956 </i>
   </energy>
  </scstep>
  <scstep>
   <time name="total">    0.90    0.90</time>
   <energy>
    <i name="e_fr_energy">     -3.33648878 </i>
    <i name="e_wo_entrp">     -3.30406434 </i>
    <i name="e_0_energy">     -3.32027656 </i>
   </energy>
  </scstep>
  <scstep>
   <time name="total">    0.90    0.90</time>
   <energy>
    <i name="e_fr_energy">     -3.33689430 </i>
    <i name="e_wo_entrp">     -3.29880483 </i>
    <i name="e_0_energy">     -3.31784956 </i>
   </energy>
  </scstep>
  <scstep>
   <time name="total">    0.89    0.89</time>
   <energy>
    <i name="e_fr_energy">     -3.33648878 </i>
    <i name="e_wo_entrp">     -3.30406434 </i>
    <i name="e_0_energy">     -3.32027656 </i>
   </energy>
  </scstep>
  <scstep>
   <time name="total">    0.89    0.89</time>
   <energy>
    <i name="e_fr_energy">     -3.33689430 </i>
    <i name="e_wo_entrp">     -3.29880483 </i>
    <i name="e_0_energy">     -3.31784956 </i>
   </energy>
  </scstep>
  <scstep>
   <time name="total">    0.89    0.89</time>
   <energy>
    <i name="e_fr_energy">     -3.33648878 </i>
    <i name="e_wo_entrp">     -3.30406434 </i>
    <i name="e_0_energy">     -3.32027656 </i>
   </energy>
  </scstep>
  <scstep>
   <time name="total">    0.89    0.89</time>
   <energy>
    <i name="e_fr_energy">     -3.33689430 </i>
    <i name="e_wo_entrp">     -3.29880483 </i>
    <i name="e_0_energy">     -3.31784956 </i>
   </energy>
  </scstep>
  <scstep>
   <time name="total">    0.89    0.89</time>
   <energy>
    <i name="e_fr_energy">     -3.33648878 </i>
    <i name="e_wo_entrp">     -3.30406434 </i>
    <i name="e_0_energy">     -3.32027656 </i>
   </energy>
  </scstep>
  <scstep>
   <time name="total">    0.89    0.89</time>
   <energy>
    <i name="e_fr_energy">     -3.33689430 </i>
    <i name="e_wo_entrp">     -3.29880483 </i>
    <i name="e_0_energy">     -3.31784956 </i>
   </energy>
  </scstep>
  <scstep>
   <time name="total">    0.90    0.90</time>
   <energy>
    <i name="e_fr_energy">     -3.33648878 </i>
    <i name="e_wo_entrp">     -3.30406434 </i>
    <i name="e_0_energy">     -3.32027656 </i>
   </energy>
  </scstep>
  <scstep>
   <time name="total">    0.89    0.89</time>
   <energy>
    <i name="e_fr_energy">     -3.33689430 </i>
    <i name="e_wo_entrp">     -3.29880483 </i>
    <i name="e_0_energy">     -3.31784956 </i>
   </energy>
  </scstep>
  <scstep>
   <time name="total">    0.89    0.89</time>
   <energy>
    <i name="e_fr_energy">     -3.33648878 </i>
    <i name="e_wo_entrp">     -3.30406434 </i>
    <i name="e_0_energy">     -3.32027656 </i>
   </energy>
  </scstep>
  <scstep>
   <time name="total">    0.90    0.90</time>
   <energy>
    <i name="e_fr_energy">     -3.33689430 </i>
    <i name="e_wo_entrp">     -3.29880483 </i>
    <i name="e_0_energy">     -3.31784956 </i>
   </energy>
  </scstep>
  <scstep>
   <time name="total">    0.89    0.89</time>
   <energy>
    <i name="e_fr_energy">     -3.33648878 </i>
    <i name="e_wo_entrp">     -3.30406434 </i>
    <i name="e_0_energy">     -3.32027656 </i>
   </energy>
  </scstep>
  <scstep>
   <time name="total">    0.89    0.89</time>
   <energy>
    <i name="e_fr_energy">     -3.33689430 </i>
    <i name="e_wo_entrp">     -3.29880483 </i>
    <i name="e_0_energy">     -3.31784956 </i>
   </energy>
  </scstep>
  <scstep>
   <time name="total">    0.88    0.88</time>
   <energy>
    <i name="e_fr_energy">     -3.33648878 </i>
    <i name="e_wo_entrp">     -3.30406434 </i>
    <i name="e_0_energy">     -3.32027656 </i>
   </energy>
  </scstep>
  <scstep>
   <time name="total">    0.89    0.89</time>
   <energy>
    <i name="e_fr_energy">     -3.33689430 </i>
    <i name="e_wo_entrp">     -3.29880483 </i>
    <i name="e_0_energy">     -3.31784956 </i>
   </energy>
  </scstep>
  <scstep>
   <time name="total">    0.89    0.89</time>
   <energy>
    <i name="e_fr_energy">     -3.33648878 </i>
    <i name="e_wo_entrp">     -3.30406434 </i>
    <i name="e_0_energy">     -3.32027656 </i>
   </energy>
  </scstep>
  <scstep>
   <time name="total">    0.89    0.89</time>
   <energy>
    <i name="e_fr_energy">     -3.33689430 </i>
    <i name="e_wo_entrp">     -3.29880483 </i>
    <i name="e_0_energy">     -3.31784956 </i>
   </energy>
  </scstep>
  <scstep>
   <time name="total">    0.89    0.89</time>
   <energy>
    <i name="e_fr_energy">     -3.33648878 </i>
    <i name="e_wo_entrp">     -3.30406434 </i>
    <i name="e_0_energy">     -3.32027656 </i>
   </energy>
  </scstep>
  <scstep>
   <time name="total">    0.89    0.89</time>
   <energy>
    <i name="e_fr_energy">     -3.33689430 </i>
    <i name="e_wo_entrp">     -3.29880483 </i>
    <i name="e_0_energy">     -3.31784956 </i>
   </energy>
  </scstep>
  <scstep>
   <time name="total">    0.89    0.89</time>
   <energy>
    <i name="e_fr_energy">     -3.33648878 </i>
    <i name="e_wo_entrp">     -3.30406434 </i>
    <i name="e_0_energy">     -3.32027656 </i>
   </energy>
  </scstep>
  <scstep>
   <time name="total">    0.89    0.89</time>
   <energy>
    <i name="e_fr_energy">     -3.33689430 </i>
    <i name="e_wo_entrp">     -3.29880483 </i>
    <i name="e_0_energy">     -3.31784956 </i>
   </energy>
  </scstep>
  <scstep>
   <time name="total">    0.89    0.89</time>
   <energy>
    <i name="e_fr_energy">     -3.33648878 </i>
    <i name="e_wo_entrp">     -3.30406434 </i>
    <i name="e_0_energy">     -3.32027656 </i>
   </energy>
  </scstep>
  <scstep>
   <time name="total">    0.89    0.89</time>
   <energy>
    <i name="e_fr_energy">     -3.33689430 </i>
    <i name="e_wo_entrp">     -3.29880483 </i>
    <i name="e_0_energy">     -3.31784956 </i>
   </energy>
  </scstep>
  <scstep>
   <time name="total">    0.90    0.90</time>
   <energy>
    <i name="e_fr_energy">     -3.33648878 </i>
    <i name="e_wo_entrp">     -3.30406434 </i>
    <i name="e_0_energy">     -3.32027656 </i>
   </energy>
  </scstep>
  <scstep>
   <time name="total">    0.90    0.90</time>
   <energy>
    <i name="e_fr_energy">     -3.33689430 </i>
    <i name="e_wo_entrp">     -3.29880483 </i>
    <i name="e_0_energy">     -3.31784956 </i>
   </energy>
  </scstep>
  <scstep>
   <time name="total">    0.90    0.90</time>
   <energy>
    <i name="e_fr_energy">     -3.33648878 </i>
    <i name="e_wo_entrp">     -3.30406434 </i>
    <i name="e_0_energy">     -3.32027656 </i>
   </energy>
  </scstep>
  <scstep>
   <time name="total">    0.90    0.91</time>
   <energy>
    <i name="e_fr_energy">     -3.33689430 </i>
    <i name="e_wo_entrp">     -3.29880483 </i>
    <i name="e_0_energy">     -3.31784956 </i>
   </energy>
  </scstep>
  <scstep>
   <time name="total">    0.92    0.92</time>
   <energy>
    <i name="e_fr_energy">     -3.33648878 </i>
    <i name="e_wo_entrp">     -3.30406434 </i>
    <i name="e_0_energy">     -3.32027656 </i>
   </energy>
  </scstep>
  <scstep>
   <time name="total">    0.89    0.89</time>
   <energy>
    <i name="e_fr_energy">     -3.33689430 </i>
    <i name="e_wo_entrp">     -3.29880483 </i>
    <i name="e_0_energy">     -3.31784956 </i>
   </energy>
  </scstep>
  <scstep>
   <time name="total">    0.89    0.89</time>
   <energy>
    <i name="e_fr_energy">     -3.33648878 </i>
    <i name="e_wo_entrp">     -3.30406434 </i>
    <i name="e_0_energy">     -3.32027656 </i>
   </energy>
  </scstep>
  <scstep>
   <time name="total">    0.89    0.89</time>
   <energy>
    <i name="e_fr_energy">     -3.33689430 </i>
    <i name="e_wo_entrp">     -3.29880483 </i>
    <i name="e_0_energy">     -3.31784956 </i>
   </energy>
  </scstep>
  <scstep>
   <time name="total">    0.89    0.89</time>
   <energy>
    <i name="e_fr_energy">     -3.33648878 </i>
    <i name="e_wo_entrp">     -3.30406434 </i>
    <i name="e_0_energy">     -3.32027656 </i>
   </energy>
  </scstep>
  <scstep>
   <time name="total">    0.89    0.89</time>
   <energy>
    <i name="e_fr_energy">     -3.33689430 </i>
    <i name="e_wo_entrp">     -3.29880483 </i>
    <i name="e_0_energy">     -3.31784956 </i>
   </energy>
  </scstep>
  <scstep>
   <time name="total">    0.90    0.90</time>
   <energy>
    <i name="e_fr_energy">     -3.33648878 </i>
    <i name="e_wo_entrp">     -3.30406434 </i>
    <i name="e_0_energy">     -3.32027656 </i>
   </energy>
  </scstep>
  <scstep>
   <time name="total">    0.89    0.89</time>
   <energy>
    <i name="e_fr_energy">     -3.33689430 </i>
    <i name="e_wo_entrp">     -3.29880483 </i>
    <i name="e_0_energy">     -3.31784956 </i>
   </energy>
  </scstep>
  <scstep>
   <time name="total">    0.89    0.89</time>
   <energy>
    <i name="e_fr_energy">     -3.33648878 </i>
    <i name="e_wo_entrp">     -3.30406434 </i>
    <i name="e_0_energy">     -3.32027656 </i>
   </energy>
  </scstep>
  <scstep>
   <time name="total">    0.89    0.89</time>
   <energy>
    <i name="e_fr_energy">     -3.33689430 </i>
    <i name="e_wo_entrp">     -3.29880483 </i>
    <i name="e_0_energy">     -3.31784956 </i>
   </energy>
  </scstep>
  <scstep>
   <time name="total">    0.89    0.89</time>
   <energy>
    <i name="e_fr_energy">     -3.33648878 </i>
    <i name="e_wo_entrp">     -3.30406434 </i>
    <i name="e_0_energy">     -3.32027656 </i>
   </energy>
  </scstep>
  <scstep>
   <time name="total">    0.89    0.89</time>
   <energy>
    <i name="e_fr_energy">     -3.33689430 </i>
    <i name="e_wo_entrp">     -3.29880483 </i>
    <i name="e_0_energy">     -3.31784956 </i>
   </energy>
  </scstep>
  <scstep>
   <time name="total">    0.89    0.89</time>
   <energy>
    <i name="e_fr_energy">     -3.33648878 </i>
    <i name="e_wo_entrp">     -3.30406434 </i>
    <i name="e_0_energy">     -3.32027656 </i>
   </energy>
  </scstep>
  <scstep>
   <time name="total">    0.90    0.90</time>
   <energy>
    <i name="e_fr_energy">     -3.33689430 </i>
    <i name="e_wo_entrp">     -3.29880483 </i>
    <i name="e_0_energy">     -3.31784956 </i>
   </energy>
  </scstep>
  <scstep>
   <time name="total">    0.90    0.90</time>
   <energy>
    <i name="e_fr_energy">     -3.33648878 </i>
    <i name="e_wo_entrp">     -3.30406434 </i>
    <i name="e_0_energy">     -3.32027656 </i>
   </energy>
  </scstep>
  <scstep>
   <time name="total">    0.89    0.89</time>
   <energy>
    <i name="e_fr_energy">     -3.33689430 </i>
    <i name="e_wo_entrp">     -3.29880483 </i>
    <i name="e_0_energy">     -3.31784956 </i>
   </energy>
  </scstep>
  <scstep>
   <time name="total">    0.89    0.89</time>
   <energy>
    <i name="e_fr_energy">     -3.33648878 </i>
    <i name="e_wo_entrp">     -3.30406434 </i>
    <i name="e_0_energy">     -3.32027656 </i>
   </energy>
  </scstep>
  <scstep>
   <time name="total">    0.90    0.90</time>
   <energy>
    <i name="e_fr_energy">     -3.33689430 </i>
    <i name="e_wo_entrp">     -3.29880483 </i>
    <i name="e_0_energy">     -3.31784956 </i>
   </energy>
  </scstep>
  <scstep>
   <time name="total">    0.90    0.90</time>
   <energy>
    <i name="e_fr_energy">     -3.33648878 </i>
    <i name="e_wo_entrp">     -3.30406434 </i>
    <i name="e_0_energy">     -3.32027656 </i>
   </energy>
  </scstep>
  <scstep>
   <time name="total">    0.89    0.89</time>
   <energy>
    <i name="e_fr_energy">     -3.33689430 </i>
    <i name="e_wo_entrp">     -3.29880483 </i>
    <i name="e_0_energy">     -3.31784956 </i>
   </energy>
  </scstep>
  <scstep>
   <time name="total">    0.89    0.89</time>
   <energy>
    <i name="e_fr_energy">     -3.33648878 </i>
    <i name="e_wo_entrp">     -3.30406434 </i>
    <i name="e_0_energy">     -3.32027656 </i>
   </energy>
  </scstep>
  <scstep>
   <time name="total">    0.89    0.89</time>
   <energy>
    <i name="e_fr_energy">     -3.33689430 </i>
    <i name="e_wo_entrp">     -3.29880483 </i>
    <i name="e_0_energy">     -3.31784956 </i>
   </energy>
  </scstep>
  <scstep>
   <time name="total">    0.89    0.89</time>
   <energy>
    <i name="e_fr_energy">     -3.33648878 </i>
    <i name="e_wo_entrp">     -3.30406434 </i>
    <i name="e_0_energy">     -3.32027656 </i>
   </energy>
  </scstep>
  <scstep>
   <time name="total">    0.89    0.90</time>
   <energy>
    <i name="e_fr_energy">     -3.33689430 </i>
    <i name="e_wo_entrp">     -3.29880483 </i>
    <i name="e_0_energy">     -3.31784956 </i>
   </energy>
  </scstep>
  <scstep>
   <time name="total">    0.89    0.89</time>
   <energy>
    <i name="e_fr_energy">     -3.33648878 </i>
    <i name="e_wo_entrp">     -3.30406434 </i>
    <i name="e_0_energy">     -3.32027656 </i>
   </energy>
  </scstep>
  <scstep>
   <time name="total">    0.89    0.89</time>
   <energy>
    <i name="e_fr_energy">     -3.33689430 </i>
    <i name="e_wo_entrp">     -3.29880483 </i>
    <i name="e_0_energy">     -3.31784956 </i>
   </energy>
  </scstep>
  <scstep>
   <time name="total">    0.89    0.89</time>
   <energy>
    <i name="e_fr_energy">     -3.33648878 </i>
    <i name="e_wo_entrp">     -3.30406434 </i>
    <i name="e_0_energy">     -3.32027656 </i>
   </energy>
  </scstep>
  <scstep>
   <time name="total">    0.89    0.89</time>
   <energy>
    <i name="e_fr_energy">     -3.33689430 </i>
    <i name="e_wo_entrp">     -3.29880483 </i>
    <i name="e_0_energy">     -3.31784956 </i>
   </energy>
  </scstep>
  <scstep>
   <time name="total">    0.89    0.89</time>
   <energy>
    <i name="e_fr_energy">     -3.33648878 </i>
    <i name="e_wo_entrp">     -3.30406434 </i>
    <i name="e_0_energy">     -3.32027656 </i>
   </energy>
  </scstep>
  <scstep>
   <time name="total">    0.89    0.89</time>
   <energy>
    <i name="e_fr_energy">     -3.33689430 </i>
    <i name="e_wo_entrp">     -3.29880483 </i>
    <i name="e_0_energy">     -3.31784956 </i>
   </energy>
  </scstep>
  <scstep>
   <time name="total">    0.89    0.89</time>
   <energy>
    <i name="e_fr_energy">     -3.33648878 </i>
    <i name="e_wo_entrp">     -3.30406434 </i>
    <i name="e_0_energy">     -3.32027656 </i>
   </energy>
  </scstep>
  <scstep>
   <time name="total">    0.89    0.89</time>
   <energy>
    <i name="e_fr_energy">     -3.33689430 </i>
    <i name="e_wo_entrp">     -3.29880483 </i>
    <i name="e_0_energy">     -3.31784956 </i>
   </energy>
  </scstep>
  <scstep>
   <time name="total">    0.89    0.89</time>
   <energy>
    <i name="e_fr_energy">     -3.33648878 </i>
    <i name="e_wo_entrp">     -3.30406434 </i>
    <i name="e_0_energy">     -3.32027656 </i>
   </energy>
  </scstep>
  <scstep>
   <time name="total">    0.89    0.89</time>
   <energy>
    <i name="e_fr_energy">     -3.33689430 </i>
    <i name="e_wo_entrp">     -3.29880483 </i>
    <i name="e_0_energy">     -3.31784956 </i>
   </energy>
  </scstep>
  <scstep>
   <time name="total">    0.89    0.89</time>
   <energy>
    <i name="e_fr_energy">     -3.33648878 </i>
    <i name="e_wo_entrp">     -3.30406434 </i>
    <i name="e_0_energy">     -3.32027656 </i>
   </energy>
[...]
        <r>    -0.4974     0.0000     0.0000     0.0000     0.0000     0.0000     0.0000     0.0000     0.0000     0.0000 </r>
        <r>    -0.3232     0.0000     0.0000     0.0000     0.0000     0.0000     0.0000     0.0000     0.0000     0.0000 </r>
        <r>    -0.1491     0.0000     0.0000     0.0000     0.0000     0.0000     0.0000     0.0000     0.0000     0.0000 </r>
        <r>     0.0251     0.0000     0.0000     0.0000     0.0000     0.0000     0.0000     0.0000     0.0000     0.0000 </r>
        <r>     0.1993     0.1559     0.2085     0.2086     0.2085     0.0000     0.0000     0.0000     0.0000     0.0000 </r>
        <r>     0.3735     0.0485     0.1947     0.1951     0.1947     0.0000     0.0000     0.0000     0.0000     0.0000 </r>
        <r>     0.5477     0.0000     0.0000     0.0000     0.0000     0.0000     0.0000     0.0000     0.0000     0.0000 </r>
        <r>     0.7218     0.0000     0.0000     0.0000     0.0000     0.0000     0.0000     0.0000     0.0000     0.0000 </r>
        <r>     0.8960     0.0000     0.0000     0.0000     0.0000     0.0000     0.0000     0.0000     0.0000     0.0000 </r>
        <r>     1.0702     0.0000     0.0000     0.0000     0.0000     0.0000     0.0000     0.0003     0.0000     0.0003 </r>
        <r>     1.2444     0.0000     0.0000     0.0000     0.0000     0.0000     0.0000     0.0855     0.0000     0.0855 </r>
        <r>     1.4186     0.0000     0.0000     0.0000     0.0000     0.0000     0.0000     0.0013     0.0000     0.0013 </r>
        <r>     1.5927     0.0000     0.0000     0.0000     0.0000     0.0000     0.0000     0.0000     0.0000     0.0000 </r>
        <r>     1.7669     0.0000     0.0000     0.0000     0.0000     0.0000     0.0000     0.0000     0.0000     0.0000 </r>
        <r>     1.9411     0.0000     0.0101     0.0101     0.0101     0.0000     0.0000     0.0000     0.0000     0.0000 </r>
        <r>     2.1153     0.1563     0.1623     0.1624     0.1623     0.0000     0.0000     0.0000     0.0000     0.0000 </r>
        <r>     2.2895     0.0378     0.0001     0.0001     0.0001     0.0000     0.0000     0.0000     0.0000     0.0000 </r>
        <r>     2.4636     0.0000     0.0000     0.0000     0.0000     0.0000     0.0000     0.0000     0.0000     0.0000 </r>
        <r>     2.6378     0.0000     0.0000     0.0000     0.0000     0.1496     0.1496     0.0004     0.1496     0.0004 </r>
        <r>     2.8120     0.0000     0.0000     0.0000     0.0000     0.0133     0.0133     0.0454     0.0133     0.0454 </r>
        <r>     2.9862     0.0000     0.0000     0.0000     0.0000     0.0000     0.0000     0.0002     0.0000     0.0002 </r>
        <r>     3.1604     0.0000     0.0000     0.0000     0.0000     0.0000     0.0000     0.0000     0.0000     0.0000 </r>
        <r>     3.3345     0.0000     0.0000     0.0000     0.0000     0.0000     0.0000     0.0000     0.0000     0.0000 </r>
        <r>     3.5087     0.0000     0.0000     0.0000     0.0000     0.0000     0.0000     0.0000     0.0000     0.0000 </r>
        <r>     3.6829     0.0000     0.0000     0.0000     0.0000     0.0000     0.0000     0.0000     0.0000     0.0000 </r>
        <r>     3.8571     0.0000     0.0060     0.0060     0.0060     0.0000     0.0000     0.0000     0.0000     0.0000 </r>
        <r>     4.0313     0.0256     0.1484     0.1483     0.1484     0.0000     0.0000     0.0000     0.0000     0.0000 </r>
        <r>     4.2054     0.1055     0.0001     0.0001     0.0001     0.0774     0.0774     0.0000     0.0774     0.0000 </r>
        <r>     4.3796     0.0000     0.0000     0.0000     0.0000     0.0045     0.0045     0.0000     0.0045     0.0000 </r>
        <r>     4.5538     0.0000     0.0000     0.0000     0.0000     0.0000     0.0000     0.0000     0.0000     0.0000 </r>
        <r>     4.7280     0.0000     0.0000     0.0000     0.0000     0.0000     0.0000     0.0000     0.0000     0.0000 </r>
        <r>     4.9022     0.0000     0.0000     0.0096     0.0000     0.0000     0.0000     0.0000     0.0000     0.0000 </r>
        <r>     5.0763     0.0000     0.0007     0.2520     0.0011     0.0000     0.0000     0.0000     0.0000     0.0000 </r>
        <r>     5.2505     0.0000     0.0000     0.0002     0.0000     0.0000     0.0000     0.0000     0.0000     0.0000 </r>
        <r>     5.4247     0.0000     0.0000     0.0000     0.0000     0.0000     0.0000     0.0000     0.0000     0.0000 </r>
        <r>     5.5989     0.0000     0.0000     0.0000     0.0000     0.0000     0.0000     0.0000     0.0000     0.0000 </r>
        <r>     5.7731     0.0000     0.0000     0.0000     0.0000     0.0000     0.0000     0.0000     0.0000     0.0000 </r>
        <r>     5.9472     0.0000     0.0000     0.0000     0.0000     0.0000     0.0000     0.0000     0.0000     0.0000 </r>
        <r>     6.1214     0.0000     0.0000     0.0000     0.0000     0.0000     0.0000     0.0000     0.0000     0.0000 </r>
        <r>     6.2956     0.0000     0.0000     0.0000     0.0000     0.0000     0.0000     0.0000     0.0000     0.0000 </r>
        <r>     6.4698     0.0000     0.0000     0.0000     0.0000     0.0000     0.0000     0.0000     0.0000     0.0000 </r>
        <r>     6.6439     0.0000     0.0000     0.0000     0.0000     0.0000     0.0000     0.0000     0.0000     0.0000 </r>
        <r>     6.8181     0.0000     0.0000     0.0000     0.0000     0.0000     0.0000     0.0000     0.0000     0.0000 </r>
        <r>     6.9923     0.0000     0.0000     0.0000     0.0000     0.0000     0.0000     0.0000     0.0000     0.0000 </r>
        <r>     7.1665     0.0000     0.0000     0.0000     0.0000     0.0000     0.0000     0.0000     0.0000     0.0000 </r>
        <r>     7.3407     0.0000     0.0000     0.0000     0.0000     0.0000     0.0000     0.0000     0.0000     0.0000 </r>
       </set>
      </set>
     </set>
    </array>
   </partial>
  </dos>
  <projected>
   <eigenvalues>
    <array>
     <dimension dim="1">band</dimension>
     <dimension dim="2">kpoint</dimension>
     <dimension dim="3">spin</dimension>
     <field>eigene</field>
     <field>occ</field>
     <set>
      <set comment="spin 1">
       <set comment="kpoint 1">
        <r>  -42.5381    1.0000 </r>
        <r>  -42.5381    1.0000 </r>
        <r>  -42.5380    1.0000 </r>
        <r>   -4.9440    1.0000 </r>
        <r>   -4.9440    1.0000 </r>
        <r>   -4.9440    1.0000 </r>
        <r>   -4.6231    1.0000 </r>
        <r>   -4.6231    1.0000 </r>
        <r>   -4.3569    1.0000 </r>
        <r>   -0.8670    0.0000 </r>
        <r>   -0.8670    0.0000 </r>
        <r>   -0.8669    0.0000 </r>
        <r>   -0.1743    0.0000 </r>
        <r>    0.8534    0.0000 </r>
        <r>    0.8534    0.0000 </r>
        <r>    1.6261    0.0000 </r>
        <r>    1.6261    0.0000 </r>
        <r>    1.6261    0.0000 </r>
        <r>    1.8058    0.0000 </r>
        <r>    2.0086    0.0000 </r>
        <r>    2.0086    0.0000 </r>
        <r>    2.0086    0.0000 </r>
        <r>    2.4100    0.0000 </r>
        <r>    2.4100    0.0000 </r>
        <r>    2.4100    0.0000 </r>
        <r>    2.5182    0.0000 </r>
        <r>    2.5182    0.0000 </r>
        <r>    3.5831    0.0000 </r>
        <r>    3.5981    0.0000 </r>
        <r>    3.5981    0.0000 </r>
        <r>    3.5981    0.0000 </r>
        <r>    3.8131    0.0000 </r>
        <r>    3.8131    0.0000 </r>
        <r>    3.8131    0.0000 </r>
        <r>    3.8484    0.0000 </r>
        <r>    4.3721    0.0000 </r>
       </set>
      </set>
      <set comment="spin 2">
       <set comment="kpoint 1">
        <r>  -39.8915    1.0000 </r>
        <r>  -39.8915    1.0000 </r>
        <r>  -39.8914    1.0000 </r>
        <r>   -2.6431    1.0000 </r>
        <r>   -2.3536    0.0000 </r>
        <r>   -2.3534    0.0000 </r>
        <r>   -1.8609    0.0000 </r>
        <r>   -1.8609    0.0000 </r>
        <r>   -1.8607    0.0000 </r>
        <r>    0.1740    0.0000 </r>
        <r>    0.1978    0.0000 </r>
        <r>    0.1978    0.0000 </r>
        <r>    0.1978    0.0000 </r>
        <r>    1.1674    0.0000 </r>
        <r>    1.1674    0.0000 </r>
        <r>    1.9966    0.0000 </r>
        <r>    1.9966    0.0000 </r>
        <r>    1.9966    0.0000 </r>
        <r>    2.0849    0.0000 </r>
        <r>    2.5886    0.0000 </r>
        <r>    2.5886    0.0000 </r>
        <r>    2.5886    0.0000 </r>
        <r>    2.6994    0.0000 </r>
        <r>    2.6994    0.0000 </r>
        <r>    2.6994    0.0000 </r>
        <r>    2.7205    0.0000 </r>
        <r>    2.7205    0.0000 </r>
        <r>    3.9194    0.0000 </r>
        <r>    3.9194    0.0000 </r>
        <r>    3.9194    0.0000 </r>
        <r>    4.0616    0.0000 </r>
        <r>    4.0782    0.0000 </r>
        <r>    4.1489    0.0000 </r>
        <r>    4.1489    0.0000 </r>
        <r>    4.1489    0.0000 </r>
        <r>    4.9655    0.0000 </r>
       </set>
      </set>
     </set>
    </array>
   </eigenvalues>
   <array>
    <dimension dim="1">ion</dimension>
    <dimension dim="2">band</dimension>
    <dimension dim="3">kpoint</dimension>
    <dimension dim="4">spin</dimension>
    <field>    s</field>
    <field>   py</field>
    <field>   pz</field>
    <field>   px</field>
    <field>  dxy</field>
    <field>  dyz</field>
    <field>  dz2</field>
    <field>  dxz</field>
    <field>x2-y2</field>
    <set>
     <set comment="spin1">
      <set comment="kpoint 1">
       <set comment="band 1">
        <r>  0.0000  0.1197  0.3886  0.4867  0.0000  0.0000  0.0000  0.0000  0.0000 </r>
       </set>
       <set comment="band 2">
        <r>  0.0000  0.7697  0.2252  0.0001  0.0000  0.0000  0.0000  0.0000  0.0000 </r>
       </set>
       <set comment="band 3">
        <r>  0.0000  0.1056  0.3812  0.5082  0.0000  0.0000  0.0000  0.0000  0.0000 </r>
       </set>
       <set comment="band 4">
        <r>  0.0000  0.0000  0.0000  0.0000  0.8621  0.0000  0.0000  0.0000  0.0000 </r>
       </set>
       <set comment="band 5">
        <r>  0.0000  0.0000  0.0000  0.0000  0.0000  0.0000  0.0000  0.8621  0.0000 </r>
       </set>
       <set comment="band 6">
        <r>  0.0000  0.0000  0.0000  0.0000  0.0000  0.8621  0.0000  0.0000  0.0000 </r>
       </set>
       <set comment="band 7">
        <r>  0.0000  0.0000  0.0000  0.0000  0.0000  0.0000  0.8531  0.0000  0.0029 </r>
       </set>
       <set comment="band 8">
        <r>  0.0000  0.0000  0.0000  0.0000  0.0000  0.0000  0.0029  0.0000  0.8531 </r>
       </set>
       <set comment="band 9">
        <r>  0.3159  0.0000  0.0000  0.0000  0.0000  0.0000  0.0000  0.0000  0.0000 </r>
       </set>
       <set comment="band 10">
        <r>  0.0000  0.0311  0.0687  0.0195  0.0000  0.0000  0.0000  0.0000  0.0000 </r>
       </set>
       <set comment="band 11">
        <r>  0.0000  0.0762  0.0072  0.0359  0.0000  0.0000  0.0000  0.0000  0.0000 </r>
       </set>
       <set comment="band 12">
        <r>  0.0000  0.0120  0.0434  0.0639  0.0000  0.0000  0.0000  0.0000  0.0000 </r>
       </set>
       <set comment="band 13">
        <r>  0.0321  0.0000  0.0000  0.0000  0.0000  0.0000  0.0000  0.0000  0.0000 </r>
       </set>
       <set comment="band 14">
        <r>  0.0000  0.0000  0.0000  0.0000  0.0000  0.0000  0.0113  0.0000  0.0000 </r>
       </set>
       <set comment="band 15">
        <r>  0.0000  0.0000  0.0000  0.0000  0.0000  0.0000  0.0000  0.0000  0.0113 </r>
       </set>
       <set comment="band 16">
        <r>  0.0000  0.0090  0.0195  0.0055  0.0000  0.0000  0.0000  0.0000  0.0000 </r>
       </set>
       <set comment="band 17">
        <r>  0.0000  0.0215  0.0021  0.0103  0.0000  0.0000  0.0000  0.0000  0.0000 </r>
       </set>
       <set comment="band 18">
        <r>  0.0000  0.0034  0.0124  0.0182  0.0000  0.0000  0.0000  0.0000  0.0000 </r>
       </set>
       <set comment="band 19">
        <r>  0.0314  0.0000  0.0000  0.0000  0.0000  0.0000  0.0000  0.0000  0.0000 </r>
       </set>
       <set comment="band 20">
        <r>  0.0000  0.0000  0.0000  0.0000  0.0237  0.0000  0.0000  0.0000  0.0000 </r>
       </set>
       <set comment="band 21">
        <r>  0.0000  0.0000  0.0000  0.0000  0.0000  0.0000  0.0000  0.0237  0.0000 </r>
       </set>
       <set comment="band 22">
        <r>  0.0000  0.0000  0.0000  0.0000  0.0000  0.0237  0.0000  0.0000  0.0000 </r>
       </set>
       <set comment="band 23">
        <r>  0.0000  0.0000  0.0000  0.0000  0.0000  0.0000  0.0000  0.0000  0.0000 </r>
       </set>
       <set comment="band 24">
        <r>  0.0000  0.0000  0.0000  0.0000  0.0000  0.0000  0.0000  0.0000  0.0000 </r>
       </set>
       <set comment="band 25">
        <r>  0.0000  0.0000  0.0000  0.0000  0.0000  0.0000  0.0000  0.0000  0.0000 </r>
       </set>
       <set comment="band 26">
        <r>  0.0000  0.0000  0.0000  0.0000  0.0000  0.0000  0.0063  0.0000  0.0000 </r>
       </set>
       <set comment="band 27">
        <r>  0.0000  0.0000  0.0000  0.0000  0.0000  0.0000  0.0000  0.0000  0.0063 </r>
       </set>
       <set comment="band 28">
        <r>  0.0000  0.0000  0.0000  0.0000  0.0000  0.0000  0.0000  0.0000  0.0000 </r>
       </set>
       <set comment="band 29">
        <r>  0.0000  0.0046  0.0167  0.0246  0.0000  0.0000  0.0000  0.0000  0.0000 </r>
       </set>
       <set comment="band 30">
        <r>  0.0000  0.0124  0.0264  0.0073  0.0000  0.0000  0.0000  0.0000  0.0000 </r>
       </set>
       <set comment="band 31">
        <r>  0.0000  0.0290  0.0029  0.0141  0.0000  0.0000  0.0000  0.0000  0.0000 </r>
       </set>
       <set comment="band 32">
        <r>  0.0000  0.0000  0.0000  0.0000  0.0100  0.0000  0.0000  0.0000  0.0000 </r>
       </set>
       <set comment="band 33">
        <r>  0.0000  0.0000  0.0000  0.0000  0.0000  0.0000  0.0000  0.0100  0.0000 </r>
       </set>
       <set comment="band 34">
        <r>  0.0000  0.0000  0.0000  0.0000  0.0000  0.0100  0.0000  0.0000  0.0000 </r>
       </set>
       <set comment="band 35">
        <r>  0.0284  0.0000  0.0000  0.0000  0.0000  0.0000  0.0000  0.0000  0.0000 </r>
       </set>
       <set comment="band 36">
        <r>  0.0000  0.0034  0.0123  0.0181  0.0000  0.0000  0.0000  0.0000  0.0000 </r>
       </set>
      </set>
     </set>
     <set comment="spin2">
      <set comment="kpoint 1">
       <set comment="band 1">
        <r>  0.0000  0.9822  0.0112  0.0000  0.0000  0.0000  0.0000  0.0000  0.0000 </r>
       </set>
       <set comment="band 2">
        <r>  0.0000  0.0112  0.9817  0.0005  0.0000  0.0000  0.0000  0.0000  0.0000 </r>
       </set>
       <set comment="band 3">
        <r>  0.0000  0.0000  0.0005  0.9930  0.0000  0.0000  0.0000  0.0000  0.0000 </r>
       </set>
       <set comment="band 4">
        <r>  0.2516  0.0000  0.0000  0.0000  0.0000  0.0000  0.0000  0.0000  0.0000 </r>
       </set>
       <set comment="band 5">
        <r>  0.0000  0.0000  0.0000  0.0000  0.0000  0.0000  0.0050  0.0000  0.8184 </r>
       </set>
       <set comment="band 6">
        <r>  0.0000  0.0000  0.0000  0.0000  0.0000  0.0000  0.8184  0.0000  0.0050 </r>
       </set>
       <set comment="band 7">
        <r>  0.0000  0.0000  0.0000  0.0000  0.0000  0.8205  0.0000  0.0000  0.0000 </r>
       </set>
       <set comment="band 8">
        <r>  0.0000  0.0000  0.0000  0.0000  0.0000  0.0000  0.0000  0.8205  0.0000 </r>
       </set>
       <set comment="band 9">
        <r>  0.0000  0.0000  0.0000  0.0000  0.8205  0.0000  0.0000  0.0000  0.0000 </r>
       </set>
       <set comment="band 10">
        <r>  0.0356  0.0000  0.0000  0.0000  0.0000  0.0000  0.0000  0.0000  0.0000 </r>
       </set>
       <set comment="band 11">
        <r>  0.0000  0.0700  0.0002  0.0000  0.0000  0.0000  0.0000  0.0000  0.0000 </r>
       </set>
       <set comment="band 12">
        <r>  0.0000  0.0000  0.0003  0.0699  0.0000  0.0000  0.0000  0.0000  0.0000 </r>
       </set>
       <set comment="band 13">
        <r>  0.0000  0.0002  0.0698  0.0003  0.0000  0.0000  0.0000  0.0000  0.0000 </r>
       </set>
       <set comment="band 14">
        <r>  0.0000  0.0000  0.0000  0.0000  0.0000  0.0000  0.0001  0.0000  0.0151 </r>
       </set>
       <set comment="band 15">
        <r>  0.0000  0.0000  0.0000  0.0000  0.0000  0.0000  0.0151  0.0000  0.0001 </r>
       </set>
       <set comment="band 16">
        <r>  0.0000  0.0000  0.0001  0.0299  0.0000  0.0000  0.0000  0.0000  0.0000 </r>
       </set>
       <set comment="band 17">
        <r>  0.0000  0.0299  0.0001  0.0000  0.0000  0.0000  0.0000  0.0000  0.0000 </r>
       </set>
       <set comment="band 18">
        <r>  0.0000  0.0001  0.0298  0.0001  0.0000  0.0000  0.0000  0.0000  0.0000 </r>
       </set>
       <set comment="band 19">
        <r>  0.0338  0.0000  0.0000  0.0000  0.0000  0.0000  0.0000  0.0000  0.0000 </r>
       </set>
       <set comment="band 20">
        <r>  0.0000  0.0000  0.0000  0.0000  0.0000  0.0284  0.0000  0.0000  0.0000 </r>
       </set>
       <set comment="band 21">
        <r>  0.0000  0.0000  0.0000  0.0000  0.0000  0.0000  0.0000  0.0284  0.0000 </r>
       </set>
       <set comment="band 22">
        <r>  0.0000  0.0000  0.0000  0.0000  0.0284  0.0000  0.0000  0.0000  0.0000 </r>
       </set>
       <set comment="band 23">
        <r>  0.0000  0.0000  0.0000  0.0000  0.0000  0.0000  0.0000  0.0000  0.0000 </r>
       </set>
       <set comment="band 24">
        <r>  0.0000  0.0000  0.0000  0.0000  0.0000  0.0000  0.0000  0.0000  0.0000 </r>
       </set>
       <set comment="band 25">
        <r>  0.0000  0.0000  0.0000  0.0000  0.0000  0.0000  0.0000  0.0000  0.0000 </r>
       </set>
       <set comment="band 26">
        <r>  0.0000  0.0000  0.0000  0.0000  0.0000  0.0000  0.0001  0.0000  0.0080 </r>
       </set>
       <set comment="band 27">
        <r>  0.0000  0.0000  0.0000  0.0000  0.0000  0.0000  0.0080  0.0000  0.0001 </r>
       </set>
       <set comment="band 28">
        <r>  0.0000  0.0001  0.0267  0.0001  0.0000  0.0000  0.0000  0.0000  0.0000 </r>
       </set>
       <set comment="band 29">
        <r>  0.0000  0.0000  0.0001  0.0268  0.0000  0.0000  0.0000  0.0000  0.0000 </r>
       </set>
       <set comment="band 30">
        <r>  0.0000  0.0268  0.0001  0.0000  0.0000  0.0000  0.0000  0.0000  0.0000 </r>
       </set>
       <set comment="band 31">
        <r>  0.0228  0.0000  0.0000  0.0000  0.0000  0.0000  0.0000  0.0000  0.0000 </r>
       </set>
       <set comment="band 32">
        <r>  0.0000  0.0000  0.0000  0.0000  0.0000  0.0000  0.0000  0.0000  0.0000 </r>
       </set>
       <set comment="band 33">
        <r>  0.0000  0.0000  0.0000  0.0000  0.0000  0.0143  0.0000  0.0000  0.0000 </r>
       </set>
       <set comment="band 34">
        <r>  0.0000  0.0000  0.0000  0.0000  0.0000  0.0000  0.0000  0.0143  0.0000 </r>
       </set>
       <set comment="band 35">
        <r>  0.0000  0.0000  0.0000  0.0000  0.0143  0.0000  0.0000  0.0000  0.0000 </r>
       </set>
       <set comment="band 36">
        <r>  0.0000  0.0001  0.0456  0.0002  0.0000  0.0000  0.0000  0.0000  0.0000 </r>
       </set>
      </set>
     </set>
    </set>
   </array>
  </projected>
 </calculation>
 <structure name="finalpos" >
  <crystal>
   <varray name="basis" >
    <v>      10.00000000       0.00000000       0.00000000 </v>
    <v>       0.00000000      10.00000000       0.00000000 </v>
    <v>       0.00000000       0.00000000      10.00000000 </v>
   </varray>
   <i name="volume">   1000.00000000 </i>
   <varray name="rec_basis" >
    <v>       0.10000000       0.00000000       0.00000000 </v>
    <v>       0.00000000       0.10000000       0.00000000 </v>
    <v>       0.00000000       0.00000000       0.10000000 </v>
   </varray>
  </crystal>
  <varray name="positions" >
   <v>       0.50000000       0.50000000       0.50000000 </v>
  </varray>
 </structure>
</modeling>
