       N       E                     dE             d eps       ncg     rms          ort
DAV:   1     0.492722419503E+02    0.49272E+02   -0.18329E+03    36   0.129E+02
DAV:   2     0.379570666026E+02   -0.11315E+02   -0.11294E+02    36   0.209E+01
DAV:   3     0.179184635010E+02   -0.20039E+02   -0.20038E+02    36   0.438E+00
DAV:   4     0.261882932992E+01   -0.15300E+02   -0.15019E+02    36   0.210E+01
DAV:   5    -0.178513745138E+00   -0.27973E+01   -0.27848E+01    36   0.680E+00
SDA:   6    -0.898979656106E+00   -0.72047E+00   -0.10009E+01    36   0.250E+01 0.000E+00
DMP:   7    -0.144200133722E+01   -0.54302E+00   -0.12947E+00    36   0.249E+00 0.196E+00
DMP:   8    -0.148887799487E+01   -0.46877E-01   -0.10131E+00    36   0.297E+00-0.115E+00
DMP:   9    -0.154645119972E+01   -0.57573E-01   -0.19607E-01    36   0.372E-01 0.310E-01
DMP:  10    -0.155001628336E+01   -0.35651E-02   -0.98645E-02    36   0.370E-01-0.322E-01
DMP:  11    -0.155804922647E+01   -0.80329E-02   -0.96825E-02    36   0.185E-01 0.149E-01
DMP:  12    -0.156422907926E+01   -0.61799E-02   -0.24019E-02    36   0.351E-02 0.654E-02
DMP:  13    -0.156571825459E+01   -0.14892E-02   -0.12484E-02    36   0.260E-02 0.138E-02
DMP:  14    -0.156663465096E+01   -0.91640E-03   -0.56850E-03    36   0.870E-03 0.144E-02
DMP:  15    -0.156700459935E+01   -0.36995E-03   -0.17790E-03    36   0.282E-03 0.426E-03
DMP:  16    -0.156713248510E+01   -0.12789E-03   -0.97218E-04    36   0.169E-03 0.194E-03
DMP:  17    -0.156720476425E+01   -0.72279E-04   -0.38370E-04    36   0.506E-04 0.119E-03
DMP:  18    -0.156723049266E+01   -0.25728E-04   -0.10945E-04    36   0.148E-04 0.329E-04
   1 F= -.15672305E+01 E0= -.15479489E+01  d E =-.156723E+01  mag=     2.0000
