<?xml version="1.0" encoding="ISO-8859-1"?>
<modeling>
 <generator>
  <i name="program" type="string">vasp </i>
  <i name="version" type="string">5.4.4.18Apr17-6-g9f103f2a35  </i>
  <i name="subversion" type="string">(build Nov 08 2019 15:19:53) gamma-only         parallel </i>
  <i name="platform" type="string">LinuxIFC </i>
  <i name="date" type="string">2020 11 30 </i>
  <i name="time" type="string">09:28:59 </i>
 </generator>
 <incar>
  <i type="string" name="PREC">accurate</i>
  <i type="string" name="ALGO"> D</i>
  <i type="int" name="ISPIN">     2</i>
  <i type="int" name="NELM">   300</i>
  <i type="int" name="IBRION">     2</i>
  <i name="EDIFF">      0.00005000</i>
  <i type="int" name="NSW">    99</i>
  <i type="int" name="ISIF">     2</i>
  <i name="ENCUT">    520.00000000</i>
  <v name="MAGMOM">      0.60000000</v>
  <i type="string" name="LREAL"> Auto</i>
  <i type="int" name="ISMEAR">     0</i>
  <i name="SIGMA">      0.05000000</i>
  <i type="logical" name="LWAVE"> F  </i>
  <i type="int" name="LORBIT">    11</i>
  <i type="logical" name="LASPH"> T  </i>
  <v type="int" name="KPOINT_BSE">    -1     0     0     0</v>
  <i type="int" name="NELM">   300</i>
  <i type="logical" name="LASPH"> T  </i>
 </incar>
 <structure name="primitive_cell" >
  <crystal>
   <varray name="basis" >
    <v>      10.00000000       0.00000000       0.00000000 </v>
    <v>       0.00000000      10.00000000       0.00000000 </v>
    <v>       0.00000000       0.00000000      10.00000000 </v>
   </varray>
   <i name="volume">   1000.00000000 </i>
   <varray name="rec_basis" >
    <v>       0.10000000       0.00000000       0.00000000 </v>
    <v>       0.00000000       0.10000000       0.00000000 </v>
    <v>       0.00000000       0.00000000       0.10000000 </v>
   </varray>
  </crystal>
  <varray name="positions" >
   <v>      -0.50000000      -0.50000000      -0.50000000 </v>
  </varray>
 </structure>
 <varray name="primitive_index" >
  <v type="int" >        1 </v>
 </varray>
 <kpoints>
  <generation param="Gamma">
   <v type="int" name="divisions">       1        1        1 </v>
   <v name="usershift">      0.00000000       0.00000000       0.00000000 </v>
   <v name="genvec1">      1.00000000       0.00000000       0.00000000 </v>
   <v name="genvec2">      0.00000000       1.00000000       0.00000000 </v>
   <v name="genvec3">      0.00000000       0.00000000       1.00000000 </v>
   <v name="shift">      0.00000000       0.00000000       0.00000000 </v>
  </generation>
  <varray name="kpointlist" >
   <v>       0.00000000       0.00000000       0.00000000 </v>
  </varray>
  <varray name="weights" >
   <v>       1.00000000 </v>
  </varray>
 </kpoints>
 <parameters>
  <separator name="general" >
   <i type="string" name="SYSTEM">unknown system</i>
   <i type="logical" name="LCOMPAT"> F  </i>
  </separator>
  <separator name="electronic" >
   <i type="string" name="PREC">accura</i>
   <i name="ENMAX">    520.00000000</i>
   <i name="ENAUG">    605.39200000</i>
   <i name="EDIFF">      0.00005000</i>
   <i type="int" name="IALGO">    53</i>
   <i type="int" name="IWAVPR">    11</i>
   <i type="int" name="NBANDS">    36</i>
   <i name="NELECT">      6.00000000</i>
   <i type="int" name="TURBO">     0</i>
   <i type="int" name="IRESTART">     0</i>
   <i type="int" name="NREBOOT">     0</i>
   <i type="int" name="NMIN">     0</i>
   <i name="EREF">      0.00000000</i>
   <separator name="electronic smearing" >
    <i type="int" name="ISMEAR">     0</i>
    <i name="SIGMA">      0.05000000</i>
    <i name="KSPACING">      0.50000000</i>
    <i type="logical" name="KGAMMA"> T  </i>
   </separator>
   <separator name="electronic projectors" >
    <i type="logical" name="LREAL"> T  </i>
    <v name="ROPT">     -0.00025000</v>
    <i type="int" name="LMAXPAW">  -100</i>
    <i type="int" name="LMAXMIX">     2</i>
    <i type="logical" name="NLSPLINE"> F  </i>
   </separator>
   <separator name="electronic startup" >
    <i type="int" name="ISTART">     0</i>
    <i type="int" name="ICHARG">     2</i>
    <i type="int" name="INIWAV">     1</i>
   </separator>
   <separator name="electronic spin" >
    <i type="int" name="ISPIN">     2</i>
    <i type="logical" name="LNONCOLLINEAR"> F  </i>
    <v name="MAGMOM">      0.60000000</v>
    <i name="NUPDOWN">     -1.00000000</i>
    <i type="logical" name="LSORBIT"> F  </i>
    <v name="SAXIS">      0.00000000      0.00000000      1.00000000</v>
    <i type="logical" name="LSPIRAL"> F  </i>
    <v name="QSPIRAL">      0.00000000      0.00000000      0.00000000</v>
    <i type="logical" name="LZEROZ"> F  </i>
   </separator>
   <separator name="electronic exchange-correlation" >
    <i type="logical" name="LASPH"> T  </i>
    <i type="logical" name="LMETAGGA"> F  </i>
   </separator>
   <separator name="electronic convergence" >
    <i type="int" name="NELM">   300</i>
    <i type="int" name="NELMDL">    -5</i>
    <i type="int" name="NELMIN">     2</i>
    <i name="ENINI">    520.00000000</i>
    <separator name="electronic convergence detail" >
     <i type="logical" name="LDIAG"> T  </i>
     <i type="logical" name="LSUBROT"> F  </i>
     <i name="WEIMIN">      0.00100000</i>
     <i name="EBREAK">      0.00000035</i>
     <i name="DEPER">      0.30000000</i>
     <i type="int" name="NRMM">     4</i>
     <i name="TIME">      0.40000000</i>
    </separator>
   </separator>
   <separator name="electronic mixer" >
    <i name="AMIX">      0.40000000</i>
    <i name="BMIX">      1.00000000</i>
    <i name="AMIN">      0.10000000</i>
    <i name="AMIX_MAG">      1.60000000</i>
    <i name="BMIX_MAG">      1.00000000</i>
    <separator name="electronic mixer details" >
     <i type="int" name="IMIX">     4</i>
     <i type="logical" name="MIXFIRST"> F  </i>
     <i type="int" name="MAXMIX">   -45</i>
     <i name="WC">    100.00000000</i>
     <i type="int" name="INIMIX">     1</i>
     <i type="int" name="MIXPRE">     1</i>
     <i type="int" name="MREMOVE">     5</i>
    </separator>
   </separator>
   <separator name="electronic dipolcorrection" >
    <i type="logical" name="LDIPOL"> F  </i>
    <i type="logical" name="LMONO"> F  </i>
    <i type="int" name="IDIPOL">     0</i>
    <i name="EPSILON">      1.00000000</i>
    <v name="DIPOL">   -100.00000000   -100.00000000   -100.00000000</v>
    <i name="EFIELD">      0.00000000</i>
   </separator>
  </separator>
  <separator name="grids" >
   <i type="int" name="NGX">    80</i>
   <i type="int" name="NGY">    80</i>
   <i type="int" name="NGZ">    80</i>
   <i type="int" name="NGXF">   160</i>
   <i type="int" name="NGYF">   160</i>
   <i type="int" name="NGZF">   160</i>
   <i type="logical" name="ADDGRID"> F  </i>
  </separator>
  <separator name="ionic" >
   <i type="int" name="NSW">    99</i>
   <i type="int" name="IBRION">     2</i>
   <i type="int" name="MDALGO">     0</i>
   <i type="int" name="ISIF">     2</i>
   <i name="PSTRESS">      0.00000000</i>
   <i name="EDIFFG">      0.00050000</i>
   <i type="int" name="NFREE">     1</i>
   <i name="POTIM">      0.50000000</i>
   <i name="SMASS">     -3.00000000</i>
   <i name="SCALEE">      1.00000000</i>
  </separator>
  <separator name="ionic md" >
   <i name="TEBEG">      0.00010000</i>
   <i name="TEEND">      0.00010000</i>
   <i type="int" name="NBLOCK">     1</i>
   <i type="int" name="KBLOCK">    99</i>
   <i type="int" name="NPACO">   256</i>
   <i name="APACO">     16.00000000</i>
  </separator>
  <separator name="symmetry" >
   <i type="int" name="ISYM">     2</i>
   <i name="SYMPREC">      0.00001000</i>
  </separator>
  <separator name="dos" >
   <i type="int" name="LORBIT">    11</i>
   <v name="RWIGS">     -1.00000000</v>
   <i type="int" name="NEDOS">   301</i>
   <i name="EMIN">     10.00000000</i>
   <i name="EMAX">    -10.00000000</i>
   <i name="EFERMI">      0.00000000</i>
  </separator>
  <separator name="writing" >
   <i type="int" name="NWRITE">     2</i>
   <i type="logical" name="LWAVE"> F  </i>
   <i type="logical" name="LDOWNSAMPLE"> F  </i>
   <i type="logical" name="LCHARG"> T  </i>
   <i type="logical" name="LPARD"> F  </i>
   <i type="logical" name="LVTOT"> F  </i>
   <i type="logical" name="LVHAR"> F  </i>
   <i type="logical" name="LELF"> F  </i>
   <i type="logical" name="LOPTICS"> F  </i>
   <v name="STM">      0.00000000      0.00000000      0.00000000      0.00000000      0.00000000      0.00000000      0.00000000</v>
  </separator>
  <separator name="performance" >
   <i type="int" name="NPAR">    36</i>
   <i type="int" name="NSIM">     4</i>
   <i type="int" name="NBLK">    -1</i>
   <i type="logical" name="LPLANE"> T  </i>
   <i type="logical" name="LSCALAPACK"> T  </i>
   <i type="logical" name="LSCAAWARE"> F  </i>
   <i type="logical" name="LSCALU"> F  </i>
   <i type="logical" name="LASYNC"> F  </i>
   <i type="logical" name="LORBITALREAL"> F  </i>
  </separator>
  <separator name="miscellaneous" >
   <i type="int" name="IDIOT">     3</i>
   <i type="int" name="ISPECIAL">     0</i>
   <i type="logical" name="LMUSIC"> F  </i>
   <v name="POMASS">     16.00000000</v>
   <v name="DARWINR">      0.00000000</v>
   <v name="DARWINV">      1.00000000</v>
   <i type="logical" name="LCORR"> T  </i>
  </separator>
  <i type="logical" name="GGA_COMPAT"> T  </i>
  <i type="logical" name="LBERRY"> F  </i>
  <i type="int" name="ICORELEVEL">     0</i>
  <i type="logical" name="LDAU"> F  </i>
  <i type="int" name="I_CONSTRAINED_M">     0</i>
  <separator name="electronic exchange-correlation" >
   <i type="string" name="GGA">--</i>
   <i type="int" name="VOSKOWN">     0</i>
   <i type="logical" name="LHFCALC"> F  </i>
   <i type="string" name="PRECFOCK"></i>
   <i type="logical" name="LSYMGRAD"> F  </i>
   <i type="logical" name="LHFONE"> F  </i>
   <i type="logical" name="LRHFCALC"> F  </i>
   <i type="logical" name="LTHOMAS"> F  </i>
   <i type="logical" name="LMODELHF"> F  </i>
   <i name="ENCUT4O">     -1.00000000</i>
   <i type="int" name="EXXOEP">     0</i>
   <i type="int" name="FOURORBIT">     0</i>
   <i name="AEXX">      0.00000000</i>
   <i name="HFALPHA">      0.00000000</i>
   <i name="MCALPHA">      0.00000000</i>
   <i name="ALDAX">      1.00000000</i>
   <i name="AGGAX">      1.00000000</i>
   <i name="ALDAC">      1.00000000</i>
   <i name="AGGAC">      1.00000000</i>
   <i type="int" name="NKREDX">     1</i>
   <i type="int" name="NKREDY">     1</i>
   <i type="int" name="NKREDZ">     1</i>
   <i type="logical" name="SHIFTRED"> F  </i>
   <i type="logical" name="ODDONLY"> F  </i>
   <i type="logical" name="EVENONLY"> F  </i>
   <i type="int" name="LMAXFOCK">     0</i>
   <i type="int" name="NMAXFOCKAE">     0</i>
   <i type="logical" name="LFOCKAEDFT"> F  </i>
   <i name="HFSCREEN">      0.00000000</i>
   <i name="HFSCREENC">      0.00000000</i>
   <i type="int" name="NBANDSGWLOW">     0</i>
  </separator>
  <separator name="vdW DFT" >
   <i type="logical" name="LUSE_VDW"> F  </i>
   <i name="Zab_VDW">     -0.84910000</i>
   <i name="PARAM1">      0.12340000</i>
   <i name="PARAM2">      1.00000000</i>
   <i name="PARAM3">      0.00000000</i>
  </separator>
  <separator name="model GW" >
   <i type="int" name="MODEL_GW">     0</i>
   <i name="MODEL_EPS0">    600.00000000</i>
   <i name="MODEL_ALPHA">      1.00000000</i>
  </separator>
  <separator name="linear response parameters" >
   <i type="logical" name="LEPSILON"> F  </i>
   <i type="logical" name="LRPA"> F  </i>
   <i type="logical" name="LNABLA"> F  </i>
   <i type="logical" name="LVEL"> F  </i>
   <i type="int" name="KINTER">     0</i>
   <i name="CSHIFT">      0.10000000</i>
   <i name="OMEGAMAX">     -1.00000000</i>
   <i name="DEG_THRESHOLD">      0.00200000</i>
   <i name="RTIME">     -0.10000000</i>
   <i name="WPLASMAI">      0.00000000</i>
   <v name="DFIELD">      0.00000000      0.00000000      0.00000000</v>
   <v name="WPLASMA">      0.00000000      0.00000000      0.00000000      0.00000000      0.00000000      0.00000000      0.00000000      0.00000000      0.00000000</v>
  </separator>
  <separator name="orbital magnetization" >
   <i type="logical" name="NUCIND"> F  </i>
   <v name="MAGPOS">      0.00000000      0.00000000      0.00000000</v>
   <i type="logical" name="LNICSALL"> T  </i>
   <i type="logical" name="ORBITALMAG"> F  </i>
   <i type="logical" name="LMAGBLOCH"> F  </i>
   <i type="logical" name="LCHIMAG"> F  </i>
   <i type="logical" name="LGAUGE"> T  </i>
   <i type="int" name="MAGATOM">     0</i>
   <v name="MAGDIPOL">      0.00000000      0.00000000      0.00000000</v>
   <v name="AVECCONST">      0.00000000      0.00000000      0.00000000</v>
  </separator>
  <separator name="response functions" >
   <i type="logical" name="LADDER"> F  </i>
   <i type="logical" name="LRPAFORCE"> F  </i>
   <i type="logical" name="LFXC"> F  </i>
   <i type="logical" name="LHARTREE"> T  </i>
   <i type="int" name="IBSE">     0</i>
   <v type="int" name="KPOINT">    -1     0     0     0</v>
   <i type="logical" name="LTCTE"> F  </i>
   <i type="logical" name="LTETE"> F  </i>
   <i type="logical" name="LTRIPLET"> F  </i>
   <i type="logical" name="LFXCEPS"> F  </i>
   <i type="logical" name="LFXHEG"> F  </i>
   <i type="int" name="NATURALO">     2</i>
   <i type="logical" name="L2ORDER"> F  </i>
   <i type="logical" name="LMP2LT"> F  </i>
   <i type="logical" name="LUSEW"> F  </i>
   <i name="ENCUTGW">     -2.00000000</i>
   <i name="ENCUTGWSOFT">     -2.00000000</i>
   <i name="ENCUTLF">     -1.00000000</i>
   <i type="int" name="LMAXMP2">    -1</i>
   <i name="SCISSOR">      0.00000000</i>
   <i type="int" name="NOMEGA">     0</i>
   <i type="int" name="NOMEGAR">     0</i>
   <i type="int" name="NBANDSGW">    -1</i>
   <i type="int" name="NBANDSO">    -1</i>
   <i type="int" name="NBANDSV">    -1</i>
   <i type="int" name="NELM">   300</i>
   <i type="int" name="NELMHF">     1</i>
   <i type="int" name="DIM">     3</i>
   <i type="int" name="ANTIRES">     0</i>
   <i name="OMEGAMAX">    -30.00000000</i>
   <i name="OMEGAMIN">    -30.00000000</i>
   <i name="OMEGATL">   -200.00000000</i>
   <i type="int" name="OMEGAGRID">   140</i>
   <i name="CSHIFT">     -0.10000000</i>
   <i type="logical" name="SELFENERGY"> F  </i>
   <i type="logical" name="LSPECTRAL"> F  </i>
   <i type="logical" name="LSPECTRALGW"> F  </i>
   <i type="logical" name="LSINGLES"> F  </i>
   <i type="logical" name="LFERMIGW"> F  </i>
   <i type="logical" name="ODDONLYGW"> F  </i>
   <i type="logical" name="EVENONLYGW"> F  </i>
   <i type="int" name="NKREDLFX">     1</i>
   <i type="int" name="NKREDLFY">     1</i>
   <i type="int" name="NKREDLFZ">     1</i>
   <i type="int" name="MAXMEM">  2800</i>
   <i type="int" name="TELESCOPE">     0</i>
   <i type="int" name="TAUPAR">     1</i>
   <i type="int" name="OMEGAPAR">    -1</i>
   <i name="LAMBDA">      1.00000000</i>
  </separator>
  <separator name="External order field" >
   <i name="OFIELD_KAPPA">      0.00000000</i>
   <v name="OFIELD_K">      0.00000000      0.00000000      0.00000000</v>
   <i name="OFIELD_Q6_NEAR">      0.00000000</i>
   <i name="OFIELD_Q6_FAR">      0.00000000</i>
   <i name="OFIELD_A">      0.00000000</i>
  </separator>
 </parameters>
 <atominfo>
  <atoms>       1 </atoms>
  <types>       1 </types>
  <array name="atoms" >
   <dimension dim="1">ion</dimension>
   <field type="string">element</field>
   <field type="int">atomtype</field>
   <set>
    <rc><c>O </c><c>   1</c></rc>
   </set>
  </array>
  <array name="atomtypes" >
   <dimension dim="1">type</dimension>
   <field type="int">atomspertype</field>
   <field type="string">element</field>
   <field>mass</field>
   <field>valence</field>
   <field type="string">pseudopotential</field>
   <set>
    <rc><c>   1</c><c>O </c><c>     16.00000000</c><c>      6.00000000</c><c>  PAW_PBE O 08Apr2002                   </c></rc>
   </set>
  </array>
 </atominfo>
 <structure name="initialpos" >
  <crystal>
   <varray name="basis" >
    <v>      10.00000000       0.00000000       0.00000000 </v>
    <v>       0.00000000      10.00000000       0.00000000 </v>
    <v>       0.00000000       0.00000000      10.00000000 </v>
   </varray>
   <i name="volume">   1000.00000000 </i>
   <varray name="rec_basis" >
    <v>       0.10000000       0.00000000       0.00000000 </v>
    <v>       0.00000000       0.10000000       0.00000000 </v>
    <v>       0.00000000       0.00000000       0.10000000 </v>
   </varray>
  </crystal>
  <varray name="positions" >
   <v>       0.50000000       0.50000000       0.50000000 </v>
  </varray>
 </structure>
 <calculation>
  <scstep>
   <time name="total">    0.68    0.69</time>
   <energy>
    <i name="alphaZ">      0.13895446 </i>
    <i name="ewald">    -73.54166402 </i>
    <i name="hartreedc">   -299.66407545 </i>
    <i name="XCdc">     26.12011534 </i>
    <i name="pawpsdc">    346.49791410 </i>
    <i name="pawaedc">   -348.29489918 </i>
    <i name="eentropy">     -0.01721283 </i>
    <i name="bandstr">    -34.32487699 </i>
    <i name="atom">    432.35798652 </i>
    <i name="e_fr_energy">     49.27224195 </i>
    <i name="e_wo_entrp">     49.28945478 </i>
    <i name="e_0_energy">     49.28084836 </i>
   </energy>
  </scstep>
  <scstep>
   <time name="total">    0.39    0.39</time>
   <energy>
    <i name="e_fr_energy">     37.95706660 </i>
    <i name="e_wo_entrp">     37.95714718 </i>
    <i name="e_0_energy">     37.95710689 </i>
   </energy>
  </scstep>
  <scstep>
   <time name="total">    0.39    0.39</time>
   <energy>
    <i name="e_fr_energy">     17.91846350 </i>
    <i name="e_wo_entrp">     17.91846350 </i>
    <i name="e_0_energy">     17.91846350 </i>
   </energy>
  </scstep>
  <scstep>
   <time name="total">    0.40    0.40</time>
   <energy>
    <i name="e_fr_energy">      2.61882933 </i>
    <i name="e_wo_entrp">      2.62511001 </i>
    <i name="e_0_energy">      2.62196967 </i>
   </energy>
  </scstep>
  <scstep>
   <time name="total">    0.61    0.61</time>
   <energy>
    <i name="e_fr_energy">     -0.17851375 </i>
    <i name="e_wo_entrp">     -0.15160873 </i>
    <i name="e_0_energy">     -0.16506124 </i>
   </energy>
  </scstep>
  <scstep>
   <time name="total">    0.74    0.75</time>
   <energy>
    <i name="e_fr_energy">     -0.89897966 </i>
    <i name="e_wo_entrp">     -0.87197962 </i>
    <i name="e_0_energy">     -0.88547964 </i>
   </energy>
  </scstep>
  <scstep>
   <time name="total">    0.70    0.70</time>
   <energy>
    <i name="e_fr_energy">     -1.44200134 </i>
    <i name="e_wo_entrp">     -1.41400146 </i>
    <i name="e_0_energy">     -1.42800140 </i>
   </energy>
  </scstep>
  <scstep>
   <time name="total">    0.69    0.69</time>
   <energy>
    <i name="e_fr_energy">     -1.48887799 </i>
    <i name="e_wo_entrp">     -1.45890899 </i>
    <i name="e_0_energy">     -1.47389349 </i>
   </energy>
  </scstep>
  <scstep>
   <time name="total">    0.68    0.69</time>
   <energy>
    <i name="e_fr_energy">     -1.54645120 </i>
    <i name="e_wo_entrp">     -1.51379627 </i>
    <i name="e_0_energy">     -1.53012373 </i>
   </energy>
  </scstep>
  <scstep>
   <time name="total">    0.69    0.69</time>
   <energy>
    <i name="e_fr_energy">     -1.55001628 </i>
    <i name="e_wo_entrp">     -1.51488535 </i>
    <i name="e_0_energy">     -1.53245082 </i>
   </energy>
  </scstep>
  <scstep>
   <time name="total">    0.68    0.68</time>
   <energy>
    <i name="e_fr_energy">     -1.55804923 </i>
    <i name="e_wo_entrp">     -1.52124203 </i>
    <i name="e_0_energy">     -1.53964563 </i>
   </energy>
  </scstep>
  <scstep>
   <time name="total">    0.70    0.70</time>
   <energy>
    <i name="e_fr_energy">     -1.56422908 </i>
    <i name="e_wo_entrp">     -1.52648201 </i>
    <i name="e_0_energy">     -1.54535555 </i>
   </energy>
  </scstep>
  <scstep>
   <time name="total">    0.69    0.69</time>
   <energy>
    <i name="e_fr_energy">     -1.56571825 </i>
    <i name="e_wo_entrp">     -1.52750686 </i>
    <i name="e_0_energy">     -1.54661256 </i>
   </energy>
  </scstep>
  <scstep>
   <time name="total">    0.68    0.68</time>
   <energy>
    <i name="e_fr_energy">     -1.56663465 </i>
    <i name="e_wo_entrp">     -1.52821367 </i>
    <i name="e_0_energy">     -1.54742416 </i>
   </energy>
  </scstep>
  <scstep>
   <time name="total">    0.68    0.68</time>
   <energy>
    <i name="e_fr_energy">     -1.56700460 </i>
    <i name="e_wo_entrp">     -1.52849510 </i>
    <i name="e_0_energy">     -1.54774985 </i>
   </energy>
  </scstep>
  <scstep>
   <time name="total">    0.70    0.70</time>
   <energy>
    <i name="e_fr_energy">     -1.56713249 </i>
    <i name="e_wo_entrp">     -1.52858762 </i>
    <i name="e_0_energy">     -1.54786005 </i>
   </energy>
  </scstep>
  <scstep>
   <time name="total">    0.69    0.69</time>
   <energy>
    <i name="e_fr_energy">     -1.56720476 </i>
    <i name="e_wo_entrp">     -1.52864647 </i>
    <i name="e_0_energy">     -1.54792562 </i>
   </energy>
  </scstep>
  <scstep>
   <time name="total">    0.74    0.74</time>
   <energy>
    <i name="alphaZ">      0.13895446 </i>
    <i name="ewald">    -73.54166402 </i>
    <i name="hartreedc">   -300.88661085 </i>
    <i name="XCdc">     26.76515983 </i>
    <i name="pawpsdc">    348.63229711 </i>
    <i name="pawaedc">   -350.43139655 </i>
    <i name="eentropy">     -0.03856315 </i>
    <i name="bandstr">    -84.56339870 </i>
    <i name="atom">    432.35798652 </i>
    <i name="e_fr_energy">     -1.56723049 </i>
    <i name="e_wo_entrp">     -1.52866734 </i>
    <i name="e_0_energy">     -1.54794892 </i>
   </energy>
  </scstep>
  <structure>
   <crystal>
    <varray name="basis" >
     <v>      10.00000000       0.00000000       0.00000000 </v>
     <v>       0.00000000      10.00000000       0.00000000 </v>
     <v>       0.00000000       0.00000000      10.00000000 </v>
    </varray>
    <i name="volume">   1000.00000000 </i>
    <varray name="rec_basis" >
     <v>       0.10000000       0.00000000       0.00000000 </v>
     <v>       0.00000000       0.10000000       0.00000000 </v>
     <v>       0.00000000       0.00000000       0.10000000 </v>
    </varray>
   </crystal>
   <varray name="positions" >
    <v>       0.50000000       0.50000000       0.50000000 </v>
   </varray>
  </structure>
  <varray name="forces" >
   <v>       0.00000000       0.00000000       0.00000000 </v>
  </varray>
  <varray name="stress" >
   <v>      -0.03254872      -0.00000000       0.00000000 </v>
   <v>       0.00000000      -0.03254872       0.00000000 </v>
   <v>       0.00000000      -0.00000000      -0.03254872 </v>
  </varray>
  <energy>
   <i name="e_fr_energy">     -1.56723049 </i>
   <i name="e_wo_entrp">     -1.54794892 </i>
   <i name="e_0_energy">     -0.03856315 </i>
  </energy>
  <time name="totalsc">   18.49   18.69</time>
  <eigenvalues>
   <array>
    <dimension dim="1">band</dimension>
    <dimension dim="2">kpoint</dimension>
    <dimension dim="3">spin</dimension>
    <field>eigene</field>
    <field>occ</field>
    <set>
     <set comment="spin 1">
      <set comment="kpoint 1">
       <r>  -25.1395    1.0000 </r>
       <r>  -10.1412    1.0000 </r>
       <r>  -10.1412    1.0000 </r>
       <r>  -10.1412    1.0000 </r>
       <r>   -0.3826    0.0000 </r>
       <r>    1.0141    0.0000 </r>
       <r>    1.1760    0.0000 </r>
       <r>    1.1766    0.0000 </r>
       <r>    1.1795    0.0000 </r>
       <r>    1.3974    0.0000 </r>
       <r>    1.3974    0.0000 </r>
       <r>    2.6349    0.0000 </r>
       <r>    2.6556    0.0000 </r>
       <r>    2.6718    0.0000 </r>
       <r>    2.6726    0.0000 </r>
       <r>    2.6921    0.0000 </r>
       <r>    2.7160    0.0000 </r>
       <r>    2.7215    0.0000 </r>
       <r>    2.8602    0.0000 </r>
       <r>    2.8863    0.0000 </r>
       <r>    2.8877    0.0000 </r>
       <r>    2.9071    0.0000 </r>
       <r>    2.9482    0.0000 </r>
       <r>    4.2141    0.0000 </r>
       <r>    4.2251    0.0000 </r>
       <r>    4.2263    0.0000 </r>
       <r>    4.3102    0.0000 </r>
       <r>    4.4195    0.0000 </r>
       <r>    4.4222    0.0000 </r>
       <r>    4.4636    0.0000 </r>
       <r>    4.5396    0.0000 </r>
       <r>    5.3639    0.0000 </r>
       <r>    5.4742    0.0000 </r>
       <r>    6.0599    0.0000 </r>
       <r>    6.8891    0.0000 </r>
       <r>    6.9419    0.0000 </r>
      </set>
     </set>
     <set comment="spin 2">
      <set comment="kpoint 1">
       <r>  -21.8923    1.0000 </r>
       <r>   -7.1080    0.3372 </r>
       <r>   -7.1080    0.3351 </r>
       <r>   -7.1080    0.3277 </r>
       <r>   -0.3011    0.0000 </r>
       <r>    1.1421    0.0000 </r>
       <r>    1.2413    0.0000 </r>
       <r>    1.2423    0.0000 </r>
       <r>    1.2425    0.0000 </r>
       <r>    1.3821    0.0000 </r>
       <r>    1.3827    0.0000 </r>
       <r>    2.7022    0.0000 </r>
       <r>    2.7034    0.0000 </r>
       <r>    2.7069    0.0000 </r>
       <r>    2.7070    0.0000 </r>
       <r>    2.7084    0.0000 </r>
       <r>    2.7095    0.0000 </r>
       <r>    2.8291    0.0000 </r>
       <r>    2.8683    0.0000 </r>
       <r>    2.8733    0.0000 </r>
       <r>    2.9076    0.0000 </r>
       <r>    2.9078    0.0000 </r>
       <r>    2.9301    0.0000 </r>
       <r>    4.2308    0.0000 </r>
       <r>    4.2318    0.0000 </r>
       <r>    4.2328    0.0000 </r>
       <r>    4.3326    0.0000 </r>
       <r>    4.3546    0.0000 </r>
       <r>    4.4297    0.0000 </r>
       <r>    4.5025    0.0000 </r>
       <r>    4.6834    0.0000 </r>
       <r>    5.4571    0.0000 </r>
       <r>    5.6392    0.0000 </r>
       <r>    6.1419    0.0000 </r>
       <r>    6.3915    0.0000 </r>
       <r>    7.0050    0.0000 </r>
      </set>
     </set>
    </set>
   </array>
  </eigenvalues>
  <separator name="orbital magnetization" >
   <v name="MAGDIPOLOUT">      0.00000000      0.00000000      0.00000000</v>
  </separator>
  <dos>
   <i name="efermi">     -7.12320410 </i>
   <total>
    <array>
     <dimension dim="1">gridpoints</dimension>
     <dimension dim="2">spin</dimension>
     <field>energy</field>
     <field>total</field>
     <field>integrated</field>
     <set>
      <set comment="spin 1">
       <r>   -26.7467     0.0000     0.0000 </r>
       <r>   -26.6289     0.0000     0.0000 </r>
       <r>   -26.5110     0.0000     0.0000 </r>
       <r>   -26.3932     0.0000     0.0000 </r>
       <r>   -26.2753     0.0000     0.0000 </r>
       <r>   -26.1574     0.0000     0.0000 </r>
       <r>   -26.0396     0.0000     0.0000 </r>
       <r>   -25.9217     0.0000     0.0000 </r>
       <r>   -25.8038     0.0000     0.0000 </r>
       <r>   -25.6860     0.0000     0.0000 </r>
       <r>   -25.5681     0.0000     0.0000 </r>
       <r>   -25.4503     0.0000     0.0000 </r>
       <r>   -25.3324     0.0000     0.0000 </r>
       <r>   -25.2145     0.1437     0.0169 </r>
       <r>   -25.0967     7.3844     0.8873 </r>
       <r>   -24.9788     0.9562     1.0000 </r>
       <r>   -24.8609     0.0000     1.0000 </r>
       <r>   -24.7431     0.0000     1.0000 </r>
       <r>   -24.6252     0.0000     1.0000 </r>
       <r>   -24.5073     0.0000     1.0000 </r>
       <r>   -24.3895     0.0000     1.0000 </r>
       <r>   -24.2716     0.0000     1.0000 </r>
       <r>   -24.1538     0.0000     1.0000 </r>
       <r>   -24.0359     0.0000     1.0000 </r>
       <r>   -23.9180     0.0000     1.0000 </r>
       <r>   -23.8002     0.0000     1.0000 </r>
       <r>   -23.6823     0.0000     1.0000 </r>
       <r>   -23.5644     0.0000     1.0000 </r>
       <r>   -23.4466     0.0000     1.0000 </r>
       <r>   -23.3287     0.0000     1.0000 </r>
       <r>   -23.2108     0.0000     1.0000 </r>
       <r>   -23.0930     0.0000     1.0000 </r>
       <r>   -22.9751     0.0000     1.0000 </r>
       <r>   -22.8573     0.0000     1.0000 </r>
       <r>   -22.7394     0.0000     1.0000 </r>
       <r>   -22.6215     0.0000     1.0000 </r>
       <r>   -22.5037     0.0000     1.0000 </r>
       <r>   -22.3858     0.0000     1.0000 </r>
       <r>   -22.2679     0.0000     1.0000 </r>
       <r>   -22.1501     0.0000     1.0000 </r>
       <r>   -22.0322     0.0000     1.0000 </r>
       <r>   -21.9144     0.0000     1.0000 </r>
       <r>   -21.7965     0.0000     1.0000 </r>
       <r>   -21.6786     0.0000     1.0000 </r>
       <r>   -21.5608     0.0000     1.0000 </r>
       <r>   -21.4429     0.0000     1.0000 </r>
       <r>   -21.3250     0.0000     1.0000 </r>
       <r>   -21.2072     0.0000     1.0000 </r>
       <r>   -21.0893     0.0000     1.0000 </r>
       <r>   -20.9714     0.0000     1.0000 </r>
       <r>   -20.8536     0.0000     1.0000 </r>
       <r>   -20.7357     0.0000     1.0000 </r>
       <r>   -20.6179     0.0000     1.0000 </r>
       <r>   -20.5000     0.0000     1.0000 </r>
       <r>   -20.3821     0.0000     1.0000 </r>
       <r>   -20.2643     0.0000     1.0000 </r>
       <r>   -20.1464     0.0000     1.0000 </r>
       <r>   -20.0285     0.0000     1.0000 </r>
       <r>   -19.9107     0.0000     1.0000 </r>
       <r>   -19.7928     0.0000     1.0000 </r>
       <r>   -19.6749     0.0000     1.0000 </r>
       <r>   -19.5571     0.0000     1.0000 </r>
       <r>   -19.4392     0.0000     1.0000 </r>
       <r>   -19.3214     0.0000     1.0000 </r>
       <r>   -19.2035     0.0000     1.0000 </r>
       <r>   -19.0856     0.0000     1.0000 </r>
       <r>   -18.9678     0.0000     1.0000 </r>
       <r>   -18.8499     0.0000     1.0000 </r>
       <r>   -18.7320     0.0000     1.0000 </r>
       <r>   -18.6142     0.0000     1.0000 </r>
       <r>   -18.4963     0.0000     1.0000 </r>
       <r>   -18.3785     0.0000     1.0000 </r>
       <r>   -18.2606     0.0000     1.0000 </r>
       <r>   -18.1427     0.0000     1.0000 </r>
       <r>   -18.0249     0.0000     1.0000 </r>
       <r>   -17.9070     0.0000     1.0000 </r>
       <r>   -17.7891     0.0000     1.0000 </r>
       <r>   -17.6713     0.0000     1.0000 </r>
       <r>   -17.5534     0.0000     1.0000 </r>
       <r>   -17.4355     0.0000     1.0000 </r>
       <r>   -17.3177     0.0000     1.0000 </r>
       <r>   -17.1998     0.0000     1.0000 </r>
       <r>   -17.0820     0.0000     1.0000 </r>
       <r>   -16.9641     0.0000     1.0000 </r>
       <r>   -16.8462     0.0000     1.0000 </r>
       <r>   -16.7284     0.0000     1.0000 </r>
       <r>   -16.6105     0.0000     1.0000 </r>
       <r>   -16.4926     0.0000     1.0000 </r>
       <r>   -16.3748     0.0000     1.0000 </r>
       <r>   -16.2569     0.0000     1.0000 </r>
       <r>   -16.1390     0.0000     1.0000 </r>
       <r>   -16.0212     0.0000     1.0000 </r>
       <r>   -15.9033     0.0000     1.0000 </r>
       <r>   -15.7855     0.0000     1.0000 </r>
       <r>   -15.6676     0.0000     1.0000 </r>
       <r>   -15.5497     0.0000     1.0000 </r>
       <r>   -15.4319     0.0000     1.0000 </r>
       <r>   -15.3140     0.0000     1.0000 </r>
       <r>   -15.1961     0.0000     1.0000 </r>
       <r>   -15.0783     0.0000     1.0000 </r>
       <r>   -14.9604     0.0000     1.0000 </r>
       <r>   -14.8425     0.0000     1.0000 </r>
       <r>   -14.7247     0.0000     1.0000 </r>
       <r>   -14.6068     0.0000     1.0000 </r>
       <r>   -14.4890     0.0000     1.0000 </r>
       <r>   -14.3711     0.0000     1.0000 </r>
       <r>   -14.2532     0.0000     1.0000 </r>
       <r>   -14.1354     0.0000     1.0000 </r>
       <r>   -14.0175     0.0000     1.0000 </r>
       <r>   -13.8996     0.0000     1.0000 </r>
       <r>   -13.7818     0.0000     1.0000 </r>
       <r>   -13.6639     0.0000     1.0000 </r>
       <r>   -13.5461     0.0000     1.0000 </r>
       <r>   -13.4282     0.0000     1.0000 </r>
       <r>   -13.3103     0.0000     1.0000 </r>
       <r>   -13.1925     0.0000     1.0000 </r>
       <r>   -13.0746     0.0000     1.0000 </r>
       <r>   -12.9567     0.0000     1.0000 </r>
       <r>   -12.8389     0.0000     1.0000 </r>
       <r>   -12.7210     0.0000     1.0000 </r>
       <r>   -12.6031     0.0000     1.0000 </r>
       <r>   -12.4853     0.0000     1.0000 </r>
       <r>   -12.3674     0.0000     1.0000 </r>
       <r>   -12.2496     0.0000     1.0000 </r>
       <r>   -12.1317     0.0000     1.0000 </r>
       <r>   -12.0138     0.0000     1.0000 </r>
       <r>   -11.8960     0.0000     1.0000 </r>
       <r>   -11.7781     0.0000     1.0000 </r>
       <r>   -11.6602     0.0000     1.0000 </r>
       <r>   -11.5424     0.0000     1.0000 </r>
       <r>   -11.4245     0.0000     1.0000 </r>
       <r>   -11.3066     0.0000     1.0000 </r>
       <r>   -11.1888     0.0000     1.0000 </r>
       <r>   -11.0709     0.0000     1.0000 </r>
       <r>   -10.9531     0.0000     1.0000 </r>
       <r>   -10.8352     0.0000     1.0000 </r>
       <r>   -10.7173     0.0000     1.0000 </r>
       <r>   -10.5995     0.0000     1.0000 </r>
       <r>   -10.4816     0.0000     1.0000 </r>
       <r>   -10.3637     0.0000     1.0000 </r>
       <r>   -10.2459     0.0391     1.0046 </r>
       <r>   -10.1280    16.3885     2.9362 </r>
       <r>   -10.0102     9.0229     3.9997 </r>
       <r>    -9.8923     0.0027     4.0000 </r>
       <r>    -9.7744     0.0000     4.0000 </r>
       <r>    -9.6566     0.0000     4.0000 </r>
       <r>    -9.5387     0.0000     4.0000 </r>
       <r>    -9.4208     0.0000     4.0000 </r>
       <r>    -9.3030     0.0000     4.0000 </r>
       <r>    -9.1851     0.0000     4.0000 </r>
       <r>    -9.0672     0.0000     4.0000 </r>
       <r>    -8.9494     0.0000     4.0000 </r>
       <r>    -8.8315     0.0000     4.0000 </r>
       <r>    -8.7137     0.0000     4.0000 </r>
       <r>    -8.5958     0.0000     4.0000 </r>
       <r>    -8.4779     0.0000     4.0000 </r>
       <r>    -8.3601     0.0000     4.0000 </r>
       <r>    -8.2422     0.0000     4.0000 </r>
       <r>    -8.1243     0.0000     4.0000 </r>
       <r>    -8.0065     0.0000     4.0000 </r>
       <r>    -7.8886     0.0000     4.0000 </r>
       <r>    -7.7707     0.0000     4.0000 </r>
       <r>    -7.6529     0.0000     4.0000 </r>
       <r>    -7.5350     0.0000     4.0000 </r>
       <r>    -7.4172     0.0000     4.0000 </r>
       <r>    -7.2993     0.0000     4.0000 </r>
       <r>    -7.1814     0.0000     4.0000 </r>
       <r>    -7.0636     0.0000     4.0000 </r>
       <r>    -6.9457     0.0000     4.0000 </r>
       <r>    -6.8278     0.0000     4.0000 </r>
       <r>    -6.7100     0.0000     4.0000 </r>
       <r>    -6.5921     0.0000     4.0000 </r>
       <r>    -6.4743     0.0000     4.0000 </r>
       <r>    -6.3564     0.0000     4.0000 </r>
       <r>    -6.2385     0.0000     4.0000 </r>
       <r>    -6.1207     0.0000     4.0000 </r>
       <r>    -6.0028     0.0000     4.0000 </r>
       <r>    -5.8849     0.0000     4.0000 </r>
       <r>    -5.7671     0.0000     4.0000 </r>
       <r>    -5.6492     0.0000     4.0000 </r>
       <r>    -5.5313     0.0000     4.0000 </r>
       <r>    -5.4135     0.0000     4.0000 </r>
       <r>    -5.2956     0.0000     4.0000 </r>
       <r>    -5.1778     0.0000     4.0000 </r>
       <r>    -5.0599     0.0000     4.0000 </r>
       <r>    -4.9420     0.0000     4.0000 </r>
       <r>    -4.8242     0.0000     4.0000 </r>
       <r>    -4.7063     0.0000     4.0000 </r>
       <r>    -4.5884     0.0000     4.0000 </r>
       <r>    -4.4706     0.0000     4.0000 </r>
       <r>    -4.3527     0.0000     4.0000 </r>
       <r>    -4.2348     0.0000     4.0000 </r>
       <r>    -4.1170     0.0000     4.0000 </r>
       <r>    -3.9991     0.0000     4.0000 </r>
       <r>    -3.8813     0.0000     4.0000 </r>
       <r>    -3.7634     0.0000     4.0000 </r>
       <r>    -3.6455     0.0000     4.0000 </r>
       <r>    -3.5277     0.0000     4.0000 </r>
       <r>    -3.4098     0.0000     4.0000 </r>
       <r>    -3.2919     0.0000     4.0000 </r>
       <r>    -3.1741     0.0000     4.0000 </r>
       <r>    -3.0562     0.0000     4.0000 </r>
       <r>    -2.9384     0.0000     4.0000 </r>
       <r>    -2.8205     0.0000     4.0000 </r>
       <r>    -2.7026     0.0000     4.0000 </r>
       <r>    -2.5848     0.0000     4.0000 </r>
       <r>    -2.4669     0.0000     4.0000 </r>
       <r>    -2.3490     0.0000     4.0000 </r>
       <r>    -2.2312     0.0000     4.0000 </r>
       <r>    -2.1133     0.0000     4.0000 </r>
       <r>    -1.9954     0.0000     4.0000 </r>
       <r>    -1.8776     0.0000     4.0000 </r>
       <r>    -1.7597     0.0000     4.0000 </r>
       <r>    -1.6419     0.0000     4.0000 </r>
       <r>    -1.5240     0.0000     4.0000 </r>
       <r>    -1.4061     0.0000     4.0000 </r>
       <r>    -1.2883     0.0000     4.0000 </r>
       <r>    -1.1704     0.0000     4.0000 </r>
       <r>    -1.0525     0.0000     4.0000 </r>
       <r>    -0.9347     0.0000     4.0000 </r>
       <r>    -0.8168     0.0000     4.0000 </r>
       <r>    -0.6989     0.0000     4.0000 </r>
       <r>    -0.5811     0.0000     4.0000 </r>
       <r>    -0.4632     0.0958     4.0113 </r>
       <r>    -0.3454     7.1492     4.8539 </r>
       <r>    -0.2275     1.2393     5.0000 </r>
       <r>    -0.1096     0.0000     5.0000 </r>
       <r>     0.0082     0.0000     5.0000 </r>
       <r>     0.1261     0.0000     5.0000 </r>
       <r>     0.2440     0.0000     5.0000 </r>
       <r>     0.3618     0.0000     5.0000 </r>
       <r>     0.4797     0.0000     5.0000 </r>
       <r>     0.5976     0.0000     5.0000 </r>
       <r>     0.7154     0.0000     5.0000 </r>
       <r>     0.8333     0.0000     5.0000 </r>
       <r>     0.9511     0.3175     5.0374 </r>
       <r>     1.0690     7.6833     5.9430 </r>
       <r>     1.1869    15.9039     7.8175 </r>
       <r>     1.3047    10.1032     9.0083 </r>
       <r>     1.4226    12.8581    10.5238 </r>
       <r>     1.5405     4.0400    10.9999 </r>
       <r>     1.6583     0.0004    11.0000 </r>
       <r>     1.7762     0.0000    11.0000 </r>
       <r>     1.8940     0.0000    11.0000 </r>
       <r>     2.0119     0.0000    11.0000 </r>
       <r>     2.1298     0.0000    11.0000 </r>
       <r>     2.2476     0.0000    11.0000 </r>
       <r>     2.3655     0.0000    11.0000 </r>
       <r>     2.4834     0.0001    11.0000 </r>
       <r>     2.6012     2.4050    11.2835 </r>
       <r>     2.7191    44.7303    16.5555 </r>
       <r>     2.8370    15.9518    18.4357 </r>
       <r>     2.9548    33.8587    22.4264 </r>
       <r>     3.0727     4.8651    22.9998 </r>
       <r>     3.1905     0.0018    23.0000 </r>
       <r>     3.3084     0.0000    23.0000 </r>
       <r>     3.4263     0.0000    23.0000 </r>
       <r>     3.5441     0.0000    23.0000 </r>
       <r>     3.6620     0.0000    23.0000 </r>
       <r>     3.7799     0.0000    23.0000 </r>
       <r>     3.8977     0.0000    23.0000 </r>
       <r>     4.0156     0.0000    23.0000 </r>
       <r>     4.1335     0.1726    23.0203 </r>
       <r>     4.2513    20.4664    25.4326 </r>
       <r>     4.3692    14.1489    27.1002 </r>
       <r>     4.4870    22.5086    29.7532 </r>
       <r>     4.6049    10.3030    30.9675 </r>
       <r>     4.7228     0.2757    31.0000 </r>
       <r>     4.8406     0.0000    31.0000 </r>
       <r>     4.9585     0.0000    31.0000 </r>
       <r>     5.0764     0.0000    31.0000 </r>
       <r>     5.1942     0.0000    31.0000 </r>
       <r>     5.3121     0.6072    31.0716 </r>
       <r>     5.4299     8.5087    32.0744 </r>
       <r>     5.5478     7.6942    32.9813 </r>
       <r>     5.6657     0.1587    33.0000 </r>
       <r>     5.7835     0.0000    33.0000 </r>
       <r>     5.9014     0.0000    33.0000 </r>
       <r>     6.0193     1.0617    33.1251 </r>
       <r>     6.1371     7.2998    33.9855 </r>
       <r>     6.2550     0.1229    34.0000 </r>
       <r>     6.3729     0.0000    34.0000 </r>
       <r>     6.4907     0.0000    34.0000 </r>
       <r>     6.6086     0.0000    34.0000 </r>
       <r>     6.7264     0.0000    34.0000 </r>
       <r>     6.8443     0.8938    34.1053 </r>
       <r>     6.9622    13.5076    35.6974 </r>
       <r>     7.0800     2.5671    36.0000 </r>
       <r>     7.1979     0.0004    36.0000 </r>
       <r>     7.3158     0.0000    36.0000 </r>
       <r>     7.4336     0.0000    36.0000 </r>
       <r>     7.5515     0.0000    36.0000 </r>
       <r>     7.6694     0.0000    36.0000 </r>
       <r>     7.7872     0.0000    36.0000 </r>
       <r>     7.9051     0.0000    36.0000 </r>
       <r>     8.0229     0.0000    36.0000 </r>
       <r>     8.1408     0.0000    36.0000 </r>
       <r>     8.2587     0.0000    36.0000 </r>
       <r>     8.3765     0.0000    36.0000 </r>
       <r>     8.4944     0.0000    36.0000 </r>
       <r>     8.6123     0.0000    36.0000 </r>
      </set>
      <set comment="spin 2">
       <r>   -26.7467     0.0000     0.0000 </r>
       <r>   -26.6289     0.0000     0.0000 </r>
       <r>   -26.5110     0.0000     0.0000 </r>
       <r>   -26.3932     0.0000     0.0000 </r>
       <r>   -26.2753     0.0000     0.0000 </r>
       <r>   -26.1574     0.0000     0.0000 </r>
       <r>   -26.0396     0.0000     0.0000 </r>
       <r>   -25.9217     0.0000     0.0000 </r>
       <r>   -25.8038     0.0000     0.0000 </r>
       <r>   -25.6860     0.0000     0.0000 </r>
       <r>   -25.5681     0.0000     0.0000 </r>
       <r>   -25.4503     0.0000     0.0000 </r>
       <r>   -25.3324     0.0000     0.0000 </r>
       <r>   -25.2145     0.0000     0.0000 </r>
       <r>   -25.0967     0.0000     0.0000 </r>
       <r>   -24.9788     0.0000     0.0000 </r>
       <r>   -24.8609     0.0000     0.0000 </r>
       <r>   -24.7431     0.0000     0.0000 </r>
       <r>   -24.6252     0.0000     0.0000 </r>
       <r>   -24.5073     0.0000     0.0000 </r>
       <r>   -24.3895     0.0000     0.0000 </r>
       <r>   -24.2716     0.0000     0.0000 </r>
       <r>   -24.1538     0.0000     0.0000 </r>
       <r>   -24.0359     0.0000     0.0000 </r>
       <r>   -23.9180     0.0000     0.0000 </r>
       <r>   -23.8002     0.0000     0.0000 </r>
       <r>   -23.6823     0.0000     0.0000 </r>
       <r>   -23.5644     0.0000     0.0000 </r>
       <r>   -23.4466     0.0000     0.0000 </r>
       <r>   -23.3287     0.0000     0.0000 </r>
       <r>   -23.2108     0.0000     0.0000 </r>
       <r>   -23.0930     0.0000     0.0000 </r>
       <r>   -22.9751     0.0000     0.0000 </r>
       <r>   -22.8573     0.0000     0.0000 </r>
       <r>   -22.7394     0.0000     0.0000 </r>
       <r>   -22.6215     0.0000     0.0000 </r>
       <r>   -22.5037     0.0000     0.0000 </r>
       <r>   -22.3858     0.0000     0.0000 </r>
       <r>   -22.2679     0.0000     0.0000 </r>
       <r>   -22.1501     0.0000     0.0000 </r>
       <r>   -22.0322     0.0003     0.0000 </r>
       <r>   -21.9144     2.2602     0.2664 </r>
       <r>   -21.7965     6.1954     0.9966 </r>
       <r>   -21.6786     0.0285     1.0000 </r>
       <r>   -21.5608     0.0000     1.0000 </r>
       <r>   -21.4429     0.0000     1.0000 </r>
       <r>   -21.3250     0.0000     1.0000 </r>
       <r>   -21.2072     0.0000     1.0000 </r>
       <r>   -21.0893     0.0000     1.0000 </r>
       <r>   -20.9714     0.0000     1.0000 </r>
       <r>   -20.8536     0.0000     1.0000 </r>
       <r>   -20.7357     0.0000     1.0000 </r>
       <r>   -20.6179     0.0000     1.0000 </r>
       <r>   -20.5000     0.0000     1.0000 </r>
       <r>   -20.3821     0.0000     1.0000 </r>
       <r>   -20.2643     0.0000     1.0000 </r>
       <r>   -20.1464     0.0000     1.0000 </r>
       <r>   -20.0285     0.0000     1.0000 </r>
       <r>   -19.9107     0.0000     1.0000 </r>
       <r>   -19.7928     0.0000     1.0000 </r>
       <r>   -19.6749     0.0000     1.0000 </r>
       <r>   -19.5571     0.0000     1.0000 </r>
       <r>   -19.4392     0.0000     1.0000 </r>
       <r>   -19.3214     0.0000     1.0000 </r>
       <r>   -19.2035     0.0000     1.0000 </r>
       <r>   -19.0856     0.0000     1.0000 </r>
       <r>   -18.9678     0.0000     1.0000 </r>
       <r>   -18.8499     0.0000     1.0000 </r>
       <r>   -18.7320     0.0000     1.0000 </r>
       <r>   -18.6142     0.0000     1.0000 </r>
       <r>   -18.4963     0.0000     1.0000 </r>
       <r>   -18.3785     0.0000     1.0000 </r>
       <r>   -18.2606     0.0000     1.0000 </r>
       <r>   -18.1427     0.0000     1.0000 </r>
       <r>   -18.0249     0.0000     1.0000 </r>
       <r>   -17.9070     0.0000     1.0000 </r>
       <r>   -17.7891     0.0000     1.0000 </r>
       <r>   -17.6713     0.0000     1.0000 </r>
       <r>   -17.5534     0.0000     1.0000 </r>
       <r>   -17.4355     0.0000     1.0000 </r>
       <r>   -17.3177     0.0000     1.0000 </r>
       <r>   -17.1998     0.0000     1.0000 </r>
       <r>   -17.0820     0.0000     1.0000 </r>
       <r>   -16.9641     0.0000     1.0000 </r>
       <r>   -16.8462     0.0000     1.0000 </r>
       <r>   -16.7284     0.0000     1.0000 </r>
       <r>   -16.6105     0.0000     1.0000 </r>
       <r>   -16.4926     0.0000     1.0000 </r>
       <r>   -16.3748     0.0000     1.0000 </r>
       <r>   -16.2569     0.0000     1.0000 </r>
       <r>   -16.1390     0.0000     1.0000 </r>
       <r>   -16.0212     0.0000     1.0000 </r>
       <r>   -15.9033     0.0000     1.0000 </r>
       <r>   -15.7855     0.0000     1.0000 </r>
       <r>   -15.6676     0.0000     1.0000 </r>
       <r>   -15.5497     0.0000     1.0000 </r>
       <r>   -15.4319     0.0000     1.0000 </r>
       <r>   -15.3140     0.0000     1.0000 </r>
       <r>   -15.1961     0.0000     1.0000 </r>
       <r>   -15.0783     0.0000     1.0000 </r>
       <r>   -14.9604     0.0000     1.0000 </r>
       <r>   -14.8425     0.0000     1.0000 </r>
       <r>   -14.7247     0.0000     1.0000 </r>
       <r>   -14.6068     0.0000     1.0000 </r>
       <r>   -14.4890     0.0000     1.0000 </r>
       <r>   -14.3711     0.0000     1.0000 </r>
       <r>   -14.2532     0.0000     1.0000 </r>
       <r>   -14.1354     0.0000     1.0000 </r>
       <r>   -14.0175     0.0000     1.0000 </r>
       <r>   -13.8996     0.0000     1.0000 </r>
       <r>   -13.7818     0.0000     1.0000 </r>
       <r>   -13.6639     0.0000     1.0000 </r>
       <r>   -13.5461     0.0000     1.0000 </r>
       <r>   -13.4282     0.0000     1.0000 </r>
       <r>   -13.3103     0.0000     1.0000 </r>
       <r>   -13.1925     0.0000     1.0000 </r>
       <r>   -13.0746     0.0000     1.0000 </r>
       <r>   -12.9567     0.0000     1.0000 </r>
       <r>   -12.8389     0.0000     1.0000 </r>
       <r>   -12.7210     0.0000     1.0000 </r>
       <r>   -12.6031     0.0000     1.0000 </r>
       <r>   -12.4853     0.0000     1.0000 </r>
       <r>   -12.3674     0.0000     1.0000 </r>
       <r>   -12.2496     0.0000     1.0000 </r>
       <r>   -12.1317     0.0000     1.0000 </r>
       <r>   -12.0138     0.0000     1.0000 </r>
       <r>   -11.8960     0.0000     1.0000 </r>
       <r>   -11.7781     0.0000     1.0000 </r>
       <r>   -11.6602     0.0000     1.0000 </r>
       <r>   -11.5424     0.0000     1.0000 </r>
       <r>   -11.4245     0.0000     1.0000 </r>
       <r>   -11.3066     0.0000     1.0000 </r>
       <r>   -11.1888     0.0000     1.0000 </r>
       <r>   -11.0709     0.0000     1.0000 </r>
       <r>   -10.9531     0.0000     1.0000 </r>
       <r>   -10.8352     0.0000     1.0000 </r>
       <r>   -10.7173     0.0000     1.0000 </r>
       <r>   -10.5995     0.0000     1.0000 </r>
       <r>   -10.4816     0.0000     1.0000 </r>
       <r>   -10.3637     0.0000     1.0000 </r>
       <r>   -10.2459     0.0000     1.0000 </r>
       <r>   -10.1280     0.0000     1.0000 </r>
       <r>   -10.0102     0.0000     1.0000 </r>
       <r>    -9.8923     0.0000     1.0000 </r>
       <r>    -9.7744     0.0000     1.0000 </r>
       <r>    -9.6566     0.0000     1.0000 </r>
       <r>    -9.5387     0.0000     1.0000 </r>
       <r>    -9.4208     0.0000     1.0000 </r>
       <r>    -9.3030     0.0000     1.0000 </r>
       <r>    -9.1851     0.0000     1.0000 </r>
       <r>    -9.0672     0.0000     1.0000 </r>
       <r>    -8.9494     0.0000     1.0000 </r>
       <r>    -8.8315     0.0000     1.0000 </r>
       <r>    -8.7137     0.0000     1.0000 </r>
       <r>    -8.5958     0.0000     1.0000 </r>
       <r>    -8.4779     0.0000     1.0000 </r>
       <r>    -8.3601     0.0000     1.0000 </r>
       <r>    -8.2422     0.0000     1.0000 </r>
       <r>    -8.1243     0.0000     1.0000 </r>
       <r>    -8.0065     0.0000     1.0000 </r>
       <r>    -7.8886     0.0000     1.0000 </r>
       <r>    -7.7707     0.0000     1.0000 </r>
       <r>    -7.6529     0.0000     1.0000 </r>
       <r>    -7.5350     0.0000     1.0000 </r>
       <r>    -7.4172     0.0000     1.0000 </r>
       <r>    -7.2993     0.0000     1.0000 </r>
       <r>    -7.1814     0.4803     1.0566 </r>
       <r>    -7.0636    22.3117     3.6863 </r>
       <r>    -6.9457     2.6611     4.0000 </r>
       <r>    -6.8278     0.0001     4.0000 </r>
       <r>    -6.7100     0.0000     4.0000 </r>
       <r>    -6.5921     0.0000     4.0000 </r>
       <r>    -6.4743     0.0000     4.0000 </r>
       <r>    -6.3564     0.0000     4.0000 </r>
       <r>    -6.2385     0.0000     4.0000 </r>
       <r>    -6.1207     0.0000     4.0000 </r>
       <r>    -6.0028     0.0000     4.0000 </r>
       <r>    -5.8849     0.0000     4.0000 </r>
       <r>    -5.7671     0.0000     4.0000 </r>
       <r>    -5.6492     0.0000     4.0000 </r>
       <r>    -5.5313     0.0000     4.0000 </r>
       <r>    -5.4135     0.0000     4.0000 </r>
       <r>    -5.2956     0.0000     4.0000 </r>
       <r>    -5.1778     0.0000     4.0000 </r>
       <r>    -5.0599     0.0000     4.0000 </r>
       <r>    -4.9420     0.0000     4.0000 </r>
       <r>    -4.8242     0.0000     4.0000 </r>
       <r>    -4.7063     0.0000     4.0000 </r>
       <r>    -4.5884     0.0000     4.0000 </r>
       <r>    -4.4706     0.0000     4.0000 </r>
       <r>    -4.3527     0.0000     4.0000 </r>
       <r>    -4.2348     0.0000     4.0000 </r>
       <r>    -4.1170     0.0000     4.0000 </r>
       <r>    -3.9991     0.0000     4.0000 </r>
       <r>    -3.8813     0.0000     4.0000 </r>
       <r>    -3.7634     0.0000     4.0000 </r>
       <r>    -3.6455     0.0000     4.0000 </r>
       <r>    -3.5277     0.0000     4.0000 </r>
       <r>    -3.4098     0.0000     4.0000 </r>
       <r>    -3.2919     0.0000     4.0000 </r>
       <r>    -3.1741     0.0000     4.0000 </r>
       <r>    -3.0562     0.0000     4.0000 </r>
       <r>    -2.9384     0.0000     4.0000 </r>
       <r>    -2.8205     0.0000     4.0000 </r>
       <r>    -2.7026     0.0000     4.0000 </r>
       <r>    -2.5848     0.0000     4.0000 </r>
       <r>    -2.4669     0.0000     4.0000 </r>
       <r>    -2.3490     0.0000     4.0000 </r>
       <r>    -2.2312     0.0000     4.0000 </r>
       <r>    -2.1133     0.0000     4.0000 </r>
       <r>    -1.9954     0.0000     4.0000 </r>
       <r>    -1.8776     0.0000     4.0000 </r>
       <r>    -1.7597     0.0000     4.0000 </r>
       <r>    -1.6419     0.0000     4.0000 </r>
       <r>    -1.5240     0.0000     4.0000 </r>
       <r>    -1.4061     0.0000     4.0000 </r>
       <r>    -1.2883     0.0000     4.0000 </r>
       <r>    -1.1704     0.0000     4.0000 </r>
       <r>    -1.0525     0.0000     4.0000 </r>
       <r>    -0.9347     0.0000     4.0000 </r>
       <r>    -0.8168     0.0000     4.0000 </r>
       <r>    -0.6989     0.0000     4.0000 </r>
       <r>    -0.5811     0.0000     4.0000 </r>
       <r>    -0.4632     0.0000     4.0000 </r>
       <r>    -0.3454     0.8936     4.1053 </r>
       <r>    -0.2275     7.4323     4.9813 </r>
       <r>    -0.1096     0.1584     5.0000 </r>
       <r>     0.0082     0.0000     5.0000 </r>
       <r>     0.1261     0.0000     5.0000 </r>
       <r>     0.2440     0.0000     5.0000 </r>
       <r>     0.3618     0.0000     5.0000 </r>
       <r>     0.4797     0.0000     5.0000 </r>
       <r>     0.5976     0.0000     5.0000 </r>
       <r>     0.7154     0.0000     5.0000 </r>
       <r>     0.8333     0.0000     5.0000 </r>
       <r>     0.9511     0.0000     5.0000 </r>
       <r>     1.0690     0.1639     5.0193 </r>
       <r>     1.1869     8.9580     6.0751 </r>
       <r>     1.3047    24.0830     8.9136 </r>
       <r>     1.4226    15.5326    10.7444 </r>
       <r>     1.5405     2.1688    11.0000 </r>
       <r>     1.6583     0.0001    11.0000 </r>
       <r>     1.7762     0.0000    11.0000 </r>
       <r>     1.8940     0.0000    11.0000 </r>
       <r>     2.0119     0.0000    11.0000 </r>
       <r>     2.1298     0.0000    11.0000 </r>
       <r>     2.2476     0.0000    11.0000 </r>
       <r>     2.3655     0.0000    11.0000 </r>
       <r>     2.4834     0.0000    11.0000 </r>
       <r>     2.6012     0.0778    11.0092 </r>
       <r>     2.7191    32.5859    14.8499 </r>
       <r>     2.8370    26.5236    17.9760 </r>
       <r>     2.9548    38.8719    22.5576 </r>
       <r>     3.0727     3.7533    23.0000 </r>
       <r>     3.1905     0.0003    23.0000 </r>
       <r>     3.3084     0.0000    23.0000 </r>
       <r>     3.4263     0.0000    23.0000 </r>
       <r>     3.5441     0.0000    23.0000 </r>
       <r>     3.6620     0.0000    23.0000 </r>
       <r>     3.7799     0.0000    23.0000 </r>
       <r>     3.8977     0.0000    23.0000 </r>
       <r>     4.0156     0.0000    23.0000 </r>
       <r>     4.1335     0.0689    23.0081 </r>
       <r>     4.2513    18.0924    25.1405 </r>
       <r>     4.3692    20.4671    27.5529 </r>
       <r>     4.4870    14.6366    29.2780 </r>
       <r>     4.6049     6.2222    30.0113 </r>
       <r>     4.7228     7.2637    30.8675 </r>
       <r>     4.8406     1.1244    31.0000 </r>
       <r>     4.9585     0.0000    31.0000 </r>
       <r>     5.0764     0.0000    31.0000 </r>
       <r>     5.1942     0.0000    31.0000 </r>
       <r>     5.3121     0.0002    31.0000 </r>
       <r>     5.4299     1.8745    31.2210 </r>
       <r>     5.5478     6.6071    31.9997 </r>
       <r>     5.6657     6.5589    32.7728 </r>
       <r>     5.7835     1.9279    33.0000 </r>
       <r>     5.9014     0.0002    33.0000 </r>
       <r>     6.0193     0.0022    33.0003 </r>
       <r>     6.1371     3.7889    33.4468 </r>
       <r>     6.2550     4.6879    33.9994 </r>
       <r>     6.3729     2.5429    34.2991 </r>
       <r>     6.4907     5.9256    34.9975 </r>
       <r>     6.6086     0.0212    35.0000 </r>
       <r>     6.7264     0.0000    35.0000 </r>
       <r>     6.8443     0.0000    35.0000 </r>
       <r>     6.9622     0.9562    35.1127 </r>
       <r>     7.0800     7.3844    35.9831 </r>
       <r>     7.1979     0.1437    36.0000 </r>
       <r>     7.3158     0.0000    36.0000 </r>
       <r>     7.4336     0.0000    36.0000 </r>
       <r>     7.5515     0.0000    36.0000 </r>
       <r>     7.6694     0.0000    36.0000 </r>
       <r>     7.7872     0.0000    36.0000 </r>
       <r>     7.9051     0.0000    36.0000 </r>
       <r>     8.0229     0.0000    36.0000 </r>
       <r>     8.1408     0.0000    36.0000 </r>
       <r>     8.2587     0.0000    36.0000 </r>
       <r>     8.3765     0.0000    36.0000 </r>
       <r>     8.4944     0.0000    36.0000 </r>
       <r>     8.6123     0.0000    36.0000 </r>
      </set>
     </set>
    </array>
   </total>
   <partial>
    <array>
     <dimension dim="1">gridpoints</dimension>
     <dimension dim="2">spin</dimension>
     <dimension dim="3">ion</dimension>
     <field>energy</field>
     <field>    s</field>
     <field>   py</field>
     <field>   pz</field>
     <field>   px</field>
     <field>  dxy</field>
     <field>  dyz</field>
     <field>  dz2</field>
     <field>  dxz</field>
     <field>x2-y2</field>
     <set>
      <set comment="ion 1">
       <set comment="spin 1">
        <r>   -26.7467     0.0000     0.0000     0.0000     0.0000     0.0000     0.0000     0.0000     0.0000     0.0000 </r>
        <r>   -26.6289     0.0000     0.0000     0.0000     0.0000     0.0000     0.0000     0.0000     0.0000     0.0000 </r>
        <r>   -26.5110     0.0000     0.0000     0.0000     0.0000     0.0000     0.0000     0.0000     0.0000     0.0000 </r>
        <r>   -26.3932     0.0000     0.0000     0.0000     0.0000     0.0000     0.0000     0.0000     0.0000     0.0000 </r>
        <r>   -26.2753     0.0000     0.0000     0.0000     0.0000     0.0000     0.0000     0.0000     0.0000     0.0000 </r>
        <r>   -26.1574     0.0000     0.0000     0.0000     0.0000     0.0000     0.0000     0.0000     0.0000     0.0000 </r>
        <r>   -26.0396     0.0000     0.0000     0.0000     0.0000     0.0000     0.0000     0.0000     0.0000     0.0000 </r>
        <r>   -25.9217     0.0000     0.0000     0.0000     0.0000     0.0000     0.0000     0.0000     0.0000     0.0000 </r>
        <r>   -25.8038     0.0000     0.0000     0.0000     0.0000     0.0000     0.0000     0.0000     0.0000     0.0000 </r>
        <r>   -25.6860     0.0000     0.0000     0.0000     0.0000     0.0000     0.0000     0.0000     0.0000     0.0000 </r>
        <r>   -25.5681     0.0000     0.0000     0.0000     0.0000     0.0000     0.0000     0.0000     0.0000     0.0000 </r>
        <r>   -25.4503     0.0000     0.0000     0.0000     0.0000     0.0000     0.0000     0.0000     0.0000     0.0000 </r>
        <r>   -25.3324     0.0000     0.0000     0.0000     0.0000     0.0000     0.0000     0.0000     0.0000     0.0000 </r>
        <r>   -25.2145     0.1179     0.0000     0.0000     0.0000     0.0000     0.0000     0.0000     0.0000     0.0000 </r>
        <r>   -25.0967     6.0548     0.0000     0.0000     0.0000     0.0000     0.0000     0.0000     0.0000     0.0000 </r>
        <r>   -24.9788     0.7841     0.0000     0.0000     0.0000     0.0000     0.0000     0.0000     0.0000     0.0000 </r>
        <r>   -24.8609     0.0000     0.0000     0.0000     0.0000     0.0000     0.0000     0.0000     0.0000     0.0000 </r>
        <r>   -24.7431     0.0000     0.0000     0.0000     0.0000     0.0000     0.0000     0.0000     0.0000     0.0000 </r>
        <r>   -24.6252     0.0000     0.0000     0.0000     0.0000     0.0000     0.0000     0.0000     0.0000     0.0000 </r>
        <r>   -24.5073     0.0000     0.0000     0.0000     0.0000     0.0000     0.0000     0.0000     0.0000     0.0000 </r>
        <r>   -24.3895     0.0000     0.0000     0.0000     0.0000     0.0000     0.0000     0.0000     0.0000     0.0000 </r>
        <r>   -24.2716     0.0000     0.0000     0.0000     0.0000     0.0000     0.0000     0.0000     0.0000     0.0000 </r>
        <r>   -24.1538     0.0000     0.0000     0.0000     0.0000     0.0000     0.0000     0.0000     0.0000     0.0000 </r>
        <r>   -24.0359     0.0000     0.0000     0.0000     0.0000     0.0000     0.0000     0.0000     0.0000     0.0000 </r>
        <r>   -23.9180     0.0000     0.0000     0.0000     0.0000     0.0000     0.0000     0.0000     0.0000     0.0000 </r>
        <r>   -23.8002     0.0000     0.0000     0.0000     0.0000     0.0000     0.0000     0.0000     0.0000     0.0000 </r>
        <r>   -23.6823     0.0000     0.0000     0.0000     0.0000     0.0000     0.0000     0.0000     0.0000     0.0000 </r>
        <r>   -23.5644     0.0000     0.0000     0.0000     0.0000     0.0000     0.0000     0.0000     0.0000     0.0000 </r>
        <r>   -23.4466     0.0000     0.0000     0.0000     0.0000     0.0000     0.0000     0.0000     0.0000     0.0000 </r>
        <r>   -23.3287     0.0000     0.0000     0.0000     0.0000     0.0000     0.0000     0.0000     0.0000     0.0000 </r>
        <r>   -23.2108     0.0000     0.0000     0.0000     0.0000     0.0000     0.0000     0.0000     0.0000     0.0000 </r>
        <r>   -23.0930     0.0000     0.0000     0.0000     0.0000     0.0000     0.0000     0.0000     0.0000     0.0000 </r>
        <r>   -22.9751     0.0000     0.0000     0.0000     0.0000     0.0000     0.0000     0.0000     0.0000     0.0000 </r>
        <r>   -22.8573     0.0000     0.0000     0.0000     0.0000     0.0000     0.0000     0.0000     0.0000     0.0000 </r>
        <r>   -22.7394     0.0000     0.0000     0.0000     0.0000     0.0000     0.0000     0.0000     0.0000     0.0000 </r>
        <r>   -22.6215     0.0000     0.0000     0.0000     0.0000     0.0000     0.0000     0.0000     0.0000     0.0000 </r>
        <r>   -22.5037     0.0000     0.0000     0.0000     0.0000     0.0000     0.0000     0.0000     0.0000     0.0000 </r>
        <r>   -22.3858     0.0000     0.0000     0.0000     0.0000     0.0000     0.0000     0.0000     0.0000     0.0000 </r>
        <r>   -22.2679     0.0000     0.0000     0.0000     0.0000     0.0000     0.0000     0.0000     0.0000     0.0000 </r>
        <r>   -22.1501     0.0000     0.0000     0.0000     0.0000     0.0000     0.0000     0.0000     0.0000     0.0000 </r>
        <r>   -22.0322     0.0000     0.0000     0.0000     0.0000     0.0000     0.0000     0.0000     0.0000     0.0000 </r>
        <r>   -21.9144     0.0000     0.0000     0.0000     0.0000     0.0000     0.0000     0.0000     0.0000     0.0000 </r>
        <r>   -21.7965     0.0000     0.0000     0.0000     0.0000     0.0000     0.0000     0.0000     0.0000     0.0000 </r>
        <r>   -21.6786     0.0000     0.0000     0.0000     0.0000     0.0000     0.0000     0.0000     0.0000     0.0000 </r>
        <r>   -21.5608     0.0000     0.0000     0.0000     0.0000     0.0000     0.0000     0.0000     0.0000     0.0000 </r>
        <r>   -21.4429     0.0000     0.0000     0.0000     0.0000     0.0000     0.0000     0.0000     0.0000     0.0000 </r>
        <r>   -21.3250     0.0000     0.0000     0.0000     0.0000     0.0000     0.0000     0.0000     0.0000     0.0000 </r>
        <r>   -21.2072     0.0000     0.0000     0.0000     0.0000     0.0000     0.0000     0.0000     0.0000     0.0000 </r>
        <r>   -21.0893     0.0000     0.0000     0.0000     0.0000     0.0000     0.0000     0.0000     0.0000     0.0000 </r>
        <r>   -20.9714     0.0000     0.0000     0.0000     0.0000     0.0000     0.0000     0.0000     0.0000     0.0000 </r>
        <r>   -20.8536     0.0000     0.0000     0.0000     0.0000     0.0000     0.0000     0.0000     0.0000     0.0000 </r>
        <r>   -20.7357     0.0000     0.0000     0.0000     0.0000     0.0000     0.0000     0.0000     0.0000     0.0000 </r>
        <r>   -20.6179     0.0000     0.0000     0.0000     0.0000     0.0000     0.0000     0.0000     0.0000     0.0000 </r>
        <r>   -20.5000     0.0000     0.0000     0.0000     0.0000     0.0000     0.0000     0.0000     0.0000     0.0000 </r>
        <r>   -20.3821     0.0000     0.0000     0.0000     0.0000     0.0000     0.0000     0.0000     0.0000     0.0000 </r>
        <r>   -20.2643     0.0000     0.0000     0.0000     0.0000     0.0000     0.0000     0.0000     0.0000     0.0000 </r>
        <r>   -20.1464     0.0000     0.0000     0.0000     0.0000     0.0000     0.0000     0.0000     0.0000     0.0000 </r>
        <r>   -20.0285     0.0000     0.0000     0.0000     0.0000     0.0000     0.0000     0.0000     0.0000     0.0000 </r>
        <r>   -19.9107     0.0000     0.0000     0.0000     0.0000     0.0000     0.0000     0.0000     0.0000     0.0000 </r>
        <r>   -19.7928     0.0000     0.0000     0.0000     0.0000     0.0000     0.0000     0.0000     0.0000     0.0000 </r>
        <r>   -19.6749     0.0000     0.0000     0.0000     0.0000     0.0000     0.0000     0.0000     0.0000     0.0000 </r>
        <r>   -19.5571     0.0000     0.0000     0.0000     0.0000     0.0000     0.0000     0.0000     0.0000     0.0000 </r>
        <r>   -19.4392     0.0000     0.0000     0.0000     0.0000     0.0000     0.0000     0.0000     0.0000     0.0000 </r>
        <r>   -19.3214     0.0000     0.0000     0.0000     0.0000     0.0000     0.0000     0.0000     0.0000     0.0000 </r>
        <r>   -19.2035     0.0000     0.0000     0.0000     0.0000     0.0000     0.0000     0.0000     0.0000     0.0000 </r>
        <r>   -19.0856     0.0000     0.0000     0.0000     0.0000     0.0000     0.0000     0.0000     0.0000     0.0000 </r>
        <r>   -18.9678     0.0000     0.0000     0.0000     0.0000     0.0000     0.0000     0.0000     0.0000     0.0000 </r>
        <r>   -18.8499     0.0000     0.0000     0.0000     0.0000     0.0000     0.0000     0.0000     0.0000     0.0000 </r>
        <r>   -18.7320     0.0000     0.0000     0.0000     0.0000     0.0000     0.0000     0.0000     0.0000     0.0000 </r>
        <r>   -18.6142     0.0000     0.0000     0.0000     0.0000     0.0000     0.0000     0.0000     0.0000     0.0000 </r>
        <r>   -18.4963     0.0000     0.0000     0.0000     0.0000     0.0000     0.0000     0.0000     0.0000     0.0000 </r>
        <r>   -18.3785     0.0000     0.0000     0.0000     0.0000     0.0000     0.0000     0.0000     0.0000     0.0000 </r>
        <r>   -18.2606     0.0000     0.0000     0.0000     0.0000     0.0000     0.0000     0.0000     0.0000     0.0000 </r>
        <r>   -18.1427     0.0000     0.0000     0.0000     0.0000     0.0000     0.0000     0.0000     0.0000     0.0000 </r>
        <r>   -18.0249     0.0000     0.0000     0.0000     0.0000     0.0000     0.0000     0.0000     0.0000     0.0000 </r>
        <r>   -17.9070     0.0000     0.0000     0.0000     0.0000     0.0000     0.0000     0.0000     0.0000     0.0000 </r>
        <r>   -17.7891     0.0000     0.0000     0.0000     0.0000     0.0000     0.0000     0.0000     0.0000     0.0000 </r>
        <r>   -17.6713     0.0000     0.0000     0.0000     0.0000     0.0000     0.0000     0.0000     0.0000     0.0000 </r>
        <r>   -17.5534     0.0000     0.0000     0.0000     0.0000     0.0000     0.0000     0.0000     0.0000     0.0000 </r>
        <r>   -17.4355     0.0000     0.0000     0.0000     0.0000     0.0000     0.0000     0.0000     0.0000     0.0000 </r>
        <r>   -17.3177     0.0000     0.0000     0.0000     0.0000     0.0000     0.0000     0.0000     0.0000     0.0000 </r>
        <r>   -17.1998     0.0000     0.0000     0.0000     0.0000     0.0000     0.0000     0.0000     0.0000     0.0000 </r>
        <r>   -17.0820     0.0000     0.0000     0.0000     0.0000     0.0000     0.0000     0.0000     0.0000     0.0000 </r>
        <r>   -16.9641     0.0000     0.0000     0.0000     0.0000     0.0000     0.0000     0.0000     0.0000     0.0000 </r>
        <r>   -16.8462     0.0000     0.0000     0.0000     0.0000     0.0000     0.0000     0.0000     0.0000     0.0000 </r>
        <r>   -16.7284     0.0000     0.0000     0.0000     0.0000     0.0000     0.0000     0.0000     0.0000     0.0000 </r>
        <r>   -16.6105     0.0000     0.0000     0.0000     0.0000     0.0000     0.0000     0.0000     0.0000     0.0000 </r>
        <r>   -16.4926     0.0000     0.0000     0.0000     0.0000     0.0000     0.0000     0.0000     0.0000     0.0000 </r>
        <r>   -16.3748     0.0000     0.0000     0.0000     0.0000     0.0000     0.0000     0.0000     0.0000     0.0000 </r>
        <r>   -16.2569     0.0000     0.0000     0.0000     0.0000     0.0000     0.0000     0.0000     0.0000     0.0000 </r>
        <r>   -16.1390     0.0000     0.0000     0.0000     0.0000     0.0000     0.0000     0.0000     0.0000     0.0000 </r>
        <r>   -16.0212     0.0000     0.0000     0.0000     0.0000     0.0000     0.0000     0.0000     0.0000     0.0000 </r>
        <r>   -15.9033     0.0000     0.0000     0.0000     0.0000     0.0000     0.0000     0.0000     0.0000     0.0000 </r>
        <r>   -15.7855     0.0000     0.0000     0.0000     0.0000     0.0000     0.0000     0.0000     0.0000     0.0000 </r>
        <r>   -15.6676     0.0000     0.0000     0.0000     0.0000     0.0000     0.0000     0.0000     0.0000     0.0000 </r>
        <r>   -15.5497     0.0000     0.0000     0.0000     0.0000     0.0000     0.0000     0.0000     0.0000     0.0000 </r>
        <r>   -15.4319     0.0000     0.0000     0.0000     0.0000     0.0000     0.0000     0.0000     0.0000     0.0000 </r>
        <r>   -15.3140     0.0000     0.0000     0.0000     0.0000     0.0000     0.0000     0.0000     0.0000     0.0000 </r>
        <r>   -15.1961     0.0000     0.0000     0.0000     0.0000     0.0000     0.0000     0.0000     0.0000     0.0000 </r>
        <r>   -15.0783     0.0000     0.0000     0.0000     0.0000     0.0000     0.0000     0.0000     0.0000     0.0000 </r>
        <r>   -14.9604     0.0000     0.0000     0.0000     0.0000     0.0000     0.0000     0.0000     0.0000     0.0000 </r>
        <r>   -14.8425     0.0000     0.0000     0.0000     0.0000     0.0000     0.0000     0.0000     0.0000     0.0000 </r>
        <r>   -14.7247     0.0000     0.0000     0.0000     0.0000     0.0000     0.0000     0.0000     0.0000     0.0000 </r>
        <r>   -14.6068     0.0000     0.0000     0.0000     0.0000     0.0000     0.0000     0.0000     0.0000     0.0000 </r>
        <r>   -14.4890     0.0000     0.0000     0.0000     0.0000     0.0000     0.0000     0.0000     0.0000     0.0000 </r>
        <r>   -14.3711     0.0000     0.0000     0.0000     0.0000     0.0000     0.0000     0.0000     0.0000     0.0000 </r>
        <r>   -14.2532     0.0000     0.0000     0.0000     0.0000     0.0000     0.0000     0.0000     0.0000     0.0000 </r>
        <r>   -14.1354     0.0000     0.0000     0.0000     0.0000     0.0000     0.0000     0.0000     0.0000     0.0000 </r>
        <r>   -14.0175     0.0000     0.0000     0.0000     0.0000     0.0000     0.0000     0.0000     0.0000     0.0000 </r>
        <r>   -13.8996     0.0000     0.0000     0.0000     0.0000     0.0000     0.0000     0.0000     0.0000     0.0000 </r>
        <r>   -13.7818     0.0000     0.0000     0.0000     0.0000     0.0000     0.0000     0.0000     0.0000     0.0000 </r>
        <r>   -13.6639     0.0000     0.0000     0.0000     0.0000     0.0000     0.0000     0.0000     0.0000     0.0000 </r>
        <r>   -13.5461     0.0000     0.0000     0.0000     0.0000     0.0000     0.0000     0.0000     0.0000     0.0000 </r>
        <r>   -13.4282     0.0000     0.0000     0.0000     0.0000     0.0000     0.0000     0.0000     0.0000     0.0000 </r>
        <r>   -13.3103     0.0000     0.0000     0.0000     0.0000     0.0000     0.0000     0.0000     0.0000     0.0000 </r>
        <r>   -13.1925     0.0000     0.0000     0.0000     0.0000     0.0000     0.0000     0.0000     0.0000     0.0000 </r>
        <r>   -13.0746     0.0000     0.0000     0.0000     0.0000     0.0000     0.0000     0.0000     0.0000     0.0000 </r>
        <r>   -12.9567     0.0000     0.0000     0.0000     0.0000     0.0000     0.0000     0.0000     0.0000     0.0000 </r>
        <r>   -12.8389     0.0000     0.0000     0.0000     0.0000     0.0000     0.0000     0.0000     0.0000     0.0000 </r>
        <r>   -12.7210     0.0000     0.0000     0.0000     0.0000     0.0000     0.0000     0.0000     0.0000     0.0000 </r>
        <r>   -12.6031     0.0000     0.0000     0.0000     0.0000     0.0000     0.0000     0.0000     0.0000     0.0000 </r>
        <r>   -12.4853     0.0000     0.0000     0.0000     0.0000     0.0000     0.0000     0.0000     0.0000     0.0000 </r>
        <r>   -12.3674     0.0000     0.0000     0.0000     0.0000     0.0000     0.0000     0.0000     0.0000     0.0000 </r>
        <r>   -12.2496     0.0000     0.0000     0.0000     0.0000     0.0000     0.0000     0.0000     0.0000     0.0000 </r>
        <r>   -12.1317     0.0000     0.0000     0.0000     0.0000     0.0000     0.0000     0.0000     0.0000     0.0000 </r>
        <r>   -12.0138     0.0000     0.0000     0.0000     0.0000     0.0000     0.0000     0.0000     0.0000     0.0000 </r>
        <r>   -11.8960     0.0000     0.0000     0.0000     0.0000     0.0000     0.0000     0.0000     0.0000     0.0000 </r>
        <r>   -11.7781     0.0000     0.0000     0.0000     0.0000     0.0000     0.0000     0.0000     0.0000     0.0000 </r>
        <r>   -11.6602     0.0000     0.0000     0.0000     0.0000     0.0000     0.0000     0.0000     0.0000     0.0000 </r>
        <r>   -11.5424     0.0000     0.0000     0.0000     0.0000     0.0000     0.0000     0.0000     0.0000     0.0000 </r>
        <r>   -11.4245     0.0000     0.0000     0.0000     0.0000     0.0000     0.0000     0.0000     0.0000     0.0000 </r>
        <r>   -11.3066     0.0000     0.0000     0.0000     0.0000     0.0000     0.0000     0.0000     0.0000     0.0000 </r>
        <r>   -11.1888     0.0000     0.0000     0.0000     0.0000     0.0000     0.0000     0.0000     0.0000     0.0000 </r>
        <r>   -11.0709     0.0000     0.0000     0.0000     0.0000     0.0000     0.0000     0.0000     0.0000     0.0000 </r>
        <r>   -10.9531     0.0000     0.0000     0.0000     0.0000     0.0000     0.0000     0.0000     0.0000     0.0000 </r>
        <r>   -10.8352     0.0000     0.0000     0.0000     0.0000     0.0000     0.0000     0.0000     0.0000     0.0000 </r>
        <r>   -10.7173     0.0000     0.0000     0.0000     0.0000     0.0000     0.0000     0.0000     0.0000     0.0000 </r>
        <r>   -10.5995     0.0000     0.0000     0.0000     0.0000     0.0000     0.0000     0.0000     0.0000     0.0000 </r>
        <r>   -10.4816     0.0000     0.0000     0.0000     0.0000     0.0000     0.0000     0.0000     0.0000     0.0000 </r>
        <r>   -10.3637     0.0000     0.0000     0.0000     0.0000     0.0000     0.0000     0.0000     0.0000     0.0000 </r>
        <r>   -10.2459     0.0000     0.0097     0.0097     0.0097     0.0000     0.0000     0.0000     0.0000     0.0000 </r>
        <r>   -10.1280     0.0000     4.0578     4.0578     4.0578     0.0000     0.0000     0.0000     0.0000     0.0000 </r>
        <r>   -10.0102     0.0000     2.2341     2.2341     2.2341     0.0000     0.0000     0.0000     0.0000     0.0000 </r>
        <r>    -9.8923     0.0000     0.0007     0.0007     0.0007     0.0000     0.0000     0.0000     0.0000     0.0000 </r>
        <r>    -9.7744     0.0000     0.0000     0.0000     0.0000     0.0000     0.0000     0.0000     0.0000     0.0000 </r>
        <r>    -9.6566     0.0000     0.0000     0.0000     0.0000     0.0000     0.0000     0.0000     0.0000     0.0000 </r>
        <r>    -9.5387     0.0000     0.0000     0.0000     0.0000     0.0000     0.0000     0.0000     0.0000     0.0000 </r>
        <r>    -9.4208     0.0000     0.0000     0.0000     0.0000     0.0000     0.0000     0.0000     0.0000     0.0000 </r>
        <r>    -9.3030     0.0000     0.0000     0.0000     0.0000     0.0000     0.0000     0.0000     0.0000     0.0000 </r>
        <r>    -9.1851     0.0000     0.0000     0.0000     0.0000     0.0000     0.0000     0.0000     0.0000     0.0000 </r>
        <r>    -9.0672     0.0000     0.0000     0.0000     0.0000     0.0000     0.0000     0.0000     0.0000     0.0000 </r>
        <r>    -8.9494     0.0000     0.0000     0.0000     0.0000     0.0000     0.0000     0.0000     0.0000     0.0000 </r>
        <r>    -8.8315     0.0000     0.0000     0.0000     0.0000     0.0000     0.0000     0.0000     0.0000     0.0000 </r>
        <r>    -8.7137     0.0000     0.0000     0.0000     0.0000     0.0000     0.0000     0.0000     0.0000     0.0000 </r>
        <r>    -8.5958     0.0000     0.0000     0.0000     0.0000     0.0000     0.0000     0.0000     0.0000     0.0000 </r>
        <r>    -8.4779     0.0000     0.0000     0.0000     0.0000     0.0000     0.0000     0.0000     0.0000     0.0000 </r>
        <r>    -8.3601     0.0000     0.0000     0.0000     0.0000     0.0000     0.0000     0.0000     0.0000     0.0000 </r>
        <r>    -8.2422     0.0000     0.0000     0.0000     0.0000     0.0000     0.0000     0.0000     0.0000     0.0000 </r>
        <r>    -8.1243     0.0000     0.0000     0.0000     0.0000     0.0000     0.0000     0.0000     0.0000     0.0000 </r>
        <r>    -8.0065     0.0000     0.0000     0.0000     0.0000     0.0000     0.0000     0.0000     0.0000     0.0000 </r>
        <r>    -7.8886     0.0000     0.0000     0.0000     0.0000     0.0000     0.0000     0.0000     0.0000     0.0000 </r>
        <r>    -7.7707     0.0000     0.0000     0.0000     0.0000     0.0000     0.0000     0.0000     0.0000     0.0000 </r>
        <r>    -7.6529     0.0000     0.0000     0.0000     0.0000     0.0000     0.0000     0.0000     0.0000     0.0000 </r>
        <r>    -7.5350     0.0000     0.0000     0.0000     0.0000     0.0000     0.0000     0.0000     0.0000     0.0000 </r>
        <r>    -7.4172     0.0000     0.0000     0.0000     0.0000     0.0000     0.0000     0.0000     0.0000     0.0000 </r>
        <r>    -7.2993     0.0000     0.0000     0.0000     0.0000     0.0000     0.0000     0.0000     0.0000     0.0000 </r>
        <r>    -7.1814     0.0000     0.0000     0.0000     0.0000     0.0000     0.0000     0.0000     0.0000     0.0000 </r>
        <r>    -7.0636     0.0000     0.0000     0.0000     0.0000     0.0000     0.0000     0.0000     0.0000     0.0000 </r>
        <r>    -6.9457     0.0000     0.0000     0.0000     0.0000     0.0000     0.0000     0.0000     0.0000     0.0000 </r>
        <r>    -6.8278     0.0000     0.0000     0.0000     0.0000     0.0000     0.0000     0.0000     0.0000     0.0000 </r>
        <r>    -6.7100     0.0000     0.0000     0.0000     0.0000     0.0000     0.0000     0.0000     0.0000     0.0000 </r>
        <r>    -6.5921     0.0000     0.0000     0.0000     0.0000     0.0000     0.0000     0.0000     0.0000     0.0000 </r>
        <r>    -6.4743     0.0000     0.0000     0.0000     0.0000     0.0000     0.0000     0.0000     0.0000     0.0000 </r>
        <r>    -6.3564     0.0000     0.0000     0.0000     0.0000     0.0000     0.0000     0.0000     0.0000     0.0000 </r>
        <r>    -6.2385     0.0000     0.0000     0.0000     0.0000     0.0000     0.0000     0.0000     0.0000     0.0000 </r>
        <r>    -6.1207     0.0000     0.0000     0.0000     0.0000     0.0000     0.0000     0.0000     0.0000     0.0000 </r>
        <r>    -6.0028     0.0000     0.0000     0.0000     0.0000     0.0000     0.0000     0.0000     0.0000     0.0000 </r>
        <r>    -5.8849     0.0000     0.0000     0.0000     0.0000     0.0000     0.0000     0.0000     0.0000     0.0000 </r>
        <r>    -5.7671     0.0000     0.0000     0.0000     0.0000     0.0000     0.0000     0.0000     0.0000     0.0000 </r>
        <r>    -5.6492     0.0000     0.0000     0.0000     0.0000     0.0000     0.0000     0.0000     0.0000     0.0000 </r>
        <r>    -5.5313     0.0000     0.0000     0.0000     0.0000     0.0000     0.0000     0.0000     0.0000     0.0000 </r>
        <r>    -5.4135     0.0000     0.0000     0.0000     0.0000     0.0000     0.0000     0.0000     0.0000     0.0000 </r>
        <r>    -5.2956     0.0000     0.0000     0.0000     0.0000     0.0000     0.0000     0.0000     0.0000     0.0000 </r>
        <r>    -5.1778     0.0000     0.0000     0.0000     0.0000     0.0000     0.0000     0.0000     0.0000     0.0000 </r>
        <r>    -5.0599     0.0000     0.0000     0.0000     0.0000     0.0000     0.0000     0.0000     0.0000     0.0000 </r>
        <r>    -4.9420     0.0000     0.0000     0.0000     0.0000     0.0000     0.0000     0.0000     0.0000     0.0000 </r>
[...]
        <r>     3.3084     0.0000     0.0000     0.0000     0.0000     0.0000     0.0000     0.0000     0.0000     0.0000 </r>
        <r>     3.4263     0.0000     0.0000     0.0000     0.0000     0.0000     0.0000     0.0000     0.0000     0.0000 </r>
        <r>     3.5441     0.0000     0.0000     0.0000     0.0000     0.0000     0.0000     0.0000     0.0000     0.0000 </r>
        <r>     3.6620     0.0000     0.0000     0.0000     0.0000     0.0000     0.0000     0.0000     0.0000     0.0000 </r>
        <r>     3.7799     0.0000     0.0000     0.0000     0.0000     0.0000     0.0000     0.0000     0.0000     0.0000 </r>
        <r>     3.8977     0.0000     0.0000     0.0000     0.0000     0.0000     0.0000     0.0000     0.0000     0.0000 </r>
        <r>     4.0156     0.0000     0.0000     0.0000     0.0000     0.0000     0.0000     0.0000     0.0000     0.0000 </r>
        <r>     4.1335     0.0000     0.0000     0.0000     0.0000     0.0000     0.0000     0.0000     0.0000     0.0000 </r>
        <r>     4.2513     0.0004     0.0010     0.0003     0.0007     0.0000     0.0000     0.0000     0.0000     0.0000 </r>
        <r>     4.3692     0.0015     0.0231     0.0184     0.0319     0.0000     0.0000     0.0000     0.0000     0.0000 </r>
        <r>     4.4870     0.0146     0.0060     0.0493     0.0338     0.0000     0.0000     0.0000     0.0000     0.0000 </r>
        <r>     4.6049     0.0282     0.0020     0.0027     0.0022     0.0000     0.0000     0.0000     0.0000     0.0000 </r>
        <r>     4.7228     0.0001     0.0247     0.0016     0.0039     0.0000     0.0000     0.0000     0.0000     0.0000 </r>
        <r>     4.8406     0.0000     0.0038     0.0002     0.0006     0.0000     0.0000     0.0000     0.0000     0.0000 </r>
        <r>     4.9585     0.0000     0.0000     0.0000     0.0000     0.0000     0.0000     0.0000     0.0000     0.0000 </r>
        <r>     5.0764     0.0000     0.0000     0.0000     0.0000     0.0000     0.0000     0.0000     0.0000     0.0000 </r>
        <r>     5.1942     0.0000     0.0000     0.0000     0.0000     0.0000     0.0000     0.0000     0.0000     0.0000 </r>
        <r>     5.3121     0.0000     0.0000     0.0000     0.0000     0.0000     0.0000     0.0000     0.0000     0.0000 </r>
        <r>     5.4299     0.0000     0.0000     0.0002     0.0004     0.0000     0.0000     0.0000     0.0000     0.0000 </r>
        <r>     5.5478     0.0000     0.0001     0.0006     0.0015     0.0000     0.0000     0.0000     0.0000     0.0000 </r>
        <r>     5.6657     0.0051     0.0002     0.0053     0.0002     0.0000     0.0000     0.0000     0.0000     0.0000 </r>
        <r>     5.7835     0.0015     0.0001     0.0016     0.0001     0.0000     0.0000     0.0000     0.0000     0.0000 </r>
        <r>     5.9014     0.0000     0.0000     0.0000     0.0000     0.0000     0.0000     0.0000     0.0000     0.0000 </r>
        <r>     6.0193     0.0000     0.0000     0.0000     0.0000     0.0000     0.0000     0.0000     0.0000     0.0000 </r>
        <r>     6.1371     0.0007     0.0000     0.0066     0.0171     0.0000     0.0000     0.0000     0.0000     0.0000 </r>
        <r>     6.2550     0.0009     0.0000     0.0082     0.0212     0.0000     0.0000     0.0000     0.0000     0.0000 </r>
        <r>     6.3729     0.0016     0.0002     0.0003     0.0002     0.0000     0.0000     0.0000     0.0000     0.0000 </r>
        <r>     6.4907     0.0036     0.0005     0.0007     0.0004     0.0000     0.0000     0.0000     0.0000     0.0000 </r>
        <r>     6.6086     0.0000     0.0000     0.0000     0.0000     0.0000     0.0000     0.0000     0.0000     0.0000 </r>
        <r>     6.7264     0.0000     0.0000     0.0000     0.0000     0.0000     0.0000     0.0000     0.0000     0.0000 </r>
        <r>     6.8443     0.0000     0.0000     0.0000     0.0000     0.0000     0.0000     0.0000     0.0000     0.0000 </r>
        <r>     6.9622     0.0006     0.0000     0.0004     0.0003     0.0000     0.0000     0.0000     0.0000     0.0000 </r>
        <r>     7.0800     0.0043     0.0002     0.0032     0.0019     0.0000     0.0000     0.0000     0.0000     0.0000 </r>
        <r>     7.1979     0.0001     0.0000     0.0001     0.0000     0.0000     0.0000     0.0000     0.0000     0.0000 </r>
        <r>     7.3158     0.0000     0.0000     0.0000     0.0000     0.0000     0.0000     0.0000     0.0000     0.0000 </r>
        <r>     7.4336     0.0000     0.0000     0.0000     0.0000     0.0000     0.0000     0.0000     0.0000     0.0000 </r>
        <r>     7.5515     0.0000     0.0000     0.0000     0.0000     0.0000     0.0000     0.0000     0.0000     0.0000 </r>
        <r>     7.6694     0.0000     0.0000     0.0000     0.0000     0.0000     0.0000     0.0000     0.0000     0.0000 </r>
        <r>     7.7872     0.0000     0.0000     0.0000     0.0000     0.0000     0.0000     0.0000     0.0000     0.0000 </r>
        <r>     7.9051     0.0000     0.0000     0.0000     0.0000     0.0000     0.0000     0.0000     0.0000     0.0000 </r>
        <r>     8.0229     0.0000     0.0000     0.0000     0.0000     0.0000     0.0000     0.0000     0.0000     0.0000 </r>
        <r>     8.1408     0.0000     0.0000     0.0000     0.0000     0.0000     0.0000     0.0000     0.0000     0.0000 </r>
        <r>     8.2587     0.0000     0.0000     0.0000     0.0000     0.0000     0.0000     0.0000     0.0000     0.0000 </r>
        <r>     8.3765     0.0000     0.0000     0.0000     0.0000     0.0000     0.0000     0.0000     0.0000     0.0000 </r>
        <r>     8.4944     0.0000     0.0000     0.0000     0.0000     0.0000     0.0000     0.0000     0.0000     0.0000 </r>
        <r>     8.6123     0.0000     0.0000     0.0000     0.0000     0.0000     0.0000     0.0000     0.0000     0.0000 </r>
       </set>
      </set>
     </set>
    </array>
   </partial>
  </dos>
  <projected>
   <eigenvalues>
    <array>
     <dimension dim="1">band</dimension>
     <dimension dim="2">kpoint</dimension>
     <dimension dim="3">spin</dimension>
     <field>eigene</field>
     <field>occ</field>
     <set>
      <set comment="spin 1">
       <set comment="kpoint 1">
        <r>  -25.1395    1.0000 </r>
        <r>  -10.1412    1.0000 </r>
        <r>  -10.1412    1.0000 </r>
        <r>  -10.1412    1.0000 </r>
        <r>   -0.3826    0.0000 </r>
        <r>    1.0141    0.0000 </r>
        <r>    1.1760    0.0000 </r>
        <r>    1.1766    0.0000 </r>
        <r>    1.1795    0.0000 </r>
        <r>    1.3974    0.0000 </r>
        <r>    1.3974    0.0000 </r>
        <r>    2.6349    0.0000 </r>
        <r>    2.6556    0.0000 </r>
        <r>    2.6718    0.0000 </r>
        <r>    2.6726    0.0000 </r>
        <r>    2.6921    0.0000 </r>
        <r>    2.7160    0.0000 </r>
        <r>    2.7215    0.0000 </r>
        <r>    2.8602    0.0000 </r>
        <r>    2.8863    0.0000 </r>
        <r>    2.8877    0.0000 </r>
        <r>    2.9071    0.0000 </r>
        <r>    2.9482    0.0000 </r>
        <r>    4.2141    0.0000 </r>
        <r>    4.2251    0.0000 </r>
        <r>    4.2263    0.0000 </r>
        <r>    4.3102    0.0000 </r>
        <r>    4.4195    0.0000 </r>
        <r>    4.4222    0.0000 </r>
        <r>    4.4636    0.0000 </r>
        <r>    4.5396    0.0000 </r>
        <r>    5.3639    0.0000 </r>
        <r>    5.4742    0.0000 </r>
        <r>    6.0599    0.0000 </r>
        <r>    6.8891    0.0000 </r>
        <r>    6.9419    0.0000 </r>
       </set>
      </set>
      <set comment="spin 2">
       <set comment="kpoint 1">
        <r>  -21.8923    1.0000 </r>
        <r>   -7.1080    0.3333 </r>
        <r>   -7.1080    0.3333 </r>
        <r>   -7.1080    0.3333 </r>
        <r>   -0.3011    0.0000 </r>
        <r>    1.1421    0.0000 </r>
        <r>    1.2413    0.0000 </r>
        <r>    1.2423    0.0000 </r>
        <r>    1.2425    0.0000 </r>
        <r>    1.3821    0.0000 </r>
        <r>    1.3827    0.0000 </r>
        <r>    2.7022    0.0000 </r>
        <r>    2.7034    0.0000 </r>
        <r>    2.7069    0.0000 </r>
        <r>    2.7070    0.0000 </r>
        <r>    2.7084    0.0000 </r>
        <r>    2.7095    0.0000 </r>
        <r>    2.8291    0.0000 </r>
        <r>    2.8683    0.0000 </r>
        <r>    2.8733    0.0000 </r>
        <r>    2.9076    0.0000 </r>
        <r>    2.9078    0.0000 </r>
        <r>    2.9301    0.0000 </r>
        <r>    4.2308    0.0000 </r>
        <r>    4.2318    0.0000 </r>
        <r>    4.2328    0.0000 </r>
        <r>    4.3326    0.0000 </r>
        <r>    4.3546    0.0000 </r>
        <r>    4.4297    0.0000 </r>
        <r>    4.5025    0.0000 </r>
        <r>    4.6834    0.0000 </r>
        <r>    5.4571    0.0000 </r>
        <r>    5.6392    0.0000 </r>
        <r>    6.1419    0.0000 </r>
        <r>    6.3915    0.0000 </r>
        <r>    7.0050    0.0000 </r>
       </set>
      </set>
     </set>
    </array>
   </eigenvalues>
   <array>
    <dimension dim="1">ion</dimension>
    <dimension dim="2">band</dimension>
    <dimension dim="3">kpoint</dimension>
    <dimension dim="4">spin</dimension>
    <field>    s</field>
    <field>   py</field>
    <field>   pz</field>
    <field>   px</field>
    <field>  dxy</field>
    <field>  dyz</field>
    <field>  dz2</field>
    <field>  dxz</field>
    <field>x2-y2</field>
    <set>
     <set comment="spin1">
      <set comment="kpoint 1">
       <set comment="band 1">
        <r>  0.8200  0.0000  0.0000  0.0000  0.0000  0.0000  0.0000  0.0000  0.0000 </r>
       </set>
       <set comment="band 2">
        <r>  0.0000  0.4240  0.3113  0.0075  0.0000  0.0000  0.0000  0.0000  0.0000 </r>
       </set>
       <set comment="band 3">
        <r>  0.0000  0.3162  0.4261  0.0005  0.0000  0.0000  0.0000  0.0000  0.0000 </r>
       </set>
       <set comment="band 4">
        <r>  0.0000  0.0026  0.0054  0.7348  0.0000  0.0000  0.0000  0.0000  0.0000 </r>
       </set>
       <set comment="band 5">
        <r>  0.0083  0.0000  0.0000  0.0000  0.0000  0.0000  0.0000  0.0000  0.0000 </r>
       </set>
       <set comment="band 6">
        <r>  0.0113  0.0000  0.0000  0.0000  0.0000  0.0000  0.0000  0.0000  0.0000 </r>
       </set>
       <set comment="band 7">
        <r>  0.0000  0.0016  0.0050  0.0039  0.0000  0.0000  0.0000  0.0000  0.0000 </r>
       </set>
       <set comment="band 8">
        <r>  0.0000  0.0069  0.0000  0.0035  0.0000  0.0000  0.0000  0.0000  0.0000 </r>
       </set>
       <set comment="band 9">
        <r>  0.0000  0.0021  0.0051  0.0037  0.0000  0.0000  0.0000  0.0000  0.0000 </r>
       </set>
       <set comment="band 10">
        <r>  0.0000  0.0000  0.0000  0.0000  0.0000  0.0000  0.0000  0.0000  0.0000 </r>
       </set>
       <set comment="band 11">
        <r>  0.0000  0.0000  0.0000  0.0000  0.0000  0.0000  0.0000  0.0000  0.0000 </r>
       </set>
       <set comment="band 12">
        <r>  0.0008  0.0058  0.0028  0.0001  0.0000  0.0000  0.0000  0.0000  0.0000 </r>
       </set>
       <set comment="band 13">
        <r>  0.0000  0.0006  0.0013  0.0032  0.0000  0.0000  0.0000  0.0000  0.0000 </r>
       </set>
       <set comment="band 14">
        <r>  0.0000  0.0031  0.0069  0.0002  0.0000  0.0000  0.0000  0.0000  0.0000 </r>
       </set>
       <set comment="band 15">
        <r>  0.0000  0.0019  0.0001  0.0015  0.0000  0.0000  0.0000  0.0000  0.0000 </r>
       </set>
       <set comment="band 16">
        <r>  0.0000  0.0009  0.0001  0.0005  0.0000  0.0000  0.0000  0.0000  0.0000 </r>
       </set>
       <set comment="band 17">
        <r>  0.0039  0.0000  0.0000  0.0036  0.0000  0.0000  0.0000  0.0000  0.0000 </r>
       </set>
       <set comment="band 18">
        <r>  0.0051  0.0004  0.0008  0.0025  0.0000  0.0000  0.0000  0.0000  0.0000 </r>
       </set>
       <set comment="band 19">
        <r>  0.0000  0.0005  0.0007  0.0000  0.0000  0.0000  0.0000  0.0000  0.0000 </r>
       </set>
       <set comment="band 20">
        <r>  0.0000  0.0000  0.0000  0.0001  0.0000  0.0000  0.0000  0.0000  0.0000 </r>
       </set>
       <set comment="band 21">
        <r>  0.0000  0.0004  0.0007  0.0015  0.0000  0.0000  0.0000  0.0000  0.0000 </r>
       </set>
       <set comment="band 22">
        <r>  0.0000  0.0005  0.0007  0.0001  0.0000  0.0000  0.0000  0.0000  0.0000 </r>
       </set>
       <set comment="band 23">
        <r>  0.0000  0.0001  0.0005  0.0000  0.0000  0.0000  0.0000  0.0000  0.0000 </r>
       </set>
       <set comment="band 24">
        <r>  0.0001  0.0000  0.0000  0.0000  0.0000  0.0000  0.0000  0.0000  0.0000 </r>
       </set>
       <set comment="band 25">
        <r>  0.0000  0.0001  0.0000  0.0001  0.0000  0.0000  0.0000  0.0000  0.0000 </r>
       </set>
       <set comment="band 26">
        <r>  0.0000  0.0000  0.0000  0.0000  0.0000  0.0000  0.0000  0.0000  0.0000 </r>
       </set>
       <set comment="band 27">
        <r>  0.0001  0.0001  0.0004  0.0058  0.0000  0.0000  0.0000  0.0000  0.0000 </r>
       </set>
       <set comment="band 28">
        <r>  0.0001  0.0005  0.0046  0.0000  0.0000  0.0000  0.0000  0.0000  0.0000 </r>
       </set>
       <set comment="band 29">
        <r>  0.0000  0.0054  0.0002  0.0004  0.0000  0.0000  0.0000  0.0000  0.0000 </r>
       </set>
       <set comment="band 30">
        <r>  0.0045  0.0000  0.0002  0.0002  0.0000  0.0000  0.0000  0.0000  0.0000 </r>
       </set>
       <set comment="band 31">
        <r>  0.0001  0.0002  0.0003  0.0008  0.0000  0.0000  0.0000  0.0000  0.0000 </r>
       </set>
       <set comment="band 32">
        <r>  0.0001  0.0000  0.0000  0.0000  0.0000  0.0000  0.0000  0.0000  0.0000 </r>
       </set>
       <set comment="band 33">
        <r>  0.0011  0.0001  0.0002  0.0002  0.0000  0.0000  0.0000  0.0000  0.0000 </r>
       </set>
       <set comment="band 34">
        <r>  0.0003  0.0008  0.0003  0.0000  0.0000  0.0000  0.0000  0.0000  0.0000 </r>
       </set>
       <set comment="band 35">
        <r>  0.0003  0.0014  0.0002  0.0000  0.0000  0.0000  0.0000  0.0000  0.0000 </r>
       </set>
       <set comment="band 36">
        <r>  0.0004  0.0002  0.0000  0.0004  0.0000  0.0000  0.0000  0.0000  0.0000 </r>
       </set>
      </set>
     </set>
     <set comment="spin2">
      <set comment="kpoint 1">
       <set comment="band 1">
        <r>  0.8059  0.0000  0.0000  0.0000  0.0000  0.0000  0.0000  0.0000  0.0000 </r>
       </set>
       <set comment="band 2">
        <r>  0.0000  0.0022  0.0981  0.5944  0.0000  0.0000  0.0000  0.0000  0.0000 </r>
       </set>
       <set comment="band 3">
        <r>  0.0000  0.3179  0.3091  0.0676  0.0000  0.0000  0.0000  0.0000  0.0000 </r>
       </set>
       <set comment="band 4">
        <r>  0.0000  0.3745  0.2874  0.0327  0.0000  0.0000  0.0000  0.0000  0.0000 </r>
       </set>
       <set comment="band 5">
        <r>  0.0067  0.0000  0.0000  0.0000  0.0000  0.0000  0.0000  0.0000  0.0000 </r>
       </set>
       <set comment="band 6">
        <r>  0.0114  0.0000  0.0000  0.0000  0.0000  0.0000  0.0000  0.0000  0.0000 </r>
       </set>
       <set comment="band 7">
        <r>  0.0000  0.0000  0.0070  0.0051  0.0000  0.0000  0.0000  0.0000  0.0000 </r>
       </set>
       <set comment="band 8">
        <r>  0.0000  0.0064  0.0020  0.0035  0.0000  0.0000  0.0000  0.0000  0.0000 </r>
       </set>
       <set comment="band 9">
        <r>  0.0000  0.0056  0.0027  0.0037  0.0000  0.0000  0.0000  0.0000  0.0000 </r>
       </set>
       <set comment="band 10">
        <r>  0.0000  0.0000  0.0000  0.0000  0.0000  0.0000  0.0000  0.0000  0.0000 </r>
       </set>
       <set comment="band 11">
        <r>  0.0000  0.0000  0.0000  0.0000  0.0000  0.0000  0.0000  0.0000  0.0000 </r>
       </set>
       <set comment="band 12">
        <r>  0.0005  0.0001  0.0041  0.0111  0.0000  0.0000  0.0000  0.0000  0.0000 </r>
       </set>
       <set comment="band 13">
        <r>  0.0000  0.0023  0.0091  0.0044  0.0000  0.0000  0.0000  0.0000  0.0000 </r>
       </set>
       <set comment="band 14">
        <r>  0.0000  0.0000  0.0001  0.0000  0.0000  0.0000  0.0000  0.0000  0.0000 </r>
       </set>
       <set comment="band 15">
        <r>  0.0000  0.0000  0.0000  0.0000  0.0000  0.0000  0.0000  0.0000  0.0000 </r>
       </set>
       <set comment="band 16">
        <r>  0.0000  0.0149  0.0006  0.0004  0.0000  0.0000  0.0000  0.0000  0.0000 </r>
       </set>
       <set comment="band 17">
        <r>  0.0000  0.0000  0.0002  0.0000  0.0000  0.0000  0.0000  0.0000  0.0000 </r>
       </set>
       <set comment="band 18">
        <r>  0.0015  0.0013  0.0031  0.0002  0.0000  0.0000  0.0000  0.0000  0.0000 </r>
       </set>
       <set comment="band 19">
        <r>  0.0069  0.0004  0.0003  0.0002  0.0000  0.0000  0.0000  0.0000  0.0000 </r>
       </set>
       <set comment="band 20">
        <r>  0.0018  0.0000  0.0000  0.0006  0.0000  0.0000  0.0000  0.0000  0.0000 </r>
       </set>
       <set comment="band 21">
        <r>  0.0000  0.0000  0.0001  0.0009  0.0000  0.0000  0.0000  0.0000  0.0000 </r>
       </set>
       <set comment="band 22">
        <r>  0.0000  0.0000  0.0007  0.0002  0.0000  0.0000  0.0000  0.0000  0.0000 </r>
       </set>
       <set comment="band 23">
        <r>  0.0000  0.0000  0.0000  0.0000  0.0000  0.0000  0.0000  0.0000  0.0000 </r>
       </set>
       <set comment="band 24">
        <r>  0.0000  0.0000  0.0000  0.0000  0.0000  0.0000  0.0000  0.0000  0.0000 </r>
       </set>
       <set comment="band 25">
        <r>  0.0000  0.0001  0.0000  0.0001  0.0000  0.0000  0.0000  0.0000  0.0000 </r>
       </set>
       <set comment="band 26">
        <r>  0.0000  0.0000  0.0000  0.0000  0.0000  0.0000  0.0000  0.0000  0.0000 </r>
       </set>
       <set comment="band 27">
        <r>  0.0001  0.0032  0.0017  0.0005  0.0000  0.0000  0.0000  0.0000  0.0000 </r>
       </set>
       <set comment="band 28">
        <r>  0.0001  0.0000  0.0008  0.0049  0.0000  0.0000  0.0000  0.0000  0.0000 </r>
       </set>
       <set comment="band 29">
        <r>  0.0000  0.0001  0.0059  0.0024  0.0000  0.0000  0.0000  0.0000  0.0000 </r>
       </set>
       <set comment="band 30">
        <r>  0.0050  0.0003  0.0000  0.0002  0.0000  0.0000  0.0000  0.0000  0.0000 </r>
       </set>
       <set comment="band 31">
        <r>  0.0000  0.0034  0.0002  0.0005  0.0000  0.0000  0.0000  0.0000  0.0000 </r>
       </set>
       <set comment="band 32">
        <r>  0.0000  0.0000  0.0001  0.0002  0.0000  0.0000  0.0000  0.0000  0.0000 </r>
       </set>
       <set comment="band 33">
        <r>  0.0008  0.0000  0.0008  0.0000  0.0000  0.0000  0.0000  0.0000  0.0000 </r>
       </set>
       <set comment="band 34">
        <r>  0.0002  0.0000  0.0018  0.0045  0.0000  0.0000  0.0000  0.0000  0.0000 </r>
       </set>
       <set comment="band 35">
        <r>  0.0006  0.0001  0.0001  0.0001  0.0000  0.0000  0.0000  0.0000  0.0000 </r>
       </set>
       <set comment="band 36">
        <r>  0.0006  0.0000  0.0004  0.0003  0.0000  0.0000  0.0000  0.0000  0.0000 </r>
       </set>
      </set>
     </set>
    </set>
   </array>
  </projected>
 </calculation>
 <structure name="finalpos" >
  <crystal>
   <varray name="basis" >
    <v>      10.00000000       0.00000000       0.00000000 </v>
    <v>       0.00000000      10.00000000       0.00000000 </v>
    <v>       0.00000000       0.00000000      10.00000000 </v>
   </varray>
   <i name="volume">   1000.00000000 </i>
   <varray name="rec_basis" >
    <v>       0.10000000       0.00000000       0.00000000 </v>
    <v>       0.00000000       0.10000000       0.00000000 </v>
    <v>       0.00000000       0.00000000       0.10000000 </v>
   </varray>
  </crystal>
  <varray name="positions" >
   <v>       0.50000000       0.50000000       0.50000000 </v>
  </varray>
 </structure>
</modeling>
