       N       E                     dE             d eps       ncg     rms          ort
DAV:   1     0.932730572359E+02    0.93273E+02   -0.24586E+03    36   0.172E+02
DAV:   2     0.301218778173E+02   -0.63151E+02   -0.62522E+02    36   0.232E+01
DAV:   3     0.251419003275E+01   -0.27608E+02   -0.27608E+02    36   0.390E+01
DAV:   4     0.372347648704E+00   -0.21418E+01   -0.21418E+01    36   0.126E+01
DAV:   5     0.160034286152E+00   -0.21231E+00   -0.21231E+00    36   0.341E+00
SDA:   6     0.281079219394E-01   -0.13193E+00   -0.92913E-01    36   0.232E+00 0.000E+00
DMP:   7     0.807726532298E-02   -0.20031E-01   -0.46570E-01    36   0.169E+00-0.136E+00
DMP:   8    -0.619996848172E-02   -0.14277E-01   -0.13732E-01    36   0.513E-01-0.445E-01
DMP:   9    -0.100748148966E-01   -0.38748E-02   -0.50065E-02    36   0.182E-01-0.150E-01
DMP:  10    -0.115655019148E-01   -0.14907E-02   -0.13222E-02    36   0.525E-02-0.510E-02
DMP:  11    -0.121619947419E-01   -0.59649E-03   -0.67859E-03    36   0.182E-02-0.322E-03
DMP:  12    -0.123759306895E-01   -0.21394E-03   -0.24697E-03    36   0.855E-03-0.621E-03
DMP:  13    -0.125040926812E-01   -0.12816E-03   -0.83145E-04    36   0.199E-03 0.237E-04
DMP:  14    -0.125333133614E-01   -0.29221E-04   -0.32960E-04    36   0.106E-03-0.628E-04
   1 F= -.12533313E-01 E0= -.12533313E-01  d E =-.125333E-01  mag=    -0.0000
