<?xml version="1.0" encoding="ISO-8859-1"?>
<modeling>
 <generator>
  <i name="program" type="string">vasp </i>
  <i name="version" type="string">5.4.4.18Apr17-6-g9f103f2a35  </i>
  <i name="subversion" type="string">(build Nov 08 2019 15:19:53) gamma-only         parallel </i>
  <i name="platform" type="string">LinuxIFC </i>
  <i name="date" type="string">2020 11 30 </i>
  <i name="time" type="string">09:30:49 </i>
 </generator>
 <incar>
  <i type="string" name="PREC">accurate</i>
  <i type="string" name="ALGO"> D</i>
  <i type="int" name="ISPIN">     2</i>
  <i type="int" name="NELM">   300</i>
  <i type="int" name="IBRION">     2</i>
  <i name="EDIFF">      0.00005000</i>
  <i type="int" name="NSW">    99</i>
  <i type="int" name="ISIF">     2</i>
  <i name="ENCUT">    520.00000000</i>
  <v name="MAGMOM">      0.60000000</v>
  <i type="string" name="LREAL"> Auto</i>
  <i type="int" name="ISMEAR">     0</i>
  <i name="SIGMA">      0.05000000</i>
  <i type="logical" name="LWAVE"> F  </i>
  <i type="int" name="LORBIT">    11</i>
  <i type="logical" name="LASPH"> T  </i>
  <v type="int" name="KPOINT_BSE">    -1     0     0     0</v>
  <i type="int" name="NELM">   300</i>
  <i type="logical" name="LASPH"> T  </i>
 </incar>
 <structure name="primitive_cell" >
  <crystal>
   <varray name="basis" >
    <v>      10.00000000       0.00000000       0.00000000 </v>
    <v>       0.00000000      10.00000000       0.00000000 </v>
    <v>       0.00000000       0.00000000      10.00000000 </v>
   </varray>
   <i name="volume">   1000.00000000 </i>
   <varray name="rec_basis" >
    <v>       0.10000000       0.00000000       0.00000000 </v>
    <v>       0.00000000       0.10000000       0.00000000 </v>
    <v>       0.00000000       0.00000000       0.10000000 </v>
   </varray>
  </crystal>
  <varray name="positions" >
   <v>      -0.50000000      -0.50000000      -0.50000000 </v>
  </varray>
 </structure>
 <varray name="primitive_index" >
  <v type="int" >        1 </v>
 </varray>
 <kpoints>
  <generation param="Gamma">
   <v type="int" name="divisions">       1        1        1 </v>
   <v name="usershift">      0.00000000       0.00000000       0.00000000 </v>
   <v name="genvec1">      1.00000000       0.00000000       0.00000000 </v>
   <v name="genvec2">      0.00000000       1.00000000       0.00000000 </v>
   <v name="genvec3">      0.00000000       0.00000000       1.00000000 </v>
   <v name="shift">      0.00000000       0.00000000       0.00000000 </v>
  </generation>
  <varray name="kpointlist" >
   <v>       0.00000000       0.00000000       0.00000000 </v>
  </varray>
  <varray name="weights" >
   <v>       1.00000000 </v>
  </varray>
 </kpoints>
 <parameters>
  <separator name="general" >
   <i type="string" name="SYSTEM">unknown system</i>
   <i type="logical" name="LCOMPAT"> F  </i>
  </separator>
  <separator name="electronic" >
   <i type="string" name="PREC">accura</i>
   <i name="ENMAX">    520.00000000</i>
   <i name="ENAUG">    589.42700000</i>
   <i name="EDIFF">      0.00005000</i>
   <i type="int" name="IALGO">    53</i>
   <i type="int" name="IWAVPR">    11</i>
   <i type="int" name="NBANDS">    36</i>
   <i name="NELECT">      8.00000000</i>
   <i type="int" name="TURBO">     0</i>
   <i type="int" name="IRESTART">     0</i>
   <i type="int" name="NREBOOT">     0</i>
   <i type="int" name="NMIN">     0</i>
   <i name="EREF">      0.00000000</i>
   <separator name="electronic smearing" >
    <i type="int" name="ISMEAR">     0</i>
    <i name="SIGMA">      0.05000000</i>
    <i name="KSPACING">      0.50000000</i>
    <i type="logical" name="KGAMMA"> T  </i>
   </separator>
   <separator name="electronic projectors" >
    <i type="logical" name="LREAL"> T  </i>
    <v name="ROPT">     -0.00025000</v>
    <i type="int" name="LMAXPAW">  -100</i>
    <i type="int" name="LMAXMIX">     2</i>
    <i type="logical" name="NLSPLINE"> F  </i>
   </separator>
   <separator name="electronic startup" >
    <i type="int" name="ISTART">     0</i>
    <i type="int" name="ICHARG">     2</i>
    <i type="int" name="INIWAV">     1</i>
   </separator>
   <separator name="electronic spin" >
    <i type="int" name="ISPIN">     2</i>
    <i type="logical" name="LNONCOLLINEAR"> F  </i>
    <v name="MAGMOM">      0.60000000</v>
    <i name="NUPDOWN">     -1.00000000</i>
    <i type="logical" name="LSORBIT"> F  </i>
    <v name="SAXIS">      0.00000000      0.00000000      1.00000000</v>
    <i type="logical" name="LSPIRAL"> F  </i>
    <v name="QSPIRAL">      0.00000000      0.00000000      0.00000000</v>
    <i type="logical" name="LZEROZ"> F  </i>
   </separator>
   <separator name="electronic exchange-correlation" >
    <i type="logical" name="LASPH"> T  </i>
    <i type="logical" name="LMETAGGA"> F  </i>
   </separator>
   <separator name="electronic convergence" >
    <i type="int" name="NELM">   300</i>
    <i type="int" name="NELMDL">    -5</i>
    <i type="int" name="NELMIN">     2</i>
    <i name="ENINI">    520.00000000</i>
    <separator name="electronic convergence detail" >
     <i type="logical" name="LDIAG"> T  </i>
     <i type="logical" name="LSUBROT"> F  </i>
     <i name="WEIMIN">      0.00100000</i>
     <i name="EBREAK">      0.00000035</i>
     <i name="DEPER">      0.30000000</i>
     <i type="int" name="NRMM">     4</i>
     <i name="TIME">      0.40000000</i>
    </separator>
   </separator>
   <separator name="electronic mixer" >
    <i name="AMIX">      0.40000000</i>
    <i name="BMIX">      1.00000000</i>
    <i name="AMIN">      0.10000000</i>
    <i name="AMIX_MAG">      1.60000000</i>
    <i name="BMIX_MAG">      1.00000000</i>
    <separator name="electronic mixer details" >
     <i type="int" name="IMIX">     4</i>
     <i type="logical" name="MIXFIRST"> F  </i>
     <i type="int" name="MAXMIX">   -45</i>
     <i name="WC">    100.00000000</i>
     <i type="int" name="INIMIX">     1</i>
     <i type="int" name="MIXPRE">     1</i>
     <i type="int" name="MREMOVE">     5</i>
    </separator>
   </separator>
   <separator name="electronic dipolcorrection" >
    <i type="logical" name="LDIPOL"> F  </i>
    <i type="logical" name="LMONO"> F  </i>
    <i type="int" name="IDIPOL">     0</i>
    <i name="EPSILON">      1.00000000</i>
    <v name="DIPOL">   -100.00000000   -100.00000000   -100.00000000</v>
    <i name="EFIELD">      0.00000000</i>
   </separator>
  </separator>
  <separator name="grids" >
   <i type="int" name="NGX">    80</i>
   <i type="int" name="NGY">    80</i>
   <i type="int" name="NGZ">    80</i>
   <i type="int" name="NGXF">   160</i>
   <i type="int" name="NGYF">   160</i>
   <i type="int" name="NGZF">   160</i>
   <i type="logical" name="ADDGRID"> F  </i>
  </separator>
  <separator name="ionic" >
   <i type="int" name="NSW">    99</i>
   <i type="int" name="IBRION">     2</i>
   <i type="int" name="MDALGO">     0</i>
   <i type="int" name="ISIF">     2</i>
   <i name="PSTRESS">      0.00000000</i>
   <i name="EDIFFG">      0.00050000</i>
   <i type="int" name="NFREE">     1</i>
   <i name="POTIM">      0.50000000</i>
   <i name="SMASS">     -3.00000000</i>
   <i name="SCALEE">      1.00000000</i>
  </separator>
  <separator name="ionic md" >
   <i name="TEBEG">      0.00010000</i>
   <i name="TEEND">      0.00010000</i>
   <i type="int" name="NBLOCK">     1</i>
   <i type="int" name="KBLOCK">    99</i>
   <i type="int" name="NPACO">   256</i>
   <i name="APACO">     16.00000000</i>
  </separator>
  <separator name="symmetry" >
   <i type="int" name="ISYM">     2</i>
   <i name="SYMPREC">      0.00001000</i>
  </separator>
  <separator name="dos" >
   <i type="int" name="LORBIT">    11</i>
   <v name="RWIGS">     -1.00000000</v>
   <i type="int" name="NEDOS">   301</i>
   <i name="EMIN">     10.00000000</i>
   <i name="EMAX">    -10.00000000</i>
   <i name="EFERMI">      0.00000000</i>
  </separator>
  <separator name="writing" >
   <i type="int" name="NWRITE">     2</i>
   <i type="logical" name="LWAVE"> F  </i>
   <i type="logical" name="LDOWNSAMPLE"> F  </i>
   <i type="logical" name="LCHARG"> T  </i>
   <i type="logical" name="LPARD"> F  </i>
   <i type="logical" name="LVTOT"> F  </i>
   <i type="logical" name="LVHAR"> F  </i>
   <i type="logical" name="LELF"> F  </i>
   <i type="logical" name="LOPTICS"> F  </i>
   <v name="STM">      0.00000000      0.00000000      0.00000000      0.00000000      0.00000000      0.00000000      0.00000000</v>
  </separator>
  <separator name="performance" >
   <i type="int" name="NPAR">    36</i>
   <i type="int" name="NSIM">     4</i>
   <i type="int" name="NBLK">    -1</i>
   <i type="logical" name="LPLANE"> T  </i>
   <i type="logical" name="LSCALAPACK"> T  </i>
   <i type="logical" name="LSCAAWARE"> F  </i>
   <i type="logical" name="LSCALU"> F  </i>
   <i type="logical" name="LASYNC"> F  </i>
   <i type="logical" name="LORBITALREAL"> F  </i>
  </separator>
  <separator name="miscellaneous" >
   <i type="int" name="IDIOT">     3</i>
   <i type="int" name="ISPECIAL">     0</i>
   <i type="logical" name="LMUSIC"> F  </i>
   <v name="POMASS">     20.18000000</v>
   <v name="DARWINR">      0.00000000</v>
   <v name="DARWINV">      1.00000000</v>
   <i type="logical" name="LCORR"> T  </i>
  </separator>
  <i type="logical" name="GGA_COMPAT"> T  </i>
  <i type="logical" name="LBERRY"> F  </i>
  <i type="int" name="ICORELEVEL">     0</i>
  <i type="logical" name="LDAU"> F  </i>
  <i type="int" name="I_CONSTRAINED_M">     0</i>
  <separator name="electronic exchange-correlation" >
   <i type="string" name="GGA">--</i>
   <i type="int" name="VOSKOWN">     0</i>
   <i type="logical" name="LHFCALC"> F  </i>
   <i type="string" name="PRECFOCK"></i>
   <i type="logical" name="LSYMGRAD"> F  </i>
   <i type="logical" name="LHFONE"> F  </i>
   <i type="logical" name="LRHFCALC"> F  </i>
   <i type="logical" name="LTHOMAS"> F  </i>
   <i type="logical" name="LMODELHF"> F  </i>
   <i name="ENCUT4O">     -1.00000000</i>
   <i type="int" name="EXXOEP">     0</i>
   <i type="int" name="FOURORBIT">     0</i>
   <i name="AEXX">      0.00000000</i>
   <i name="HFALPHA">      0.00000000</i>
   <i name="MCALPHA">      0.00000000</i>
   <i name="ALDAX">      1.00000000</i>
   <i name="AGGAX">      1.00000000</i>
   <i name="ALDAC">      1.00000000</i>
   <i name="AGGAC">      1.00000000</i>
   <i type="int" name="NKREDX">     1</i>
   <i type="int" name="NKREDY">     1</i>
   <i type="int" name="NKREDZ">     1</i>
   <i type="logical" name="SHIFTRED"> F  </i>
   <i type="logical" name="ODDONLY"> F  </i>
   <i type="logical" name="EVENONLY"> F  </i>
   <i type="int" name="LMAXFOCK">     0</i>
   <i type="int" name="NMAXFOCKAE">     0</i>
   <i type="logical" name="LFOCKAEDFT"> F  </i>
   <i name="HFSCREEN">      0.00000000</i>
   <i name="HFSCREENC">      0.00000000</i>
   <i type="int" name="NBANDSGWLOW">     0</i>
  </separator>
  <separator name="vdW DFT" >
   <i type="logical" name="LUSE_VDW"> F  </i>
   <i name="Zab_VDW">     -0.84910000</i>
   <i name="PARAM1">      0.12340000</i>
   <i name="PARAM2">      1.00000000</i>
   <i name="PARAM3">      0.00000000</i>
  </separator>
  <separator name="model GW" >
   <i type="int" name="MODEL_GW">     0</i>
   <i name="MODEL_EPS0">    600.00000000</i>
   <i name="MODEL_ALPHA">      1.00000000</i>
  </separator>
  <separator name="linear response parameters" >
   <i type="logical" name="LEPSILON"> F  </i>
   <i type="logical" name="LRPA"> F  </i>
   <i type="logical" name="LNABLA"> F  </i>
   <i type="logical" name="LVEL"> F  </i>
   <i type="int" name="KINTER">     0</i>
   <i name="CSHIFT">      0.10000000</i>
   <i name="OMEGAMAX">     -1.00000000</i>
   <i name="DEG_THRESHOLD">      0.00200000</i>
   <i name="RTIME">     -0.10000000</i>
   <i name="WPLASMAI">      0.00000000</i>
   <v name="DFIELD">      0.00000000      0.00000000      0.00000000</v>
   <v name="WPLASMA">      0.00000000      0.00000000      0.00000000      0.00000000      0.00000000      0.00000000      0.00000000      0.00000000      0.00000000</v>
  </separator>
  <separator name="orbital magnetization" >
   <i type="logical" name="NUCIND"> F  </i>
   <v name="MAGPOS">      0.00000000      0.00000000      0.00000000</v>
   <i type="logical" name="LNICSALL"> T  </i>
   <i type="logical" name="ORBITALMAG"> F  </i>
   <i type="logical" name="LMAGBLOCH"> F  </i>
   <i type="logical" name="LCHIMAG"> F  </i>
   <i type="logical" name="LGAUGE"> T  </i>
   <i type="int" name="MAGATOM">     0</i>
   <v name="MAGDIPOL">      0.00000000      0.00000000      0.00000000</v>
   <v name="AVECCONST">      0.00000000      0.00000000      0.00000000</v>
  </separator>
  <separator name="response functions" >
   <i type="logical" name="LADDER"> F  </i>
   <i type="logical" name="LRPAFORCE"> F  </i>
   <i type="logical" name="LFXC"> F  </i>
   <i type="logical" name="LHARTREE"> T  </i>
   <i type="int" name="IBSE">     0</i>
   <v type="int" name="KPOINT">    -1     0     0     0</v>
   <i type="logical" name="LTCTE"> F  </i>
   <i type="logical" name="LTETE"> F  </i>
   <i type="logical" name="LTRIPLET"> F  </i>
   <i type="logical" name="LFXCEPS"> F  </i>
   <i type="logical" name="LFXHEG"> F  </i>
   <i type="int" name="NATURALO">     2</i>
   <i type="logical" name="L2ORDER"> F  </i>
   <i type="logical" name="LMP2LT"> F  </i>
   <i type="logical" name="LUSEW"> F  </i>
   <i name="ENCUTGW">     -2.00000000</i>
   <i name="ENCUTGWSOFT">     -2.00000000</i>
   <i name="ENCUTLF">     -1.00000000</i>
   <i type="int" name="LMAXMP2">    -1</i>
   <i name="SCISSOR">      0.00000000</i>
   <i type="int" name="NOMEGA">     0</i>
   <i type="int" name="NOMEGAR">     0</i>
   <i type="int" name="NBANDSGW">    -1</i>
   <i type="int" name="NBANDSO">    -1</i>
   <i type="int" name="NBANDSV">    -1</i>
   <i type="int" name="NELM">   300</i>
   <i type="int" name="NELMHF">     1</i>
   <i type="int" name="DIM">     3</i>
   <i type="int" name="ANTIRES">     0</i>
   <i name="OMEGAMAX">    -30.00000000</i>
   <i name="OMEGAMIN">    -30.00000000</i>
   <i name="OMEGATL">   -200.00000000</i>
   <i type="int" name="OMEGAGRID">   140</i>
   <i name="CSHIFT">     -0.10000000</i>
   <i type="logical" name="SELFENERGY"> F  </i>
   <i type="logical" name="LSPECTRAL"> F  </i>
   <i type="logical" name="LSPECTRALGW"> F  </i>
   <i type="logical" name="LSINGLES"> F  </i>
   <i type="logical" name="LFERMIGW"> F  </i>
   <i type="logical" name="ODDONLYGW"> F  </i>
   <i type="logical" name="EVENONLYGW"> F  </i>
   <i type="int" name="NKREDLFX">     1</i>
   <i type="int" name="NKREDLFY">     1</i>
   <i type="int" name="NKREDLFZ">     1</i>
   <i type="int" name="MAXMEM">  2800</i>
   <i type="int" name="TELESCOPE">     0</i>
   <i type="int" name="TAUPAR">     1</i>
   <i type="int" name="OMEGAPAR">    -1</i>
   <i name="LAMBDA">      1.00000000</i>
  </separator>
  <separator name="External order field" >
   <i name="OFIELD_KAPPA">      0.00000000</i>
   <v name="OFIELD_K">      0.00000000      0.00000000      0.00000000</v>
   <i name="OFIELD_Q6_NEAR">      0.00000000</i>
   <i name="OFIELD_Q6_FAR">      0.00000000</i>
   <i name="OFIELD_A">      0.00000000</i>
  </separator>
 </parameters>
 <atominfo>
  <atoms>       1 </atoms>
  <types>       1 </types>
  <array name="atoms" >
   <dimension dim="1">ion</dimension>
   <field type="string">element</field>
   <field type="int">atomtype</field>
   <set>
    <rc><c>Ne</c><c>   1</c></rc>
   </set>
  </array>
  <array name="atomtypes" >
   <dimension dim="1">type</dimension>
   <field type="int">atomspertype</field>
   <field type="string">element</field>
   <field>mass</field>
   <field>valence</field>
   <field type="string">pseudopotential</field>
   <set>
    <rc><c>   1</c><c>Ne</c><c>     20.18000000</c><c>      8.00000000</c><c>  PAW_PBE Ne 05Jan2001                  </c></rc>
   </set>
  </array>
 </atominfo>
 <structure name="initialpos" >
  <crystal>
   <varray name="basis" >
    <v>      10.00000000       0.00000000       0.00000000 </v>
    <v>       0.00000000      10.00000000       0.00000000 </v>
    <v>       0.00000000       0.00000000      10.00000000 </v>
   </varray>
   <i name="volume">   1000.00000000 </i>
   <varray name="rec_basis" >
    <v>       0.10000000       0.00000000       0.00000000 </v>
    <v>       0.00000000       0.10000000       0.00000000 </v>
    <v>       0.00000000       0.00000000       0.10000000 </v>
   </varray>
  </crystal>
  <varray name="positions" >
   <v>       0.50000000       0.50000000       0.50000000 </v>
  </varray>
 </structure>
 <calculation>
  <scstep>
   <time name="total">    0.66    0.67</time>
   <energy>
    <i name="alphaZ">      0.15552429 </i>
    <i name="ewald">   -130.74073603 </i>
    <i name="hartreedc">   -707.58799362 </i>
    <i name="XCdc">     47.99288048 </i>
    <i name="pawpsdc">    789.68175151 </i>
    <i name="pawaedc">   -802.48865898 </i>
    <i name="eentropy">     -0.01240402 </i>
    <i name="bandstr">    -59.03756045 </i>
    <i name="atom">    955.31025407 </i>
    <i name="e_fr_energy">     93.27305724 </i>
    <i name="e_wo_entrp">     93.28546125 </i>
    <i name="e_0_energy">     93.27925924 </i>
   </energy>
  </scstep>
  <scstep>
   <time name="total">    0.39    0.39</time>
   <energy>
    <i name="e_fr_energy">     30.12187782 </i>
    <i name="e_wo_entrp">     30.12187782 </i>
    <i name="e_0_energy">     30.12187782 </i>
   </energy>
  </scstep>
  <scstep>
   <time name="total">    0.39    0.39</time>
   <energy>
    <i name="e_fr_energy">      2.51419003 </i>
    <i name="e_wo_entrp">      2.51419003 </i>
    <i name="e_0_energy">      2.51419003 </i>
   </energy>
  </scstep>
  <scstep>
   <time name="total">    0.39    0.39</time>
   <energy>
    <i name="e_fr_energy">      0.37234765 </i>
    <i name="e_wo_entrp">      0.37234765 </i>
    <i name="e_0_energy">      0.37234765 </i>
   </energy>
  </scstep>
  <scstep>
   <time name="total">    0.61    0.61</time>
   <energy>
    <i name="e_fr_energy">      0.16003429 </i>
    <i name="e_wo_entrp">      0.16003429 </i>
    <i name="e_0_energy">      0.16003429 </i>
   </energy>
  </scstep>
  <scstep>
   <time name="total">    0.73    0.74</time>
   <energy>
    <i name="e_fr_energy">      0.02810792 </i>
    <i name="e_wo_entrp">      0.02810792 </i>
    <i name="e_0_energy">      0.02810792 </i>
   </energy>
  </scstep>
  <scstep>
   <time name="total">    0.71    0.71</time>
   <energy>
    <i name="e_fr_energy">      0.00807727 </i>
    <i name="e_wo_entrp">      0.00807727 </i>
    <i name="e_0_energy">      0.00807727 </i>
   </energy>
  </scstep>
  <scstep>
   <time name="total">    0.68    0.68</time>
   <energy>
    <i name="e_fr_energy">     -0.00619997 </i>
    <i name="e_wo_entrp">     -0.00619997 </i>
    <i name="e_0_energy">     -0.00619997 </i>
   </energy>
  </scstep>
  <scstep>
   <time name="total">    0.68    0.68</time>
   <energy>
    <i name="e_fr_energy">     -0.01007481 </i>
    <i name="e_wo_entrp">     -0.01007481 </i>
    <i name="e_0_energy">     -0.01007481 </i>
   </energy>
  </scstep>
  <scstep>
   <time name="total">    0.68    0.68</time>
   <energy>
    <i name="e_fr_energy">     -0.01156550 </i>
    <i name="e_wo_entrp">     -0.01156550 </i>
    <i name="e_0_energy">     -0.01156550 </i>
   </energy>
  </scstep>
  <scstep>
   <time name="total">    0.68    0.68</time>
   <energy>
    <i name="e_fr_energy">     -0.01216199 </i>
    <i name="e_wo_entrp">     -0.01216199 </i>
    <i name="e_0_energy">     -0.01216199 </i>
   </energy>
  </scstep>
  <scstep>
   <time name="total">    0.69    0.69</time>
   <energy>
    <i name="e_fr_energy">     -0.01237593 </i>
    <i name="e_wo_entrp">     -0.01237593 </i>
    <i name="e_0_energy">     -0.01237593 </i>
   </energy>
  </scstep>
  <scstep>
   <time name="total">    0.69    0.69</time>
   <energy>
    <i name="e_fr_energy">     -0.01250409 </i>
    <i name="e_wo_entrp">     -0.01250409 </i>
    <i name="e_0_energy">     -0.01250409 </i>
   </energy>
  </scstep>
  <scstep>
   <time name="total">    0.73    0.73</time>
   <energy>
    <i name="alphaZ">      0.15552429 </i>
    <i name="ewald">   -130.74073603 </i>
    <i name="hartreedc">   -707.55228356 </i>
    <i name="XCdc">     47.93467367 </i>
    <i name="pawpsdc">    789.73303578 </i>
    <i name="pawaedc">   -802.57450408 </i>
    <i name="eentropy">     -0.00000000 </i>
    <i name="bandstr">   -152.27849743 </i>
    <i name="atom">    955.31025407 </i>
    <i name="e_fr_energy">     -0.01253331 </i>
    <i name="e_wo_entrp">     -0.01253331 </i>
    <i name="e_0_energy">     -0.01253331 </i>
   </energy>
  </scstep>
  <structure>
   <crystal>
    <varray name="basis" >
     <v>      10.00000000       0.00000000       0.00000000 </v>
     <v>       0.00000000      10.00000000       0.00000000 </v>
     <v>       0.00000000       0.00000000      10.00000000 </v>
    </varray>
    <i name="volume">   1000.00000000 </i>
    <varray name="rec_basis" >
     <v>       0.10000000       0.00000000       0.00000000 </v>
     <v>       0.00000000       0.10000000       0.00000000 </v>
     <v>       0.00000000       0.00000000       0.10000000 </v>
    </varray>
   </crystal>
   <varray name="positions" >
    <v>       0.50000000       0.50000000       0.50000000 </v>
   </varray>
  </structure>
  <varray name="forces" >
   <v>       0.00000000       0.00000000       0.00000000 </v>
  </varray>
  <varray name="stress" >
   <v>      -0.11836725      -0.00000000      -0.00000000 </v>
   <v>      -0.00000000      -0.11836725      -0.00000000 </v>
   <v>       0.00000000       0.00000000      -0.11836725 </v>
  </varray>
  <energy>
   <i name="e_fr_energy">     -0.01253331 </i>
   <i name="e_wo_entrp">     -0.01253331 </i>
   <i name="e_0_energy">     -0.00000000 </i>
  </energy>
  <time name="totalsc">   15.60   15.78</time>
  <eigenvalues>
   <array>
    <dimension dim="1">band</dimension>
    <dimension dim="2">kpoint</dimension>
    <dimension dim="3">spin</dimension>
    <field>eigene</field>
    <field>occ</field>
    <set>
     <set comment="spin 1">
      <set comment="kpoint 1">
       <r>  -36.3396    1.0000 </r>
       <r>  -13.2672    1.0000 </r>
       <r>  -13.2672    1.0000 </r>
       <r>  -13.2672    1.0000 </r>
       <r>   -0.2862    0.0000 </r>
       <r>    0.9938    0.0000 </r>
       <r>    1.3064    0.0000 </r>
       <r>    1.3087    0.0000 </r>
       <r>    1.3092    0.0000 </r>
       <r>    1.4671    0.0000 </r>
       <r>    1.4679    0.0000 </r>
       <r>    2.7075    0.0000 </r>
       <r>    2.7925    0.0000 </r>
       <r>    2.7953    0.0000 </r>
       <r>    2.8001    0.0000 </r>
       <r>    2.8025    0.0000 </r>
       <r>    2.8493    0.0000 </r>
       <r>    2.8536    0.0000 </r>
       <r>    2.9051    0.0000 </r>
       <r>    2.9481    0.0000 </r>
       <r>    2.9502    0.0000 </r>
       <r>    2.9873    0.0000 </r>
       <r>    3.2145    0.0000 </r>
       <r>    4.1764    0.0000 </r>
       <r>    4.2564    0.0000 </r>
       <r>    4.3422    0.0000 </r>
       <r>    4.3473    0.0000 </r>
       <r>    4.3905    0.0000 </r>
       <r>    4.5493    0.0000 </r>
       <r>    5.0472    0.0000 </r>
       <r>    5.4579    0.0000 </r>
       <r>    5.6396    0.0000 </r>
       <r>    5.7074    0.0000 </r>
       <r>    6.5372    0.0000 </r>
       <r>    7.0684    0.0000 </r>
       <r>    7.4238    0.0000 </r>
      </set>
     </set>
     <set comment="spin 2">
      <set comment="kpoint 1">
       <r>  -36.3386    1.0000 </r>
       <r>  -13.2663    1.0000 </r>
       <r>  -13.2663    1.0000 </r>
       <r>  -13.2663    1.0000 </r>
       <r>   -0.2906    0.0000 </r>
       <r>    0.9923    0.0000 </r>
       <r>    1.3029    0.0000 </r>
       <r>    1.3051    0.0000 </r>
       <r>    1.3102    0.0000 </r>
       <r>    1.4613    0.0000 </r>
       <r>    1.4631    0.0000 </r>
       <r>    2.7066    0.0000 </r>
       <r>    2.7068    0.0000 </r>
       <r>    2.7291    0.0000 </r>
       <r>    2.7572    0.0000 </r>
       <r>    2.8501    0.0000 </r>
       <r>    2.8508    0.0000 </r>
       <r>    2.8574    0.0000 </r>
       <r>    2.8859    0.0000 </r>
       <r>    2.9056    0.0000 </r>
       <r>    2.9510    0.0000 </r>
       <r>    2.9689    0.0000 </r>
       <r>    3.0433    0.0000 </r>
       <r>    4.3358    0.0000 </r>
       <r>    4.3515    0.0000 </r>
       <r>    4.3526    0.0000 </r>
       <r>    4.3676    0.0000 </r>
       <r>    4.3723    0.0000 </r>
       <r>    4.8199    0.0000 </r>
       <r>    4.9411    0.0000 </r>
       <r>    5.2981    0.0000 </r>
       <r>    5.3467    0.0000 </r>
       <r>    5.5892    0.0000 </r>
       <r>    5.6588    0.0000 </r>
       <r>    6.6580    0.0000 </r>
       <r>    6.9668    0.0000 </r>
      </set>
     </set>
    </set>
   </array>
  </eigenvalues>
  <separator name="orbital magnetization" >
   <v name="MAGDIPOLOUT">      0.00000000      0.00000000      0.00000000</v>
  </separator>
  <dos>
   <i name="efermi">    -12.97358492 </i>
   <total>
    <array>
     <dimension dim="1">gridpoints</dimension>
     <dimension dim="2">spin</dimension>
     <field>energy</field>
     <field>total</field>
     <field>integrated</field>
     <set>
      <set comment="spin 1">
       <r>   -38.5277     0.0000     0.0000 </r>
       <r>   -38.3673     0.0000     0.0000 </r>
       <r>   -38.2068     0.0000     0.0000 </r>
       <r>   -38.0463     0.0000     0.0000 </r>
       <r>   -37.8859     0.0000     0.0000 </r>
       <r>   -37.7254     0.0000     0.0000 </r>
       <r>   -37.5649     0.0000     0.0000 </r>
       <r>   -37.4045     0.0000     0.0000 </r>
       <r>   -37.2440     0.0000     0.0000 </r>
       <r>   -37.0835     0.0000     0.0000 </r>
       <r>   -36.9231     0.0000     0.0000 </r>
       <r>   -36.7626     0.0000     0.0000 </r>
       <r>   -36.6021     0.0000     0.0000 </r>
       <r>   -36.4417     0.0121     0.0019 </r>
       <r>   -36.2812     5.9118     0.9506 </r>
       <r>   -36.1207     0.3080     1.0000 </r>
       <r>   -35.9603     0.0000     1.0000 </r>
       <r>   -35.7998     0.0000     1.0000 </r>
       <r>   -35.6393     0.0000     1.0000 </r>
       <r>   -35.4789     0.0000     1.0000 </r>
       <r>   -35.3184     0.0000     1.0000 </r>
       <r>   -35.1579     0.0000     1.0000 </r>
       <r>   -34.9975     0.0000     1.0000 </r>
       <r>   -34.8370     0.0000     1.0000 </r>
       <r>   -34.6765     0.0000     1.0000 </r>
       <r>   -34.5161     0.0000     1.0000 </r>
       <r>   -34.3556     0.0000     1.0000 </r>
       <r>   -34.1951     0.0000     1.0000 </r>
       <r>   -34.0347     0.0000     1.0000 </r>
       <r>   -33.8742     0.0000     1.0000 </r>
       <r>   -33.7138     0.0000     1.0000 </r>
       <r>   -33.5533     0.0000     1.0000 </r>
       <r>   -33.3928     0.0000     1.0000 </r>
       <r>   -33.2324     0.0000     1.0000 </r>
       <r>   -33.0719     0.0000     1.0000 </r>
       <r>   -32.9114     0.0000     1.0000 </r>
       <r>   -32.7510     0.0000     1.0000 </r>
       <r>   -32.5905     0.0000     1.0000 </r>
       <r>   -32.4300     0.0000     1.0000 </r>
       <r>   -32.2696     0.0000     1.0000 </r>
       <r>   -32.1091     0.0000     1.0000 </r>
       <r>   -31.9486     0.0000     1.0000 </r>
       <r>   -31.7882     0.0000     1.0000 </r>
       <r>   -31.6277     0.0000     1.0000 </r>
       <r>   -31.4672     0.0000     1.0000 </r>
       <r>   -31.3068     0.0000     1.0000 </r>
       <r>   -31.1463     0.0000     1.0000 </r>
       <r>   -30.9858     0.0000     1.0000 </r>
       <r>   -30.8254     0.0000     1.0000 </r>
       <r>   -30.6649     0.0000     1.0000 </r>
       <r>   -30.5044     0.0000     1.0000 </r>
       <r>   -30.3440     0.0000     1.0000 </r>
       <r>   -30.1835     0.0000     1.0000 </r>
       <r>   -30.0230     0.0000     1.0000 </r>
       <r>   -29.8626     0.0000     1.0000 </r>
       <r>   -29.7021     0.0000     1.0000 </r>
       <r>   -29.5416     0.0000     1.0000 </r>
       <r>   -29.3812     0.0000     1.0000 </r>
       <r>   -29.2207     0.0000     1.0000 </r>
       <r>   -29.0603     0.0000     1.0000 </r>
       <r>   -28.8998     0.0000     1.0000 </r>
       <r>   -28.7393     0.0000     1.0000 </r>
       <r>   -28.5789     0.0000     1.0000 </r>
       <r>   -28.4184     0.0000     1.0000 </r>
       <r>   -28.2579     0.0000     1.0000 </r>
       <r>   -28.0975     0.0000     1.0000 </r>
       <r>   -27.9370     0.0000     1.0000 </r>
       <r>   -27.7765     0.0000     1.0000 </r>
       <r>   -27.6161     0.0000     1.0000 </r>
       <r>   -27.4556     0.0000     1.0000 </r>
       <r>   -27.2951     0.0000     1.0000 </r>
       <r>   -27.1347     0.0000     1.0000 </r>
       <r>   -26.9742     0.0000     1.0000 </r>
       <r>   -26.8137     0.0000     1.0000 </r>
       <r>   -26.6533     0.0000     1.0000 </r>
       <r>   -26.4928     0.0000     1.0000 </r>
       <r>   -26.3323     0.0000     1.0000 </r>
       <r>   -26.1719     0.0000     1.0000 </r>
       <r>   -26.0114     0.0000     1.0000 </r>
       <r>   -25.8509     0.0000     1.0000 </r>
       <r>   -25.6905     0.0000     1.0000 </r>
       <r>   -25.5300     0.0000     1.0000 </r>
       <r>   -25.3695     0.0000     1.0000 </r>
       <r>   -25.2091     0.0000     1.0000 </r>
       <r>   -25.0486     0.0000     1.0000 </r>
       <r>   -24.8881     0.0000     1.0000 </r>
       <r>   -24.7277     0.0000     1.0000 </r>
       <r>   -24.5672     0.0000     1.0000 </r>
       <r>   -24.4068     0.0000     1.0000 </r>
       <r>   -24.2463     0.0000     1.0000 </r>
       <r>   -24.0858     0.0000     1.0000 </r>
       <r>   -23.9254     0.0000     1.0000 </r>
       <r>   -23.7649     0.0000     1.0000 </r>
       <r>   -23.6044     0.0000     1.0000 </r>
       <r>   -23.4440     0.0000     1.0000 </r>
       <r>   -23.2835     0.0000     1.0000 </r>
       <r>   -23.1230     0.0000     1.0000 </r>
       <r>   -22.9626     0.0000     1.0000 </r>
       <r>   -22.8021     0.0000     1.0000 </r>
       <r>   -22.6416     0.0000     1.0000 </r>
       <r>   -22.4812     0.0000     1.0000 </r>
       <r>   -22.3207     0.0000     1.0000 </r>
       <r>   -22.1602     0.0000     1.0000 </r>
       <r>   -21.9998     0.0000     1.0000 </r>
       <r>   -21.8393     0.0000     1.0000 </r>
       <r>   -21.6788     0.0000     1.0000 </r>
       <r>   -21.5184     0.0000     1.0000 </r>
       <r>   -21.3579     0.0000     1.0000 </r>
       <r>   -21.1974     0.0000     1.0000 </r>
       <r>   -21.0370     0.0000     1.0000 </r>
       <r>   -20.8765     0.0000     1.0000 </r>
       <r>   -20.7160     0.0000     1.0000 </r>
       <r>   -20.5556     0.0000     1.0000 </r>
       <r>   -20.3951     0.0000     1.0000 </r>
       <r>   -20.2346     0.0000     1.0000 </r>
       <r>   -20.0742     0.0000     1.0000 </r>
       <r>   -19.9137     0.0000     1.0000 </r>
       <r>   -19.7533     0.0000     1.0000 </r>
       <r>   -19.5928     0.0000     1.0000 </r>
       <r>   -19.4323     0.0000     1.0000 </r>
       <r>   -19.2719     0.0000     1.0000 </r>
       <r>   -19.1114     0.0000     1.0000 </r>
       <r>   -18.9509     0.0000     1.0000 </r>
       <r>   -18.7905     0.0000     1.0000 </r>
       <r>   -18.6300     0.0000     1.0000 </r>
       <r>   -18.4695     0.0000     1.0000 </r>
       <r>   -18.3091     0.0000     1.0000 </r>
       <r>   -18.1486     0.0000     1.0000 </r>
       <r>   -17.9881     0.0000     1.0000 </r>
       <r>   -17.8277     0.0000     1.0000 </r>
       <r>   -17.6672     0.0000     1.0000 </r>
       <r>   -17.5067     0.0000     1.0000 </r>
       <r>   -17.3463     0.0000     1.0000 </r>
       <r>   -17.1858     0.0000     1.0000 </r>
       <r>   -17.0253     0.0000     1.0000 </r>
       <r>   -16.8649     0.0000     1.0000 </r>
       <r>   -16.7044     0.0000     1.0000 </r>
       <r>   -16.5439     0.0000     1.0000 </r>
       <r>   -16.3835     0.0000     1.0000 </r>
       <r>   -16.2230     0.0000     1.0000 </r>
       <r>   -16.0625     0.0000     1.0000 </r>
       <r>   -15.9021     0.0000     1.0000 </r>
       <r>   -15.7416     0.0000     1.0000 </r>
       <r>   -15.5811     0.0000     1.0000 </r>
       <r>   -15.4207     0.0000     1.0000 </r>
       <r>   -15.2602     0.0000     1.0000 </r>
       <r>   -15.0998     0.0000     1.0000 </r>
       <r>   -14.9393     0.0000     1.0000 </r>
       <r>   -14.7788     0.0000     1.0000 </r>
       <r>   -14.6184     0.0000     1.0000 </r>
       <r>   -14.4579     0.0000     1.0000 </r>
       <r>   -14.2974     0.0000     1.0000 </r>
       <r>   -14.1370     0.0000     1.0000 </r>
       <r>   -13.9765     0.0000     1.0000 </r>
       <r>   -13.8160     0.0000     1.0000 </r>
       <r>   -13.6556     0.0000     1.0000 </r>
       <r>   -13.4951     0.0000     1.0000 </r>
       <r>   -13.3346     0.5265     1.0845 </r>
       <r>   -13.1742    18.0894     3.9872 </r>
       <r>   -13.0137     0.0798     4.0000 </r>
       <r>   -12.8532     0.0000     4.0000 </r>
       <r>   -12.6928     0.0000     4.0000 </r>
       <r>   -12.5323     0.0000     4.0000 </r>
       <r>   -12.3718     0.0000     4.0000 </r>
       <r>   -12.2114     0.0000     4.0000 </r>
       <r>   -12.0509     0.0000     4.0000 </r>
       <r>   -11.8904     0.0000     4.0000 </r>
       <r>   -11.7300     0.0000     4.0000 </r>
       <r>   -11.5695     0.0000     4.0000 </r>
       <r>   -11.4090     0.0000     4.0000 </r>
       <r>   -11.2486     0.0000     4.0000 </r>
       <r>   -11.0881     0.0000     4.0000 </r>
       <r>   -10.9276     0.0000     4.0000 </r>
       <r>   -10.7672     0.0000     4.0000 </r>
       <r>   -10.6067     0.0000     4.0000 </r>
       <r>   -10.4463     0.0000     4.0000 </r>
       <r>   -10.2858     0.0000     4.0000 </r>
       <r>   -10.1253     0.0000     4.0000 </r>
       <r>    -9.9649     0.0000     4.0000 </r>
       <r>    -9.8044     0.0000     4.0000 </r>
       <r>    -9.6439     0.0000     4.0000 </r>
       <r>    -9.4835     0.0000     4.0000 </r>
       <r>    -9.3230     0.0000     4.0000 </r>
       <r>    -9.1625     0.0000     4.0000 </r>
       <r>    -9.0021     0.0000     4.0000 </r>
       <r>    -8.8416     0.0000     4.0000 </r>
       <r>    -8.6811     0.0000     4.0000 </r>
       <r>    -8.5207     0.0000     4.0000 </r>
       <r>    -8.3602     0.0000     4.0000 </r>
       <r>    -8.1997     0.0000     4.0000 </r>
       <r>    -8.0393     0.0000     4.0000 </r>
       <r>    -7.8788     0.0000     4.0000 </r>
       <r>    -7.7183     0.0000     4.0000 </r>
       <r>    -7.5579     0.0000     4.0000 </r>
       <r>    -7.3974     0.0000     4.0000 </r>
       <r>    -7.2369     0.0000     4.0000 </r>
       <r>    -7.0765     0.0000     4.0000 </r>
       <r>    -6.9160     0.0000     4.0000 </r>
       <r>    -6.7555     0.0000     4.0000 </r>
       <r>    -6.5951     0.0000     4.0000 </r>
       <r>    -6.4346     0.0000     4.0000 </r>
       <r>    -6.2742     0.0000     4.0000 </r>
       <r>    -6.1137     0.0000     4.0000 </r>
       <r>    -5.9532     0.0000     4.0000 </r>
       <r>    -5.7928     0.0000     4.0000 </r>
       <r>    -5.6323     0.0000     4.0000 </r>
       <r>    -5.4718     0.0000     4.0000 </r>
       <r>    -5.3114     0.0000     4.0000 </r>
       <r>    -5.1509     0.0000     4.0000 </r>
       <r>    -4.9904     0.0000     4.0000 </r>
       <r>    -4.8300     0.0000     4.0000 </r>
       <r>    -4.6695     0.0000     4.0000 </r>
       <r>    -4.5090     0.0000     4.0000 </r>
       <r>    -4.3486     0.0000     4.0000 </r>
       <r>    -4.1881     0.0000     4.0000 </r>
       <r>    -4.0276     0.0000     4.0000 </r>
       <r>    -3.8672     0.0000     4.0000 </r>
       <r>    -3.7067     0.0000     4.0000 </r>
       <r>    -3.5462     0.0000     4.0000 </r>
       <r>    -3.3858     0.0000     4.0000 </r>
       <r>    -3.2253     0.0000     4.0000 </r>
       <r>    -3.0648     0.0000     4.0000 </r>
       <r>    -2.9044     0.0000     4.0000 </r>
       <r>    -2.7439     0.0000     4.0000 </r>
       <r>    -2.5834     0.0000     4.0000 </r>
       <r>    -2.4230     0.0000     4.0000 </r>
       <r>    -2.2625     0.0000     4.0000 </r>
       <r>    -2.1020     0.0000     4.0000 </r>
       <r>    -1.9416     0.0000     4.0000 </r>
       <r>    -1.7811     0.0000     4.0000 </r>
       <r>    -1.6207     0.0000     4.0000 </r>
       <r>    -1.4602     0.0000     4.0000 </r>
       <r>    -1.2997     0.0000     4.0000 </r>
       <r>    -1.1393     0.0000     4.0000 </r>
       <r>    -0.9788     0.0000     4.0000 </r>
       <r>    -0.8183     0.0000     4.0000 </r>
       <r>    -0.6579     0.0000     4.0000 </r>
       <r>    -0.4974     0.0000     4.0000 </r>
       <r>    -0.3369     0.4715     4.0757 </r>
       <r>    -0.1765     5.7544     4.9990 </r>
       <r>    -0.0160     0.0060     5.0000 </r>
       <r>     0.1445     0.0000     5.0000 </r>
       <r>     0.3049     0.0000     5.0000 </r>
       <r>     0.4654     0.0000     5.0000 </r>
       <r>     0.6259     0.0000     5.0000 </r>
       <r>     0.7863     0.0000     5.0000 </r>
       <r>     0.9468     0.5728     5.0919 </r>
       <r>     1.1073     5.6549     5.9993 </r>
       <r>     1.2677     2.3763     6.3807 </r>
       <r>     1.4282    17.9761     9.2652 </r>
       <r>     1.5887    10.8073    10.9994 </r>
       <r>     1.7491     0.0038    11.0000 </r>
       <r>     1.9096     0.0000    11.0000 </r>
       <r>     2.0701     0.0000    11.0000 </r>
       <r>     2.2305     0.0000    11.0000 </r>
       <r>     2.3910     0.0000    11.0000 </r>
       <r>     2.5515     0.0000    11.0000 </r>
       <r>     2.7119     3.6251    11.5817 </r>
       <r>     2.8724    37.4031    17.5836 </r>
       <r>     3.0328    26.7928    21.8829 </r>
       <r>     3.1933     2.4399    22.2744 </r>
       <r>     3.3538     4.5213    23.0000 </r>
       <r>     3.5142     0.0003    23.0000 </r>
       <r>     3.6747     0.0000    23.0000 </r>
       <r>     3.8352     0.0000    23.0000 </r>
       <r>     3.9956     0.0000    23.0000 </r>
       <r>     4.1561     1.7776    23.2852 </r>
       <r>     4.3166    13.1854    25.4011 </r>
       <r>     4.4770    16.2775    28.0130 </r>
       <r>     4.6375     6.1113    28.9937 </r>
       <r>     4.7980     0.0394    29.0000 </r>
       <r>     4.9584     0.0374    29.0060 </r>
       <r>     5.1189     6.0614    29.9787 </r>
       <r>     5.2794     0.1330    30.0000 </r>
       <r>     5.4398     1.8999    30.3049 </r>
       <r>     5.6003     5.1701    31.1345 </r>
       <r>     5.7608    11.2146    32.9340 </r>
       <r>     5.9212     0.4111    33.0000 </r>
       <r>     6.0817     0.0000    33.0000 </r>
       <r>     6.2422     0.0000    33.0000 </r>
       <r>     6.4026     0.0004    33.0001 </r>
       <r>     6.5631     4.7846    33.7678 </r>
       <r>     6.7236     1.4468    34.0000 </r>
       <r>     6.8840     0.0000    34.0000 </r>
       <r>     7.0445     1.5551    34.2495 </r>
       <r>     7.2050     4.6764    34.9999 </r>
       <r>     7.3654     0.3084    35.0494 </r>
       <r>     7.5259     5.9118    35.9981 </r>
       <r>     7.6863     0.0121    36.0000 </r>
       <r>     7.8468     0.0000    36.0000 </r>
       <r>     8.0073     0.0000    36.0000 </r>
       <r>     8.1677     0.0000    36.0000 </r>
       <r>     8.3282     0.0000    36.0000 </r>
       <r>     8.4887     0.0000    36.0000 </r>
       <r>     8.6491     0.0000    36.0000 </r>
       <r>     8.8096     0.0000    36.0000 </r>
       <r>     8.9701     0.0000    36.0000 </r>
       <r>     9.1305     0.0000    36.0000 </r>
       <r>     9.2910     0.0000    36.0000 </r>
       <r>     9.4515     0.0000    36.0000 </r>
       <r>     9.6119     0.0000    36.0000 </r>
      </set>
      <set comment="spin 2">
       <r>   -38.5277     0.0000     0.0000 </r>
       <r>   -38.3673     0.0000     0.0000 </r>
       <r>   -38.2068     0.0000     0.0000 </r>
       <r>   -38.0463     0.0000     0.0000 </r>
       <r>   -37.8859     0.0000     0.0000 </r>
       <r>   -37.7254     0.0000     0.0000 </r>
       <r>   -37.5649     0.0000     0.0000 </r>
       <r>   -37.4045     0.0000     0.0000 </r>
       <r>   -37.2440     0.0000     0.0000 </r>
       <r>   -37.0835     0.0000     0.0000 </r>
       <r>   -36.9231     0.0000     0.0000 </r>
       <r>   -36.7626     0.0000     0.0000 </r>
       <r>   -36.6021     0.0000     0.0000 </r>
       <r>   -36.4417     0.0111     0.0018 </r>
       <r>   -36.2812     5.8952     0.9478 </r>
       <r>   -36.1207     0.3255     1.0000 </r>
       <r>   -35.9603     0.0000     1.0000 </r>
       <r>   -35.7998     0.0000     1.0000 </r>
       <r>   -35.6393     0.0000     1.0000 </r>
       <r>   -35.4789     0.0000     1.0000 </r>
       <r>   -35.3184     0.0000     1.0000 </r>
       <r>   -35.1579     0.0000     1.0000 </r>
       <r>   -34.9975     0.0000     1.0000 </r>
       <r>   -34.8370     0.0000     1.0000 </r>
       <r>   -34.6765     0.0000     1.0000 </r>
       <r>   -34.5161     0.0000     1.0000 </r>
       <r>   -34.3556     0.0000     1.0000 </r>
       <r>   -34.1951     0.0000     1.0000 </r>
       <r>   -34.0347     0.0000     1.0000 </r>
       <r>   -33.8742     0.0000     1.0000 </r>
       <r>   -33.7138     0.0000     1.0000 </r>
       <r>   -33.5533     0.0000     1.0000 </r>
       <r>   -33.3928     0.0000     1.0000 </r>
       <r>   -33.2324     0.0000     1.0000 </r>
       <r>   -33.0719     0.0000     1.0000 </r>
       <r>   -32.9114     0.0000     1.0000 </r>
       <r>   -32.7510     0.0000     1.0000 </r>
       <r>   -32.5905     0.0000     1.0000 </r>
       <r>   -32.4300     0.0000     1.0000 </r>
       <r>   -32.2696     0.0000     1.0000 </r>
       <r>   -32.1091     0.0000     1.0000 </r>
       <r>   -31.9486     0.0000     1.0000 </r>
       <r>   -31.7882     0.0000     1.0000 </r>
       <r>   -31.6277     0.0000     1.0000 </r>
       <r>   -31.4672     0.0000     1.0000 </r>
       <r>   -31.3068     0.0000     1.0000 </r>
       <r>   -31.1463     0.0000     1.0000 </r>
       <r>   -30.9858     0.0000     1.0000 </r>
       <r>   -30.8254     0.0000     1.0000 </r>
       <r>   -30.6649     0.0000     1.0000 </r>
       <r>   -30.5044     0.0000     1.0000 </r>
       <r>   -30.3440     0.0000     1.0000 </r>
       <r>   -30.1835     0.0000     1.0000 </r>
       <r>   -30.0230     0.0000     1.0000 </r>
       <r>   -29.8626     0.0000     1.0000 </r>
       <r>   -29.7021     0.0000     1.0000 </r>
       <r>   -29.5416     0.0000     1.0000 </r>
       <r>   -29.3812     0.0000     1.0000 </r>
       <r>   -29.2207     0.0000     1.0000 </r>
       <r>   -29.0603     0.0000     1.0000 </r>
       <r>   -28.8998     0.0000     1.0000 </r>
       <r>   -28.7393     0.0000     1.0000 </r>
       <r>   -28.5789     0.0000     1.0000 </r>
       <r>   -28.4184     0.0000     1.0000 </r>
       <r>   -28.2579     0.0000     1.0000 </r>
       <r>   -28.0975     0.0000     1.0000 </r>
       <r>   -27.9370     0.0000     1.0000 </r>
       <r>   -27.7765     0.0000     1.0000 </r>
       <r>   -27.6161     0.0000     1.0000 </r>
       <r>   -27.4556     0.0000     1.0000 </r>
       <r>   -27.2951     0.0000     1.0000 </r>
       <r>   -27.1347     0.0000     1.0000 </r>
       <r>   -26.9742     0.0000     1.0000 </r>
       <r>   -26.8137     0.0000     1.0000 </r>
       <r>   -26.6533     0.0000     1.0000 </r>
       <r>   -26.4928     0.0000     1.0000 </r>
       <r>   -26.3323     0.0000     1.0000 </r>
       <r>   -26.1719     0.0000     1.0000 </r>
       <r>   -26.0114     0.0000     1.0000 </r>
       <r>   -25.8509     0.0000     1.0000 </r>
       <r>   -25.6905     0.0000     1.0000 </r>
       <r>   -25.5300     0.0000     1.0000 </r>
       <r>   -25.3695     0.0000     1.0000 </r>
       <r>   -25.2091     0.0000     1.0000 </r>
       <r>   -25.0486     0.0000     1.0000 </r>
       <r>   -24.8881     0.0000     1.0000 </r>
       <r>   -24.7277     0.0000     1.0000 </r>
       <r>   -24.5672     0.0000     1.0000 </r>
       <r>   -24.4068     0.0000     1.0000 </r>
       <r>   -24.2463     0.0000     1.0000 </r>
       <r>   -24.0858     0.0000     1.0000 </r>
       <r>   -23.9254     0.0000     1.0000 </r>
       <r>   -23.7649     0.0000     1.0000 </r>
       <r>   -23.6044     0.0000     1.0000 </r>
       <r>   -23.4440     0.0000     1.0000 </r>
       <r>   -23.2835     0.0000     1.0000 </r>
       <r>   -23.1230     0.0000     1.0000 </r>
       <r>   -22.9626     0.0000     1.0000 </r>
       <r>   -22.8021     0.0000     1.0000 </r>
       <r>   -22.6416     0.0000     1.0000 </r>
       <r>   -22.4812     0.0000     1.0000 </r>
       <r>   -22.3207     0.0000     1.0000 </r>
       <r>   -22.1602     0.0000     1.0000 </r>
       <r>   -21.9998     0.0000     1.0000 </r>
       <r>   -21.8393     0.0000     1.0000 </r>
       <r>   -21.6788     0.0000     1.0000 </r>
       <r>   -21.5184     0.0000     1.0000 </r>
       <r>   -21.3579     0.0000     1.0000 </r>
       <r>   -21.1974     0.0000     1.0000 </r>
       <r>   -21.0370     0.0000     1.0000 </r>
       <r>   -20.8765     0.0000     1.0000 </r>
       <r>   -20.7160     0.0000     1.0000 </r>
       <r>   -20.5556     0.0000     1.0000 </r>
       <r>   -20.3951     0.0000     1.0000 </r>
       <r>   -20.2346     0.0000     1.0000 </r>
       <r>   -20.0742     0.0000     1.0000 </r>
       <r>   -19.9137     0.0000     1.0000 </r>
       <r>   -19.7533     0.0000     1.0000 </r>
       <r>   -19.5928     0.0000     1.0000 </r>
       <r>   -19.4323     0.0000     1.0000 </r>
       <r>   -19.2719     0.0000     1.0000 </r>
       <r>   -19.1114     0.0000     1.0000 </r>
       <r>   -18.9509     0.0000     1.0000 </r>
       <r>   -18.7905     0.0000     1.0000 </r>
       <r>   -18.6300     0.0000     1.0000 </r>
       <r>   -18.4695     0.0000     1.0000 </r>
       <r>   -18.3091     0.0000     1.0000 </r>
       <r>   -18.1486     0.0000     1.0000 </r>
       <r>   -17.9881     0.0000     1.0000 </r>
       <r>   -17.8277     0.0000     1.0000 </r>
       <r>   -17.6672     0.0000     1.0000 </r>
       <r>   -17.5067     0.0000     1.0000 </r>
       <r>   -17.3463     0.0000     1.0000 </r>
       <r>   -17.1858     0.0000     1.0000 </r>
       <r>   -17.0253     0.0000     1.0000 </r>
       <r>   -16.8649     0.0000     1.0000 </r>
       <r>   -16.7044     0.0000     1.0000 </r>
       <r>   -16.5439     0.0000     1.0000 </r>
       <r>   -16.3835     0.0000     1.0000 </r>
       <r>   -16.2230     0.0000     1.0000 </r>
       <r>   -16.0625     0.0000     1.0000 </r>
       <r>   -15.9021     0.0000     1.0000 </r>
       <r>   -15.7416     0.0000     1.0000 </r>
       <r>   -15.5811     0.0000     1.0000 </r>
       <r>   -15.4207     0.0000     1.0000 </r>
       <r>   -15.2602     0.0000     1.0000 </r>
       <r>   -15.0998     0.0000     1.0000 </r>
       <r>   -14.9393     0.0000     1.0000 </r>
       <r>   -14.7788     0.0000     1.0000 </r>
       <r>   -14.6184     0.0000     1.0000 </r>
       <r>   -14.4579     0.0000     1.0000 </r>
       <r>   -14.2974     0.0000     1.0000 </r>
       <r>   -14.1370     0.0000     1.0000 </r>
       <r>   -13.9765     0.0000     1.0000 </r>
       <r>   -13.8160     0.0000     1.0000 </r>
       <r>   -13.6556     0.0000     1.0000 </r>
       <r>   -13.4951     0.0000     1.0000 </r>
       <r>   -13.3346     0.4980     1.0799 </r>
       <r>   -13.1742    18.1120     3.9863 </r>
       <r>   -13.0137     0.0857     4.0000 </r>
       <r>   -12.8532     0.0000     4.0000 </r>
       <r>   -12.6928     0.0000     4.0000 </r>
       <r>   -12.5323     0.0000     4.0000 </r>
       <r>   -12.3718     0.0000     4.0000 </r>
       <r>   -12.2114     0.0000     4.0000 </r>
       <r>   -12.0509     0.0000     4.0000 </r>
       <r>   -11.8904     0.0000     4.0000 </r>
       <r>   -11.7300     0.0000     4.0000 </r>
       <r>   -11.5695     0.0000     4.0000 </r>
       <r>   -11.4090     0.0000     4.0000 </r>
       <r>   -11.2486     0.0000     4.0000 </r>
       <r>   -11.0881     0.0000     4.0000 </r>
       <r>   -10.9276     0.0000     4.0000 </r>
       <r>   -10.7672     0.0000     4.0000 </r>
       <r>   -10.6067     0.0000     4.0000 </r>
       <r>   -10.4463     0.0000     4.0000 </r>
       <r>   -10.2858     0.0000     4.0000 </r>
       <r>   -10.1253     0.0000     4.0000 </r>
       <r>    -9.9649     0.0000     4.0000 </r>
       <r>    -9.8044     0.0000     4.0000 </r>
       <r>    -9.6439     0.0000     4.0000 </r>
       <r>    -9.4835     0.0000     4.0000 </r>
       <r>    -9.3230     0.0000     4.0000 </r>
       <r>    -9.1625     0.0000     4.0000 </r>
       <r>    -9.0021     0.0000     4.0000 </r>
       <r>    -8.8416     0.0000     4.0000 </r>
       <r>    -8.6811     0.0000     4.0000 </r>
       <r>    -8.5207     0.0000     4.0000 </r>
       <r>    -8.3602     0.0000     4.0000 </r>
       <r>    -8.1997     0.0000     4.0000 </r>
       <r>    -8.0393     0.0000     4.0000 </r>
       <r>    -7.8788     0.0000     4.0000 </r>
       <r>    -7.7183     0.0000     4.0000 </r>
       <r>    -7.5579     0.0000     4.0000 </r>
       <r>    -7.3974     0.0000     4.0000 </r>
       <r>    -7.2369     0.0000     4.0000 </r>
       <r>    -7.0765     0.0000     4.0000 </r>
       <r>    -6.9160     0.0000     4.0000 </r>
       <r>    -6.7555     0.0000     4.0000 </r>
       <r>    -6.5951     0.0000     4.0000 </r>
       <r>    -6.4346     0.0000     4.0000 </r>
       <r>    -6.2742     0.0000     4.0000 </r>
       <r>    -6.1137     0.0000     4.0000 </r>
       <r>    -5.9532     0.0000     4.0000 </r>
       <r>    -5.7928     0.0000     4.0000 </r>
       <r>    -5.6323     0.0000     4.0000 </r>
       <r>    -5.4718     0.0000     4.0000 </r>
       <r>    -5.3114     0.0000     4.0000 </r>
       <r>    -5.1509     0.0000     4.0000 </r>
       <r>    -4.9904     0.0000     4.0000 </r>
       <r>    -4.8300     0.0000     4.0000 </r>
       <r>    -4.6695     0.0000     4.0000 </r>
       <r>    -4.5090     0.0000     4.0000 </r>
       <r>    -4.3486     0.0000     4.0000 </r>
       <r>    -4.1881     0.0000     4.0000 </r>
       <r>    -4.0276     0.0000     4.0000 </r>
       <r>    -3.8672     0.0000     4.0000 </r>
       <r>    -3.7067     0.0000     4.0000 </r>
       <r>    -3.5462     0.0000     4.0000 </r>
       <r>    -3.3858     0.0000     4.0000 </r>
       <r>    -3.2253     0.0000     4.0000 </r>
       <r>    -3.0648     0.0000     4.0000 </r>
       <r>    -2.9044     0.0000     4.0000 </r>
       <r>    -2.7439     0.0000     4.0000 </r>
       <r>    -2.5834     0.0000     4.0000 </r>
       <r>    -2.4230     0.0000     4.0000 </r>
       <r>    -2.2625     0.0000     4.0000 </r>
       <r>    -2.1020     0.0000     4.0000 </r>
       <r>    -1.9416     0.0000     4.0000 </r>
       <r>    -1.7811     0.0000     4.0000 </r>
       <r>    -1.6207     0.0000     4.0000 </r>
       <r>    -1.4602     0.0000     4.0000 </r>
       <r>    -1.2997     0.0000     4.0000 </r>
       <r>    -1.1393     0.0000     4.0000 </r>
       <r>    -0.9788     0.0000     4.0000 </r>
       <r>    -0.8183     0.0000     4.0000 </r>
       <r>    -0.6579     0.0000     4.0000 </r>
       <r>    -0.4974     0.0000     4.0000 </r>
       <r>    -0.3369     0.5928     4.0951 </r>
       <r>    -0.1765     5.6352     4.9994 </r>
       <r>    -0.0160     0.0039     5.0000 </r>
       <r>     0.1445     0.0000     5.0000 </r>
       <r>     0.3049     0.0000     5.0000 </r>
       <r>     0.4654     0.0000     5.0000 </r>
       <r>     0.6259     0.0000     5.0000 </r>
       <r>     0.7863     0.0000     5.0000 </r>
       <r>     0.9468     0.6188     5.0993 </r>
       <r>     1.1073     5.6096     5.9994 </r>
       <r>     1.2677     2.6252     6.4207 </r>
       <r>     1.4282    18.1670     9.3359 </r>
       <r>     1.5887    10.3685    10.9997 </r>
       <r>     1.7491     0.0022    11.0000 </r>
       <r>     1.9096     0.0000    11.0000 </r>
       <r>     2.0701     0.0000    11.0000 </r>
       <r>     2.2305     0.0000    11.0000 </r>
       <r>     2.3910     0.0000    11.0000 </r>
       <r>     2.5515     0.0001    11.0000 </r>
       <r>     2.7119     9.5371    12.5304 </r>
       <r>     2.8724    32.0262    17.6695 </r>
       <r>     3.0328    29.0923    22.3378 </r>
       <r>     3.1933     4.1267    23.0000 </r>
       <r>     3.3538     0.0001    23.0000 </r>
       <r>     3.5142     0.0000    23.0000 </r>
       <r>     3.6747     0.0000    23.0000 </r>
       <r>     3.8352     0.0000    23.0000 </r>
       <r>     3.9956     0.0000    23.0000 </r>
       <r>     4.1561     0.0000    23.0000 </r>
       <r>     4.3166     4.6171    23.7409 </r>
       <r>     4.4770    26.5239    27.9971 </r>
       <r>     4.6375     0.0184    28.0000 </r>
       <r>     4.7980     1.6672    28.2675 </r>
       <r>     4.9584     8.8526    29.6881 </r>
       <r>     5.1189     1.9440    30.0000 </r>
       <r>     5.2794     2.0367    30.3268 </r>
       <r>     5.4398    10.4007    31.9958 </r>
       <r>     5.6003     4.2127    32.6718 </r>
       <r>     5.7608     8.2652    33.9980 </r>
       <r>     5.9212     0.0123    34.0000 </r>
       <r>     6.0817     0.0000    34.0000 </r>
       <r>     6.2422     0.0000    34.0000 </r>
       <r>     6.4026     0.0000    34.0000 </r>
       <r>     6.5631     0.0225    34.0036 </r>
       <r>     6.7236     6.0102    34.9680 </r>
       <r>     6.8840     0.2589    35.0096 </r>
       <r>     7.0445     6.0847    35.9860 </r>
       <r>     7.2050     0.0873    36.0000 </r>
       <r>     7.3654     0.0000    36.0000 </r>
       <r>     7.5259     0.0000    36.0000 </r>
       <r>     7.6863     0.0000    36.0000 </r>
       <r>     7.8468     0.0000    36.0000 </r>
       <r>     8.0073     0.0000    36.0000 </r>
       <r>     8.1677     0.0000    36.0000 </r>
       <r>     8.3282     0.0000    36.0000 </r>
       <r>     8.4887     0.0000    36.0000 </r>
       <r>     8.6491     0.0000    36.0000 </r>
       <r>     8.8096     0.0000    36.0000 </r>
       <r>     8.9701     0.0000    36.0000 </r>
       <r>     9.1305     0.0000    36.0000 </r>
       <r>     9.2910     0.0000    36.0000 </r>
       <r>     9.4515     0.0000    36.0000 </r>
       <r>     9.6119     0.0000    36.0000 </r>
      </set>
     </set>
    </array>
   </total>
   <partial>
    <array>
     <dimension dim="1">gridpoints</dimension>
     <dimension dim="2">spin</dimension>
     <dimension dim="3">ion</dimension>
     <field>energy</field>
     <field>    s</field>
     <field>   py</field>
     <field>   pz</field>
     <field>   px</field>
     <field>  dxy</field>
     <field>  dyz</field>
     <field>  dz2</field>
     <field>  dxz</field>
     <field>x2-y2</field>
     <set>
      <set comment="ion 1">
       <set comment="spin 1">
        <r>   -38.5277     0.0000     0.0000     0.0000     0.0000     0.0000     0.0000     0.0000     0.0000     0.0000 </r>
        <r>   -38.3673     0.0000     0.0000     0.0000     0.0000     0.0000     0.0000     0.0000     0.0000     0.0000 </r>
        <r>   -38.2068     0.0000     0.0000     0.0000     0.0000     0.0000     0.0000     0.0000     0.0000     0.0000 </r>
        <r>   -38.0463     0.0000     0.0000     0.0000     0.0000     0.0000     0.0000     0.0000     0.0000     0.0000 </r>
        <r>   -37.8859     0.0000     0.0000     0.0000     0.0000     0.0000     0.0000     0.0000     0.0000     0.0000 </r>
        <r>   -37.7254     0.0000     0.0000     0.0000     0.0000     0.0000     0.0000     0.0000     0.0000     0.0000 </r>
        <r>   -37.5649     0.0000     0.0000     0.0000     0.0000     0.0000     0.0000     0.0000     0.0000     0.0000 </r>
        <r>   -37.4045     0.0000     0.0000     0.0000     0.0000     0.0000     0.0000     0.0000     0.0000     0.0000 </r>
        <r>   -37.2440     0.0000     0.0000     0.0000     0.0000     0.0000     0.0000     0.0000     0.0000     0.0000 </r>
        <r>   -37.0835     0.0000     0.0000     0.0000     0.0000     0.0000     0.0000     0.0000     0.0000     0.0000 </r>
        <r>   -36.9231     0.0000     0.0000     0.0000     0.0000     0.0000     0.0000     0.0000     0.0000     0.0000 </r>
        <r>   -36.7626     0.0000     0.0000     0.0000     0.0000     0.0000     0.0000     0.0000     0.0000     0.0000 </r>
        <r>   -36.6021     0.0000     0.0000     0.0000     0.0000     0.0000     0.0000     0.0000     0.0000     0.0000 </r>
        <r>   -36.4417     0.0117     0.0000     0.0000     0.0000     0.0000     0.0000     0.0000     0.0000     0.0000 </r>
        <r>   -36.2812     5.7079     0.0000     0.0000     0.0000     0.0000     0.0000     0.0000     0.0000     0.0000 </r>
        <r>   -36.1207     0.2974     0.0000     0.0000     0.0000     0.0000     0.0000     0.0000     0.0000     0.0000 </r>
        <r>   -35.9603     0.0000     0.0000     0.0000     0.0000     0.0000     0.0000     0.0000     0.0000     0.0000 </r>
        <r>   -35.7998     0.0000     0.0000     0.0000     0.0000     0.0000     0.0000     0.0000     0.0000     0.0000 </r>
        <r>   -35.6393     0.0000     0.0000     0.0000     0.0000     0.0000     0.0000     0.0000     0.0000     0.0000 </r>
        <r>   -35.4789     0.0000     0.0000     0.0000     0.0000     0.0000     0.0000     0.0000     0.0000     0.0000 </r>
        <r>   -35.3184     0.0000     0.0000     0.0000     0.0000     0.0000     0.0000     0.0000     0.0000     0.0000 </r>
        <r>   -35.1579     0.0000     0.0000     0.0000     0.0000     0.0000     0.0000     0.0000     0.0000     0.0000 </r>
        <r>   -34.9975     0.0000     0.0000     0.0000     0.0000     0.0000     0.0000     0.0000     0.0000     0.0000 </r>
        <r>   -34.8370     0.0000     0.0000     0.0000     0.0000     0.0000     0.0000     0.0000     0.0000     0.0000 </r>
        <r>   -34.6765     0.0000     0.0000     0.0000     0.0000     0.0000     0.0000     0.0000     0.0000     0.0000 </r>
        <r>   -34.5161     0.0000     0.0000     0.0000     0.0000     0.0000     0.0000     0.0000     0.0000     0.0000 </r>
        <r>   -34.3556     0.0000     0.0000     0.0000     0.0000     0.0000     0.0000     0.0000     0.0000     0.0000 </r>
        <r>   -34.1951     0.0000     0.0000     0.0000     0.0000     0.0000     0.0000     0.0000     0.0000     0.0000 </r>
        <r>   -34.0347     0.0000     0.0000     0.0000     0.0000     0.0000     0.0000     0.0000     0.0000     0.0000 </r>
        <r>   -33.8742     0.0000     0.0000     0.0000     0.0000     0.0000     0.0000     0.0000     0.0000     0.0000 </r>
        <r>   -33.7138     0.0000     0.0000     0.0000     0.0000     0.0000     0.0000     0.0000     0.0000     0.0000 </r>
        <r>   -33.5533     0.0000     0.0000     0.0000     0.0000     0.0000     0.0000     0.0000     0.0000     0.0000 </r>
        <r>   -33.3928     0.0000     0.0000     0.0000     0.0000     0.0000     0.0000     0.0000     0.0000     0.0000 </r>
        <r>   -33.2324     0.0000     0.0000     0.0000     0.0000     0.0000     0.0000     0.0000     0.0000     0.0000 </r>
        <r>   -33.0719     0.0000     0.0000     0.0000     0.0000     0.0000     0.0000     0.0000     0.0000     0.0000 </r>
        <r>   -32.9114     0.0000     0.0000     0.0000     0.0000     0.0000     0.0000     0.0000     0.0000     0.0000 </r>
        <r>   -32.7510     0.0000     0.0000     0.0000     0.0000     0.0000     0.0000     0.0000     0.0000     0.0000 </r>
        <r>   -32.5905     0.0000     0.0000     0.0000     0.0000     0.0000     0.0000     0.0000     0.0000     0.0000 </r>
        <r>   -32.4300     0.0000     0.0000     0.0000     0.0000     0.0000     0.0000     0.0000     0.0000     0.0000 </r>
        <r>   -32.2696     0.0000     0.0000     0.0000     0.0000     0.0000     0.0000     0.0000     0.0000     0.0000 </r>
        <r>   -32.1091     0.0000     0.0000     0.0000     0.0000     0.0000     0.0000     0.0000     0.0000     0.0000 </r>
        <r>   -31.9486     0.0000     0.0000     0.0000     0.0000     0.0000     0.0000     0.0000     0.0000     0.0000 </r>
        <r>   -31.7882     0.0000     0.0000     0.0000     0.0000     0.0000     0.0000     0.0000     0.0000     0.0000 </r>
        <r>   -31.6277     0.0000     0.0000     0.0000     0.0000     0.0000     0.0000     0.0000     0.0000     0.0000 </r>
        <r>   -31.4672     0.0000     0.0000     0.0000     0.0000     0.0000     0.0000     0.0000     0.0000     0.0000 </r>
        <r>   -31.3068     0.0000     0.0000     0.0000     0.0000     0.0000     0.0000     0.0000     0.0000     0.0000 </r>
        <r>   -31.1463     0.0000     0.0000     0.0000     0.0000     0.0000     0.0000     0.0000     0.0000     0.0000 </r>
        <r>   -30.9858     0.0000     0.0000     0.0000     0.0000     0.0000     0.0000     0.0000     0.0000     0.0000 </r>
        <r>   -30.8254     0.0000     0.0000     0.0000     0.0000     0.0000     0.0000     0.0000     0.0000     0.0000 </r>
        <r>   -30.6649     0.0000     0.0000     0.0000     0.0000     0.0000     0.0000     0.0000     0.0000     0.0000 </r>
        <r>   -30.5044     0.0000     0.0000     0.0000     0.0000     0.0000     0.0000     0.0000     0.0000     0.0000 </r>
        <r>   -30.3440     0.0000     0.0000     0.0000     0.0000     0.0000     0.0000     0.0000     0.0000     0.0000 </r>
        <r>   -30.1835     0.0000     0.0000     0.0000     0.0000     0.0000     0.0000     0.0000     0.0000     0.0000 </r>
        <r>   -30.0230     0.0000     0.0000     0.0000     0.0000     0.0000     0.0000     0.0000     0.0000     0.0000 </r>
        <r>   -29.8626     0.0000     0.0000     0.0000     0.0000     0.0000     0.0000     0.0000     0.0000     0.0000 </r>
        <r>   -29.7021     0.0000     0.0000     0.0000     0.0000     0.0000     0.0000     0.0000     0.0000     0.0000 </r>
        <r>   -29.5416     0.0000     0.0000     0.0000     0.0000     0.0000     0.0000     0.0000     0.0000     0.0000 </r>
        <r>   -29.3812     0.0000     0.0000     0.0000     0.0000     0.0000     0.0000     0.0000     0.0000     0.0000 </r>
        <r>   -29.2207     0.0000     0.0000     0.0000     0.0000     0.0000     0.0000     0.0000     0.0000     0.0000 </r>
        <r>   -29.0603     0.0000     0.0000     0.0000     0.0000     0.0000     0.0000     0.0000     0.0000     0.0000 </r>
        <r>   -28.8998     0.0000     0.0000     0.0000     0.0000     0.0000     0.0000     0.0000     0.0000     0.0000 </r>
        <r>   -28.7393     0.0000     0.0000     0.0000     0.0000     0.0000     0.0000     0.0000     0.0000     0.0000 </r>
        <r>   -28.5789     0.0000     0.0000     0.0000     0.0000     0.0000     0.0000     0.0000     0.0000     0.0000 </r>
        <r>   -28.4184     0.0000     0.0000     0.0000     0.0000     0.0000     0.0000     0.0000     0.0000     0.0000 </r>
        <r>   -28.2579     0.0000     0.0000     0.0000     0.0000     0.0000     0.0000     0.0000     0.0000     0.0000 </r>
        <r>   -28.0975     0.0000     0.0000     0.0000     0.0000     0.0000     0.0000     0.0000     0.0000     0.0000 </r>
        <r>   -27.9370     0.0000     0.0000     0.0000     0.0000     0.0000     0.0000     0.0000     0.0000     0.0000 </r>
        <r>   -27.7765     0.0000     0.0000     0.0000     0.0000     0.0000     0.0000     0.0000     0.0000     0.0000 </r>
        <r>   -27.6161     0.0000     0.0000     0.0000     0.0000     0.0000     0.0000     0.0000     0.0000     0.0000 </r>
        <r>   -27.4556     0.0000     0.0000     0.0000     0.0000     0.0000     0.0000     0.0000     0.0000     0.0000 </r>
        <r>   -27.2951     0.0000     0.0000     0.0000     0.0000     0.0000     0.0000     0.0000     0.0000     0.0000 </r>
        <r>   -27.1347     0.0000     0.0000     0.0000     0.0000     0.0000     0.0000     0.0000     0.0000     0.0000 </r>
        <r>   -26.9742     0.0000     0.0000     0.0000     0.0000     0.0000     0.0000     0.0000     0.0000     0.0000 </r>
        <r>   -26.8137     0.0000     0.0000     0.0000     0.0000     0.0000     0.0000     0.0000     0.0000     0.0000 </r>
        <r>   -26.6533     0.0000     0.0000     0.0000     0.0000     0.0000     0.0000     0.0000     0.0000     0.0000 </r>
        <r>   -26.4928     0.0000     0.0000     0.0000     0.0000     0.0000     0.0000     0.0000     0.0000     0.0000 </r>
        <r>   -26.3323     0.0000     0.0000     0.0000     0.0000     0.0000     0.0000     0.0000     0.0000     0.0000 </r>
        <r>   -26.1719     0.0000     0.0000     0.0000     0.0000     0.0000     0.0000     0.0000     0.0000     0.0000 </r>
        <r>   -26.0114     0.0000     0.0000     0.0000     0.0000     0.0000     0.0000     0.0000     0.0000     0.0000 </r>
        <r>   -25.8509     0.0000     0.0000     0.0000     0.0000     0.0000     0.0000     0.0000     0.0000     0.0000 </r>
        <r>   -25.6905     0.0000     0.0000     0.0000     0.0000     0.0000     0.0000     0.0000     0.0000     0.0000 </r>
        <r>   -25.5300     0.0000     0.0000     0.0000     0.0000     0.0000     0.0000     0.0000     0.0000     0.0000 </r>
        <r>   -25.3695     0.0000     0.0000     0.0000     0.0000     0.0000     0.0000     0.0000     0.0000     0.0000 </r>
        <r>   -25.2091     0.0000     0.0000     0.0000     0.0000     0.0000     0.0000     0.0000     0.0000     0.0000 </r>
        <r>   -25.0486     0.0000     0.0000     0.0000     0.0000     0.0000     0.0000     0.0000     0.0000     0.0000 </r>
        <r>   -24.8881     0.0000     0.0000     0.0000     0.0000     0.0000     0.0000     0.0000     0.0000     0.0000 </r>
        <r>   -24.7277     0.0000     0.0000     0.0000     0.0000     0.0000     0.0000     0.0000     0.0000     0.0000 </r>
        <r>   -24.5672     0.0000     0.0000     0.0000     0.0000     0.0000     0.0000     0.0000     0.0000     0.0000 </r>
        <r>   -24.4068     0.0000     0.0000     0.0000     0.0000     0.0000     0.0000     0.0000     0.0000     0.0000 </r>
        <r>   -24.2463     0.0000     0.0000     0.0000     0.0000     0.0000     0.0000     0.0000     0.0000     0.0000 </r>
        <r>   -24.0858     0.0000     0.0000     0.0000     0.0000     0.0000     0.0000     0.0000     0.0000     0.0000 </r>
        <r>   -23.9254     0.0000     0.0000     0.0000     0.0000     0.0000     0.0000     0.0000     0.0000     0.0000 </r>
        <r>   -23.7649     0.0000     0.0000     0.0000     0.0000     0.0000     0.0000     0.0000     0.0000     0.0000 </r>
        <r>   -23.6044     0.0000     0.0000     0.0000     0.0000     0.0000     0.0000     0.0000     0.0000     0.0000 </r>
        <r>   -23.4440     0.0000     0.0000     0.0000     0.0000     0.0000     0.0000     0.0000     0.0000     0.0000 </r>
        <r>   -23.2835     0.0000     0.0000     0.0000     0.0000     0.0000     0.0000     0.0000     0.0000     0.0000 </r>
        <r>   -23.1230     0.0000     0.0000     0.0000     0.0000     0.0000     0.0000     0.0000     0.0000     0.0000 </r>
        <r>   -22.9626     0.0000     0.0000     0.0000     0.0000     0.0000     0.0000     0.0000     0.0000     0.0000 </r>
        <r>   -22.8021     0.0000     0.0000     0.0000     0.0000     0.0000     0.0000     0.0000     0.0000     0.0000 </r>
        <r>   -22.6416     0.0000     0.0000     0.0000     0.0000     0.0000     0.0000     0.0000     0.0000     0.0000 </r>
        <r>   -22.4812     0.0000     0.0000     0.0000     0.0000     0.0000     0.0000     0.0000     0.0000     0.0000 </r>
        <r>   -22.3207     0.0000     0.0000     0.0000     0.0000     0.0000     0.0000     0.0000     0.0000     0.0000 </r>
        <r>   -22.1602     0.0000     0.0000     0.0000     0.0000     0.0000     0.0000     0.0000     0.0000     0.0000 </r>
        <r>   -21.9998     0.0000     0.0000     0.0000     0.0000     0.0000     0.0000     0.0000     0.0000     0.0000 </r>
        <r>   -21.8393     0.0000     0.0000     0.0000     0.0000     0.0000     0.0000     0.0000     0.0000     0.0000 </r>
        <r>   -21.6788     0.0000     0.0000     0.0000     0.0000     0.0000     0.0000     0.0000     0.0000     0.0000 </r>
        <r>   -21.5184     0.0000     0.0000     0.0000     0.0000     0.0000     0.0000     0.0000     0.0000     0.0000 </r>
        <r>   -21.3579     0.0000     0.0000     0.0000     0.0000     0.0000     0.0000     0.0000     0.0000     0.0000 </r>
        <r>   -21.1974     0.0000     0.0000     0.0000     0.0000     0.0000     0.0000     0.0000     0.0000     0.0000 </r>
        <r>   -21.0370     0.0000     0.0000     0.0000     0.0000     0.0000     0.0000     0.0000     0.0000     0.0000 </r>
        <r>   -20.8765     0.0000     0.0000     0.0000     0.0000     0.0000     0.0000     0.0000     0.0000     0.0000 </r>
        <r>   -20.7160     0.0000     0.0000     0.0000     0.0000     0.0000     0.0000     0.0000     0.0000     0.0000 </r>
        <r>   -20.5556     0.0000     0.0000     0.0000     0.0000     0.0000     0.0000     0.0000     0.0000     0.0000 </r>
        <r>   -20.3951     0.0000     0.0000     0.0000     0.0000     0.0000     0.0000     0.0000     0.0000     0.0000 </r>
        <r>   -20.2346     0.0000     0.0000     0.0000     0.0000     0.0000     0.0000     0.0000     0.0000     0.0000 </r>
        <r>   -20.0742     0.0000     0.0000     0.0000     0.0000     0.0000     0.0000     0.0000     0.0000     0.0000 </r>
        <r>   -19.9137     0.0000     0.0000     0.0000     0.0000     0.0000     0.0000     0.0000     0.0000     0.0000 </r>
        <r>   -19.7533     0.0000     0.0000     0.0000     0.0000     0.0000     0.0000     0.0000     0.0000     0.0000 </r>
        <r>   -19.5928     0.0000     0.0000     0.0000     0.0000     0.0000     0.0000     0.0000     0.0000     0.0000 </r>
        <r>   -19.4323     0.0000     0.0000     0.0000     0.0000     0.0000     0.0000     0.0000     0.0000     0.0000 </r>
        <r>   -19.2719     0.0000     0.0000     0.0000     0.0000     0.0000     0.0000     0.0000     0.0000     0.0000 </r>
        <r>   -19.1114     0.0000     0.0000     0.0000     0.0000     0.0000     0.0000     0.0000     0.0000     0.0000 </r>
        <r>   -18.9509     0.0000     0.0000     0.0000     0.0000     0.0000     0.0000     0.0000     0.0000     0.0000 </r>
        <r>   -18.7905     0.0000     0.0000     0.0000     0.0000     0.0000     0.0000     0.0000     0.0000     0.0000 </r>
        <r>   -18.6300     0.0000     0.0000     0.0000     0.0000     0.0000     0.0000     0.0000     0.0000     0.0000 </r>
        <r>   -18.4695     0.0000     0.0000     0.0000     0.0000     0.0000     0.0000     0.0000     0.0000     0.0000 </r>
        <r>   -18.3091     0.0000     0.0000     0.0000     0.0000     0.0000     0.0000     0.0000     0.0000     0.0000 </r>
        <r>   -18.1486     0.0000     0.0000     0.0000     0.0000     0.0000     0.0000     0.0000     0.0000     0.0000 </r>
        <r>   -17.9881     0.0000     0.0000     0.0000     0.0000     0.0000     0.0000     0.0000     0.0000     0.0000 </r>
        <r>   -17.8277     0.0000     0.0000     0.0000     0.0000     0.0000     0.0000     0.0000     0.0000     0.0000 </r>
        <r>   -17.6672     0.0000     0.0000     0.0000     0.0000     0.0000     0.0000     0.0000     0.0000     0.0000 </r>
        <r>   -17.5067     0.0000     0.0000     0.0000     0.0000     0.0000     0.0000     0.0000     0.0000     0.0000 </r>
        <r>   -17.3463     0.0000     0.0000     0.0000     0.0000     0.0000     0.0000     0.0000     0.0000     0.0000 </r>
        <r>   -17.1858     0.0000     0.0000     0.0000     0.0000     0.0000     0.0000     0.0000     0.0000     0.0000 </r>
        <r>   -17.0253     0.0000     0.0000     0.0000     0.0000     0.0000     0.0000     0.0000     0.0000     0.0000 </r>
        <r>   -16.8649     0.0000     0.0000     0.0000     0.0000     0.0000     0.0000     0.0000     0.0000     0.0000 </r>
        <r>   -16.7044     0.0000     0.0000     0.0000     0.0000     0.0000     0.0000     0.0000     0.0000     0.0000 </r>
        <r>   -16.5439     0.0000     0.0000     0.0000     0.0000     0.0000     0.0000     0.0000     0.0000     0.0000 </r>
        <r>   -16.3835     0.0000     0.0000     0.0000     0.0000     0.0000     0.0000     0.0000     0.0000     0.0000 </r>
        <r>   -16.2230     0.0000     0.0000     0.0000     0.0000     0.0000     0.0000     0.0000     0.0000     0.0000 </r>
        <r>   -16.0625     0.0000     0.0000     0.0000     0.0000     0.0000     0.0000     0.0000     0.0000     0.0000 </r>
        <r>   -15.9021     0.0000     0.0000     0.0000     0.0000     0.0000     0.0000     0.0000     0.0000     0.0000 </r>
        <r>   -15.7416     0.0000     0.0000     0.0000     0.0000     0.0000     0.0000     0.0000     0.0000     0.0000 </r>
        <r>   -15.5811     0.0000     0.0000     0.0000     0.0000     0.0000     0.0000     0.0000     0.0000     0.0000 </r>
        <r>   -15.4207     0.0000     0.0000     0.0000     0.0000     0.0000     0.0000     0.0000     0.0000     0.0000 </r>
        <r>   -15.2602     0.0000     0.0000     0.0000     0.0000     0.0000     0.0000     0.0000     0.0000     0.0000 </r>
        <r>   -15.0998     0.0000     0.0000     0.0000     0.0000     0.0000     0.0000     0.0000     0.0000     0.0000 </r>
        <r>   -14.9393     0.0000     0.0000     0.0000     0.0000     0.0000     0.0000     0.0000     0.0000     0.0000 </r>
        <r>   -14.7788     0.0000     0.0000     0.0000     0.0000     0.0000     0.0000     0.0000     0.0000     0.0000 </r>
        <r>   -14.6184     0.0000     0.0000     0.0000     0.0000     0.0000     0.0000     0.0000     0.0000     0.0000 </r>
        <r>   -14.4579     0.0000     0.0000     0.0000     0.0000     0.0000     0.0000     0.0000     0.0000     0.0000 </r>
        <r>   -14.2974     0.0000     0.0000     0.0000     0.0000     0.0000     0.0000     0.0000     0.0000     0.0000 </r>
        <r>   -14.1370     0.0000     0.0000     0.0000     0.0000     0.0000     0.0000     0.0000     0.0000     0.0000 </r>
        <r>   -13.9765     0.0000     0.0000     0.0000     0.0000     0.0000     0.0000     0.0000     0.0000     0.0000 </r>
        <r>   -13.8160     0.0000     0.0000     0.0000     0.0000     0.0000     0.0000     0.0000     0.0000     0.0000 </r>
        <r>   -13.6556     0.0000     0.0000     0.0000     0.0000     0.0000     0.0000     0.0000     0.0000     0.0000 </r>
        <r>   -13.4951     0.0000     0.0000     0.0000     0.0000     0.0000     0.0000     0.0000     0.0000     0.0000 </r>
        <r>   -13.3346     0.0000     0.1592     0.1592     0.1592     0.0000     0.0000     0.0000     0.0000     0.0000 </r>
        <r>   -13.1742     0.0000     5.4699     5.4699     5.4699     0.0000     0.0000     0.0000     0.0000     0.0000 </r>
        <r>   -13.0137     0.0000     0.0241     0.0241     0.0241     0.0000     0.0000     0.0000     0.0000     0.0000 </r>
        <r>   -12.8532     0.0000     0.0000     0.0000     0.0000     0.0000     0.0000     0.0000     0.0000     0.0000 </r>
        <r>   -12.6928     0.0000     0.0000     0.0000     0.0000     0.0000     0.0000     0.0000     0.0000     0.0000 </r>
        <r>   -12.5323     0.0000     0.0000     0.0000     0.0000     0.0000     0.0000     0.0000     0.0000     0.0000 </r>
        <r>   -12.3718     0.0000     0.0000     0.0000     0.0000     0.0000     0.0000     0.0000     0.0000     0.0000 </r>
        <r>   -12.2114     0.0000     0.0000     0.0000     0.0000     0.0000     0.0000     0.0000     0.0000     0.0000 </r>
        <r>   -12.0509     0.0000     0.0000     0.0000     0.0000     0.0000     0.0000     0.0000     0.0000     0.0000 </r>
        <r>   -11.8904     0.0000     0.0000     0.0000     0.0000     0.0000     0.0000     0.0000     0.0000     0.0000 </r>
        <r>   -11.7300     0.0000     0.0000     0.0000     0.0000     0.0000     0.0000     0.0000     0.0000     0.0000 </r>
        <r>   -11.5695     0.0000     0.0000     0.0000     0.0000     0.0000     0.0000     0.0000     0.0000     0.0000 </r>
        <r>   -11.4090     0.0000     0.0000     0.0000     0.0000     0.0000     0.0000     0.0000     0.0000     0.0000 </r>
        <r>   -11.2486     0.0000     0.0000     0.0000     0.0000     0.0000     0.0000     0.0000     0.0000     0.0000 </r>
        <r>   -11.0881     0.0000     0.0000     0.0000     0.0000     0.0000     0.0000     0.0000     0.0000     0.0000 </r>
        <r>   -10.9276     0.0000     0.0000     0.0000     0.0000     0.0000     0.0000     0.0000     0.0000     0.0000 </r>
        <r>   -10.7672     0.0000     0.0000     0.0000     0.0000     0.0000     0.0000     0.0000     0.0000     0.0000 </r>
        <r>   -10.6067     0.0000     0.0000     0.0000     0.0000     0.0000     0.0000     0.0000     0.0000     0.0000 </r>
        <r>   -10.4463     0.0000     0.0000     0.0000     0.0000     0.0000     0.0000     0.0000     0.0000     0.0000 </r>
        <r>   -10.2858     0.0000     0.0000     0.0000     0.0000     0.0000     0.0000     0.0000     0.0000     0.0000 </r>
        <r>   -10.1253     0.0000     0.0000     0.0000     0.0000     0.0000     0.0000     0.0000     0.0000     0.0000 </r>
        <r>    -9.9649     0.0000     0.0000     0.0000     0.0000     0.0000     0.0000     0.0000     0.0000     0.0000 </r>
        <r>    -9.8044     0.0000     0.0000     0.0000     0.0000     0.0000     0.0000     0.0000     0.0000     0.0000 </r>
        <r>    -9.6439     0.0000     0.0000     0.0000     0.0000     0.0000     0.0000     0.0000     0.0000     0.0000 </r>
        <r>    -9.4835     0.0000     0.0000     0.0000     0.0000     0.0000     0.0000     0.0000     0.0000     0.0000 </r>
        <r>    -9.3230     0.0000     0.0000     0.0000     0.0000     0.0000     0.0000     0.0000     0.0000     0.0000 </r>
        <r>    -9.1625     0.0000     0.0000     0.0000     0.0000     0.0000     0.0000     0.0000     0.0000     0.0000 </r>
        <r>    -9.0021     0.0000     0.0000     0.0000     0.0000     0.0000     0.0000     0.0000     0.0000     0.0000 </r>
        <r>    -8.8416     0.0000     0.0000     0.0000     0.0000     0.0000     0.0000     0.0000     0.0000     0.0000 </r>
        <r>    -8.6811     0.0000     0.0000     0.0000     0.0000     0.0000     0.0000     0.0000     0.0000     0.0000 </r>
        <r>    -8.5207     0.0000     0.0000     0.0000     0.0000     0.0000     0.0000     0.0000     0.0000     0.0000 </r>
        <r>    -8.3602     0.0000     0.0000     0.0000     0.0000     0.0000     0.0000     0.0000     0.0000     0.0000 </r>
        <r>    -8.1997     0.0000     0.0000     0.0000     0.0000     0.0000     0.0000     0.0000     0.0000     0.0000 </r>
        <r>    -8.0393     0.0000     0.0000     0.0000     0.0000     0.0000     0.0000     0.0000     0.0000     0.0000 </r>
        <r>    -7.8788     0.0000     0.0000     0.0000     0.0000     0.0000     0.0000     0.0000     0.0000     0.0000 </r>
        <r>    -7.7183     0.0000     0.0000     0.0000     0.0000     0.0000     0.0000     0.0000     0.0000     0.0000 </r>
[...]
        <r>     2.3910     0.0000     0.0000     0.0000     0.0000     0.0000     0.0000     0.0000     0.0000     0.0000 </r>
        <r>     2.5515     0.0000     0.0000     0.0000     0.0000     0.0000     0.0000     0.0000     0.0000     0.0000 </r>
        <r>     2.7119     0.0461     0.0314     0.0098     0.0062     0.0000     0.0000     0.0000     0.0000     0.0000 </r>
        <r>     2.8724     0.0374     0.0281     0.0357     0.0368     0.0000     0.0000     0.0000     0.0000     0.0000 </r>
        <r>     3.0328     0.0005     0.0036     0.0130     0.0146     0.0000     0.0000     0.0000     0.0000     0.0000 </r>
        <r>     3.1933     0.0000     0.0001     0.0004     0.0001     0.0000     0.0000     0.0000     0.0000     0.0000 </r>
        <r>     3.3538     0.0000     0.0000     0.0000     0.0000     0.0000     0.0000     0.0000     0.0000     0.0000 </r>
        <r>     3.5142     0.0000     0.0000     0.0000     0.0000     0.0000     0.0000     0.0000     0.0000     0.0000 </r>
        <r>     3.6747     0.0000     0.0000     0.0000     0.0000     0.0000     0.0000     0.0000     0.0000     0.0000 </r>
        <r>     3.8352     0.0000     0.0000     0.0000     0.0000     0.0000     0.0000     0.0000     0.0000     0.0000 </r>
        <r>     3.9956     0.0000     0.0000     0.0000     0.0000     0.0000     0.0000     0.0000     0.0000     0.0000 </r>
        <r>     4.1561     0.0000     0.0000     0.0000     0.0000     0.0000     0.0000     0.0000     0.0000     0.0000 </r>
        <r>     4.3166     0.0050     0.0012     0.0003     0.0002     0.0000     0.0000     0.0000     0.0000     0.0000 </r>
        <r>     4.4770     0.0413     0.0165     0.0044     0.0013     0.0000     0.0000     0.0000     0.0000     0.0000 </r>
        <r>     4.6375     0.0000     0.0000     0.0000     0.0000     0.0000     0.0000     0.0000     0.0000     0.0000 </r>
        <r>     4.7980     0.0019     0.0005     0.0050     0.0004     0.0000     0.0000     0.0000     0.0000     0.0000 </r>
        <r>     4.9584     0.0052     0.0018     0.0139     0.0123     0.0000     0.0000     0.0000     0.0000     0.0000 </r>
        <r>     5.1189     0.0000     0.0002     0.0002     0.0051     0.0000     0.0000     0.0000     0.0000     0.0000 </r>
        <r>     5.2794     0.0007     0.0011     0.0003     0.0003     0.0000     0.0000     0.0000     0.0000     0.0000 </r>
        <r>     5.4398     0.0058     0.0025     0.0044     0.0049     0.0000     0.0000     0.0000     0.0000     0.0000 </r>
        <r>     5.6003     0.0052     0.0001     0.0002     0.0040     0.0000     0.0000     0.0000     0.0000     0.0000 </r>
        <r>     5.7608     0.0106     0.0006     0.0024     0.0069     0.0000     0.0000     0.0000     0.0000     0.0000 </r>
        <r>     5.9212     0.0000     0.0000     0.0000     0.0000     0.0000     0.0000     0.0000     0.0000     0.0000 </r>
        <r>     6.0817     0.0000     0.0000     0.0000     0.0000     0.0000     0.0000     0.0000     0.0000     0.0000 </r>
        <r>     6.2422     0.0000     0.0000     0.0000     0.0000     0.0000     0.0000     0.0000     0.0000     0.0000 </r>
        <r>     6.4026     0.0000     0.0000     0.0000     0.0000     0.0000     0.0000     0.0000     0.0000     0.0000 </r>
        <r>     6.5631     0.0000     0.0000     0.0000     0.0000     0.0000     0.0000     0.0000     0.0000     0.0000 </r>
        <r>     6.7236     0.0099     0.0000     0.0025     0.0097     0.0000     0.0000     0.0000     0.0000     0.0000 </r>
        <r>     6.8840     0.0004     0.0000     0.0001     0.0003     0.0000     0.0000     0.0000     0.0000     0.0000 </r>
        <r>     7.0445     0.0072     0.0000     0.0042     0.0004     0.0000     0.0000     0.0000     0.0000     0.0000 </r>
        <r>     7.2050     0.0001     0.0000     0.0001     0.0000     0.0000     0.0000     0.0000     0.0000     0.0000 </r>
        <r>     7.3654     0.0000     0.0000     0.0000     0.0000     0.0000     0.0000     0.0000     0.0000     0.0000 </r>
        <r>     7.5259     0.0000     0.0000     0.0000     0.0000     0.0000     0.0000     0.0000     0.0000     0.0000 </r>
        <r>     7.6863     0.0000     0.0000     0.0000     0.0000     0.0000     0.0000     0.0000     0.0000     0.0000 </r>
        <r>     7.8468     0.0000     0.0000     0.0000     0.0000     0.0000     0.0000     0.0000     0.0000     0.0000 </r>
        <r>     8.0073     0.0000     0.0000     0.0000     0.0000     0.0000     0.0000     0.0000     0.0000     0.0000 </r>
        <r>     8.1677     0.0000     0.0000     0.0000     0.0000     0.0000     0.0000     0.0000     0.0000     0.0000 </r>
        <r>     8.3282     0.0000     0.0000     0.0000     0.0000     0.0000     0.0000     0.0000     0.0000     0.0000 </r>
        <r>     8.4887     0.0000     0.0000     0.0000     0.0000     0.0000     0.0000     0.0000     0.0000     0.0000 </r>
        <r>     8.6491     0.0000     0.0000     0.0000     0.0000     0.0000     0.0000     0.0000     0.0000     0.0000 </r>
        <r>     8.8096     0.0000     0.0000     0.0000     0.0000     0.0000     0.0000     0.0000     0.0000     0.0000 </r>
        <r>     8.9701     0.0000     0.0000     0.0000     0.0000     0.0000     0.0000     0.0000     0.0000     0.0000 </r>
        <r>     9.1305     0.0000     0.0000     0.0000     0.0000     0.0000     0.0000     0.0000     0.0000     0.0000 </r>
        <r>     9.2910     0.0000     0.0000     0.0000     0.0000     0.0000     0.0000     0.0000     0.0000     0.0000 </r>
        <r>     9.4515     0.0000     0.0000     0.0000     0.0000     0.0000     0.0000     0.0000     0.0000     0.0000 </r>
        <r>     9.6119     0.0000     0.0000     0.0000     0.0000     0.0000     0.0000     0.0000     0.0000     0.0000 </r>
       </set>
      </set>
     </set>
    </array>
   </partial>
  </dos>
  <projected>
   <eigenvalues>
    <array>
     <dimension dim="1">band</dimension>
     <dimension dim="2">kpoint</dimension>
     <dimension dim="3">spin</dimension>
     <field>eigene</field>
     <field>occ</field>
     <set>
      <set comment="spin 1">
       <set comment="kpoint 1">
        <r>  -36.3396    1.0000 </r>
        <r>  -13.2672    1.0000 </r>
        <r>  -13.2672    1.0000 </r>
        <r>  -13.2672    1.0000 </r>
        <r>   -0.2862    0.0000 </r>
        <r>    0.9938    0.0000 </r>
        <r>    1.3064    0.0000 </r>
        <r>    1.3087    0.0000 </r>
        <r>    1.3092    0.0000 </r>
        <r>    1.4671    0.0000 </r>
        <r>    1.4679    0.0000 </r>
        <r>    2.7075    0.0000 </r>
        <r>    2.7925    0.0000 </r>
        <r>    2.7953    0.0000 </r>
        <r>    2.8001    0.0000 </r>
        <r>    2.8025    0.0000 </r>
        <r>    2.8493    0.0000 </r>
        <r>    2.8536    0.0000 </r>
        <r>    2.9051    0.0000 </r>
        <r>    2.9481    0.0000 </r>
        <r>    2.9502    0.0000 </r>
        <r>    2.9873    0.0000 </r>
        <r>    3.2145    0.0000 </r>
        <r>    4.1764    0.0000 </r>
        <r>    4.2564    0.0000 </r>
        <r>    4.3422    0.0000 </r>
        <r>    4.3473    0.0000 </r>
        <r>    4.3905    0.0000 </r>
        <r>    4.5493    0.0000 </r>
        <r>    5.0472    0.0000 </r>
        <r>    5.4579    0.0000 </r>
        <r>    5.6396    0.0000 </r>
        <r>    5.7074    0.0000 </r>
        <r>    6.5372    0.0000 </r>
        <r>    7.0684    0.0000 </r>
        <r>    7.4238    0.0000 </r>
       </set>
      </set>
      <set comment="spin 2">
       <set comment="kpoint 1">
        <r>  -36.3386    1.0000 </r>
        <r>  -13.2663    1.0000 </r>
        <r>  -13.2663    1.0000 </r>
        <r>  -13.2663    1.0000 </r>
        <r>   -0.2906    0.0000 </r>
        <r>    0.9923    0.0000 </r>
        <r>    1.3029    0.0000 </r>
        <r>    1.3051    0.0000 </r>
        <r>    1.3102    0.0000 </r>
        <r>    1.4613    0.0000 </r>
        <r>    1.4631    0.0000 </r>
        <r>    2.7066    0.0000 </r>
        <r>    2.7068    0.0000 </r>
        <r>    2.7291    0.0000 </r>
        <r>    2.7572    0.0000 </r>
        <r>    2.8501    0.0000 </r>
        <r>    2.8508    0.0000 </r>
        <r>    2.8574    0.0000 </r>
        <r>    2.8859    0.0000 </r>
        <r>    2.9056    0.0000 </r>
        <r>    2.9510    0.0000 </r>
        <r>    2.9689    0.0000 </r>
        <r>    3.0433    0.0000 </r>
        <r>    4.3358    0.0000 </r>
        <r>    4.3515    0.0000 </r>
        <r>    4.3526    0.0000 </r>
        <r>    4.3676    0.0000 </r>
        <r>    4.3723    0.0000 </r>
        <r>    4.8199    0.0000 </r>
        <r>    4.9411    0.0000 </r>
        <r>    5.2981    0.0000 </r>
        <r>    5.3467    0.0000 </r>
        <r>    5.5892    0.0000 </r>
        <r>    5.6588    0.0000 </r>
        <r>    6.6580    0.0000 </r>
        <r>    6.9668    0.0000 </r>
       </set>
      </set>
     </set>
    </array>
   </eigenvalues>
   <array>
    <dimension dim="1">ion</dimension>
    <dimension dim="2">band</dimension>
    <dimension dim="3">kpoint</dimension>
    <dimension dim="4">spin</dimension>
    <field>    s</field>
    <field>   py</field>
    <field>   pz</field>
    <field>   px</field>
    <field>  dxy</field>
    <field>  dyz</field>
    <field>  dz2</field>
    <field>  dxz</field>
    <field>x2-y2</field>
    <set>
     <set comment="spin1">
      <set comment="kpoint 1">
       <set comment="band 1">
        <r>  0.9655  0.0000  0.0000  0.0000  0.0000  0.0000  0.0000  0.0000  0.0000 </r>
       </set>
       <set comment="band 2">
        <r>  0.0000  0.0001  0.9027  0.0043  0.0000  0.0000  0.0000  0.0000  0.0000 </r>
       </set>
       <set comment="band 3">
        <r>  0.0000  0.7481  0.0014  0.1576  0.0000  0.0000  0.0000  0.0000  0.0000 </r>
       </set>
       <set comment="band 4">
        <r>  0.0000  0.1589  0.0030  0.7452  0.0000  0.0000  0.0000  0.0000  0.0000 </r>
       </set>
       <set comment="band 5">
        <r>  0.0095  0.0000  0.0000  0.0000  0.0000  0.0000  0.0000  0.0000  0.0000 </r>
       </set>
       <set comment="band 6">
        <r>  0.0160  0.0000  0.0000  0.0000  0.0000  0.0000  0.0000  0.0000  0.0000 </r>
       </set>
       <set comment="band 7">
        <r>  0.0000  0.0013  0.0024  0.0013  0.0000  0.0000  0.0000  0.0000  0.0000 </r>
       </set>
       <set comment="band 8">
        <r>  0.0000  0.0028  0.0018  0.0001  0.0000  0.0000  0.0000  0.0000  0.0000 </r>
       </set>
       <set comment="band 9">
        <r>  0.0000  0.0009  0.0005  0.0037  0.0000  0.0000  0.0000  0.0000  0.0000 </r>
       </set>
       <set comment="band 10">
        <r>  0.0000  0.0000  0.0000  0.0000  0.0000  0.0000  0.0000  0.0000  0.0000 </r>
       </set>
       <set comment="band 11">
        <r>  0.0000  0.0000  0.0000  0.0000  0.0000  0.0000  0.0000  0.0000  0.0000 </r>
       </set>
       <set comment="band 12">
        <r>  0.0132  0.0001  0.0000  0.0001  0.0000  0.0000  0.0000  0.0000  0.0000 </r>
       </set>
       <set comment="band 13">
        <r>  0.0000  0.0019  0.0035  0.0003  0.0000  0.0000  0.0000  0.0000  0.0000 </r>
       </set>
       <set comment="band 14">
        <r>  0.0000  0.0021  0.0007  0.0002  0.0000  0.0000  0.0000  0.0000  0.0000 </r>
       </set>
       <set comment="band 15">
        <r>  0.0001  0.0020  0.0011  0.0001  0.0000  0.0000  0.0000  0.0000  0.0000 </r>
       </set>
       <set comment="band 16">
        <r>  0.0000  0.0018  0.0002  0.0010  0.0000  0.0000  0.0000  0.0000  0.0000 </r>
       </set>
       <set comment="band 17">
        <r>  0.0000  0.0007  0.0001  0.0001  0.0000  0.0000  0.0000  0.0000  0.0000 </r>
       </set>
       <set comment="band 18">
        <r>  0.0001  0.0001  0.0000  0.0032  0.0000  0.0000  0.0000  0.0000  0.0000 </r>
       </set>
       <set comment="band 19">
        <r>  0.0000  0.0000  0.0000  0.0012  0.0000  0.0000  0.0000  0.0000  0.0000 </r>
       </set>
       <set comment="band 20">
        <r>  0.0000  0.0001  0.0010  0.0003  0.0000  0.0000  0.0000  0.0000  0.0000 </r>
       </set>
       <set comment="band 21">
        <r>  0.0000  0.0001  0.0000  0.0000  0.0000  0.0000  0.0000  0.0000  0.0000 </r>
       </set>
       <set comment="band 22">
        <r>  0.0001  0.0000  0.0018  0.0001  0.0000  0.0000  0.0000  0.0000  0.0000 </r>
       </set>
       <set comment="band 23">
        <r>  0.0004  0.0001  0.0010  0.0013  0.0000  0.0000  0.0000  0.0000  0.0000 </r>
       </set>
       <set comment="band 24">
        <r>  0.0030  0.0000  0.0000  0.0004  0.0000  0.0000  0.0000  0.0000  0.0000 </r>
       </set>
       <set comment="band 25">
        <r>  0.0000  0.0001  0.0000  0.0002  0.0000  0.0000  0.0000  0.0000  0.0000 </r>
       </set>
       <set comment="band 26">
        <r>  0.0033  0.0000  0.0001  0.0000  0.0000  0.0000  0.0000  0.0000  0.0000 </r>
       </set>
       <set comment="band 27">
        <r>  0.0003  0.0000  0.0000  0.0000  0.0000  0.0000  0.0000  0.0000  0.0000 </r>
       </set>
       <set comment="band 28">
        <r>  0.0000  0.0000  0.0002  0.0056  0.0000  0.0000  0.0000  0.0000  0.0000 </r>
       </set>
       <set comment="band 29">
        <r>  0.0001  0.0001  0.0037  0.0002  0.0000  0.0000  0.0000  0.0000  0.0000 </r>
       </set>
       <set comment="band 30">
        <r>  0.0011  0.0002  0.0000  0.0000  0.0000  0.0000  0.0000  0.0000  0.0000 </r>
       </set>
       <set comment="band 31">
        <r>  0.0012  0.0016  0.0000  0.0006  0.0000  0.0000  0.0000  0.0000  0.0000 </r>
       </set>
       <set comment="band 32">
        <r>  0.0032  0.0005  0.0005  0.0000  0.0000  0.0000  0.0000  0.0000  0.0000 </r>
       </set>
       <set comment="band 33">
        <r>  0.0000  0.0000  0.0001  0.0004  0.0000  0.0000  0.0000  0.0000  0.0000 </r>
       </set>
       <set comment="band 34">
        <r>  0.0016  0.0000  0.0001  0.0003  0.0000  0.0000  0.0000  0.0000  0.0000 </r>
       </set>
       <set comment="band 35">
        <r>  0.0006  0.0014  0.0008  0.0001  0.0000  0.0000  0.0000  0.0000  0.0000 </r>
       </set>
       <set comment="band 36">
        <r>  0.0063  0.0001  0.0000  0.0003  0.0000  0.0000  0.0000  0.0000  0.0000 </r>
       </set>
      </set>
     </set>
     <set comment="spin2">
      <set comment="kpoint 1">
       <set comment="band 1">
        <r>  0.9655  0.0000  0.0000  0.0000  0.0000  0.0000  0.0000  0.0000  0.0000 </r>
       </set>
       <set comment="band 2">
        <r>  0.0000  0.0689  0.0006  0.8377  0.0000  0.0000  0.0000  0.0000  0.0000 </r>
       </set>
       <set comment="band 3">
        <r>  0.0000  0.1309  0.7697  0.0065  0.0000  0.0000  0.0000  0.0000  0.0000 </r>
       </set>
       <set comment="band 4">
        <r>  0.0000  0.7073  0.1369  0.0629  0.0000  0.0000  0.0000  0.0000  0.0000 </r>
       </set>
       <set comment="band 5">
        <r>  0.0094  0.0000  0.0000  0.0000  0.0000  0.0000  0.0000  0.0000  0.0000 </r>
       </set>
       <set comment="band 6">
        <r>  0.0159  0.0000  0.0000  0.0000  0.0000  0.0000  0.0000  0.0000  0.0000 </r>
       </set>
       <set comment="band 7">
        <r>  0.0000  0.0000  0.0045  0.0004  0.0000  0.0000  0.0000  0.0000  0.0000 </r>
       </set>
       <set comment="band 8">
        <r>  0.0000  0.0013  0.0002  0.0033  0.0000  0.0000  0.0000  0.0000  0.0000 </r>
       </set>
       <set comment="band 9">
        <r>  0.0000  0.0033  0.0001  0.0013  0.0000  0.0000  0.0000  0.0000  0.0000 </r>
       </set>
       <set comment="band 10">
        <r>  0.0000  0.0001  0.0000  0.0000  0.0000  0.0000  0.0000  0.0000  0.0000 </r>
       </set>
       <set comment="band 11">
        <r>  0.0000  0.0000  0.0000  0.0000  0.0000  0.0000  0.0000  0.0000  0.0000 </r>
       </set>
       <set comment="band 12">
        <r>  0.0000  0.0088  0.0003  0.0000  0.0000  0.0000  0.0000  0.0000  0.0000 </r>
       </set>
       <set comment="band 13">
        <r>  0.0132  0.0000  0.0001  0.0001  0.0000  0.0000  0.0000  0.0000  0.0000 </r>
       </set>
       <set comment="band 14">
        <r>  0.0001  0.0004  0.0039  0.0016  0.0000  0.0000  0.0000  0.0000  0.0000 </r>
       </set>
       <set comment="band 15">
        <r>  0.0000  0.0002  0.0014  0.0045  0.0000  0.0000  0.0000  0.0000  0.0000 </r>
       </set>
       <set comment="band 16">
        <r>  0.0000  0.0002  0.0014  0.0000  0.0000  0.0000  0.0000  0.0000  0.0000 </r>
       </set>
       <set comment="band 17">
        <r>  0.0000  0.0000  0.0001  0.0004  0.0000  0.0000  0.0000  0.0000  0.0000 </r>
       </set>
       <set comment="band 18">
        <r>  0.0000  0.0001  0.0001  0.0000  0.0000  0.0000  0.0000  0.0000  0.0000 </r>
       </set>
       <set comment="band 19">
        <r>  0.0001  0.0001  0.0013  0.0006  0.0000  0.0000  0.0000  0.0000  0.0000 </r>
       </set>
       <set comment="band 20">
        <r>  0.0000  0.0001  0.0001  0.0013  0.0000  0.0000  0.0000  0.0000  0.0000 </r>
       </set>
       <set comment="band 21">
        <r>  0.0000  0.0002  0.0004  0.0006  0.0000  0.0000  0.0000  0.0000  0.0000 </r>
       </set>
       <set comment="band 22">
        <r>  0.0000  0.0001  0.0004  0.0002  0.0000  0.0000  0.0000  0.0000  0.0000 </r>
       </set>
       <set comment="band 23">
        <r>  0.0000  0.0000  0.0001  0.0000  0.0000  0.0000  0.0000  0.0000  0.0000 </r>
       </set>
       <set comment="band 24">
        <r>  0.0001  0.0000  0.0000  0.0000  0.0000  0.0000  0.0000  0.0000  0.0000 </r>
       </set>
       <set comment="band 25">
        <r>  0.0012  0.0000  0.0000  0.0000  0.0000  0.0000  0.0000  0.0000  0.0000 </r>
       </set>
       <set comment="band 26">
        <r>  0.0017  0.0003  0.0000  0.0002  0.0000  0.0000  0.0000  0.0000  0.0000 </r>
       </set>
       <set comment="band 27">
        <r>  0.0045  0.0000  0.0000  0.0000  0.0000  0.0000  0.0000  0.0000  0.0000 </r>
       </set>
       <set comment="band 28">
        <r>  0.0001  0.0025  0.0007  0.0000  0.0000  0.0000  0.0000  0.0000  0.0000 </r>
       </set>
       <set comment="band 29">
        <r>  0.0011  0.0003  0.0030  0.0002  0.0000  0.0000  0.0000  0.0000  0.0000 </r>
       </set>
       <set comment="band 30">
        <r>  0.0000  0.0001  0.0001  0.0026  0.0000  0.0000  0.0000  0.0000  0.0000 </r>
       </set>
       <set comment="band 31">
        <r>  0.0003  0.0006  0.0001  0.0001  0.0000  0.0000  0.0000  0.0000  0.0000 </r>
       </set>
       <set comment="band 32">
        <r>  0.0007  0.0000  0.0007  0.0008  0.0000  0.0000  0.0000  0.0000  0.0000 </r>
       </set>
       <set comment="band 33">
        <r>  0.0012  0.0000  0.0000  0.0010  0.0000  0.0000  0.0000  0.0000  0.0000 </r>
       </set>
       <set comment="band 34">
        <r>  0.0013  0.0001  0.0004  0.0008  0.0000  0.0000  0.0000  0.0000  0.0000 </r>
       </set>
       <set comment="band 35">
        <r>  0.0016  0.0000  0.0004  0.0016  0.0000  0.0000  0.0000  0.0000  0.0000 </r>
       </set>
       <set comment="band 36">
        <r>  0.0012  0.0000  0.0007  0.0001  0.0000  0.0000  0.0000  0.0000  0.0000 </r>
       </set>
      </set>
     </set>
    </set>
   </array>
  </projected>
 </calculation>
 <structure name="finalpos" >
  <crystal>
   <varray name="basis" >
    <v>      10.00000000       0.00000000       0.00000000 </v>
    <v>       0.00000000      10.00000000       0.00000000 </v>
    <v>       0.00000000       0.00000000      10.00000000 </v>
   </varray>
   <i name="volume">   1000.00000000 </i>
   <varray name="rec_basis" >
    <v>       0.10000000       0.00000000       0.00000000 </v>
    <v>       0.00000000       0.10000000       0.00000000 </v>
    <v>       0.00000000       0.00000000       0.10000000 </v>
   </varray>
  </crystal>
  <varray name="positions" >
   <v>       0.50000000       0.50000000       0.50000000 </v>
  </varray>
 </structure>
</modeling>
