       N       E                     dE             d eps       ncg     rms          rms(c)
DAV:   1     0.124584178447E+02    0.12458E+02   -0.39869E+03   216   0.146E+02
DAV:   2    -0.220574293664E+01   -0.14664E+02   -0.14607E+02   288   0.236E+01
DAV:   3    -0.223497390785E+01   -0.29231E-01   -0.29092E-01   144   0.145E+00
DAV:   4    -0.223523547688E+01   -0.26157E-03   -0.26157E-03   216   0.147E-01
DAV:   5    -0.223523591966E+01   -0.44278E-06   -0.44275E-06   144   0.573E-03    0.668E+00
DAV:   6    -0.166596728262E+01    0.56927E+00   -0.74591E+00   216   0.414E+00    0.736E+00
DAV:   7    -0.161463917785E+01    0.51328E-01   -0.16791E+00   180   0.197E+00    0.574E+00
DAV:   8    -0.170263669801E+01   -0.87998E-01   -0.15565E-01   180   0.904E-01    0.362E+00
DAV:   9    -0.205016758972E+01   -0.34753E+00   -0.23514E-01   144   0.815E-01    0.231E+00
DAV:  10    -0.239247380255E+01   -0.34231E+00   -0.33090E-01   180   0.114E+00    0.663E+00
DAV:  11    -0.238805070101E+01    0.44231E-02   -0.26703E-02   144   0.417E-01    0.639E+00
DAV:  12    -0.229054585244E+01    0.97505E-01   -0.49066E-02   144   0.497E-01    0.498E+00
DAV:  13    -0.230465385167E+01   -0.14108E-01   -0.91938E-02   216   0.635E-01    0.295E-01
DAV:  14    -0.238567256812E+01   -0.81019E-01   -0.18936E-02   144   0.213E-01    0.873E-01
DAV:  15    -0.242677670138E+01   -0.41104E-01   -0.19612E-02   144   0.217E-01    0.164E+00
DAV:  16    -0.243401434109E+01   -0.72376E-02   -0.39225E-03   144   0.818E-02    0.168E+00
DAV:  17    -0.243175592639E+01    0.22584E-02   -0.22109E-02   144   0.298E-01    0.171E-01
DAV:  18    -0.243639375772E+01   -0.46378E-02   -0.22448E-03   144   0.116E-01    0.558E-01
DAV:  19    -0.243761398258E+01   -0.12202E-02   -0.14618E-03   144   0.894E-02    0.270E-01
DAV:  20    -0.243820004082E+01   -0.58606E-03   -0.49345E-04   144   0.523E-02    0.138E-01
DAV:  21    -0.243839756871E+01   -0.19753E-03   -0.35499E-04   144   0.505E-02    0.599E-02
DAV:  22    -0.243856646164E+01   -0.16889E-03   -0.11138E-04   144   0.252E-02    0.693E-02
DAV:  23    -0.243861431418E+01   -0.47853E-04   -0.51134E-05   144   0.172E-02
   1 F= -.24386143E+01 E0= -.24235659E+01  d E =-.243861E+01  mag=     2.5812
