<?xml version="1.0" encoding="ISO-8859-1"?>
<modeling>
 <generator>
  <i name="program" type="string">vasp </i>
  <i name="version" type="string">5.4.4.18Apr17-6-g9f103f2a35  </i>
  <i name="subversion" type="string">(build Nov 08 2019 15:19:53) gamma-only         parallel </i>
  <i name="platform" type="string">LinuxIFC </i>
  <i name="date" type="string">2020 11 30 </i>
  <i name="time" type="string">09:37:30 </i>
 </generator>
 <incar>
  <i type="string" name="PREC">accurate</i>
  <i type="string" name="ALGO"> N</i>
  <i type="int" name="ISPIN">     2</i>
  <i type="int" name="NELM">   300</i>
  <i type="int" name="IBRION">     2</i>
  <i name="EDIFF">      0.00005000</i>
  <i type="int" name="NSW">    99</i>
  <i type="int" name="ISIF">     2</i>
  <i name="ENCUT">    520.00000000</i>
  <v name="MAGMOM">      0.60000000</v>
  <i type="string" name="LREAL"> Auto</i>
  <i type="int" name="ISMEAR">     0</i>
  <i name="SIGMA">      0.05000000</i>
  <i type="logical" name="LWAVE"> F  </i>
  <i type="int" name="LORBIT">    11</i>
  <i type="logical" name="LASPH"> T  </i>
  <v type="int" name="KPOINT_BSE">    -1     0     0     0</v>
  <i type="int" name="NELM">   300</i>
  <i type="logical" name="LASPH"> T  </i>
 </incar>
 <structure name="primitive_cell" >
  <crystal>
   <varray name="basis" >
    <v>      10.00000000       0.00000000       0.00000000 </v>
    <v>       0.00000000      10.00000000       0.00000000 </v>
    <v>       0.00000000       0.00000000      10.00000000 </v>
   </varray>
   <i name="volume">   1000.00000000 </i>
   <varray name="rec_basis" >
    <v>       0.10000000       0.00000000       0.00000000 </v>
    <v>       0.00000000       0.10000000       0.00000000 </v>
    <v>       0.00000000       0.00000000       0.10000000 </v>
   </varray>
  </crystal>
  <varray name="positions" >
   <v>      -0.50000000      -0.50000000      -0.50000000 </v>
  </varray>
 </structure>
 <varray name="primitive_index" >
  <v type="int" >        1 </v>
 </varray>
 <kpoints>
  <generation param="Gamma">
   <v type="int" name="divisions">       1        1        1 </v>
   <v name="usershift">      0.00000000       0.00000000       0.00000000 </v>
   <v name="genvec1">      1.00000000       0.00000000       0.00000000 </v>
   <v name="genvec2">      0.00000000       1.00000000       0.00000000 </v>
   <v name="genvec3">      0.00000000       0.00000000       1.00000000 </v>
   <v name="shift">      0.00000000       0.00000000       0.00000000 </v>
  </generation>
  <varray name="kpointlist" >
   <v>       0.00000000       0.00000000       0.00000000 </v>
  </varray>
  <varray name="weights" >
   <v>       1.00000000 </v>
  </varray>
 </kpoints>
 <parameters>
  <separator name="general" >
   <i type="string" name="SYSTEM">unknown system</i>
   <i type="logical" name="LCOMPAT"> F  </i>
  </separator>
  <separator name="electronic" >
   <i type="string" name="PREC">accura</i>
   <i name="ENMAX">    520.00000000</i>
   <i name="ENAUG">    482.84800000</i>
   <i name="EDIFF">      0.00005000</i>
   <i type="int" name="IALGO">    38</i>
   <i type="int" name="IWAVPR">    11</i>
   <i type="int" name="NBANDS">    36</i>
   <i name="NELECT">     10.00000000</i>
   <i type="int" name="TURBO">     0</i>
   <i type="int" name="IRESTART">     0</i>
   <i type="int" name="NREBOOT">     0</i>
   <i type="int" name="NMIN">     0</i>
   <i name="EREF">      0.00000000</i>
   <separator name="electronic smearing" >
    <i type="int" name="ISMEAR">     0</i>
    <i name="SIGMA">      0.05000000</i>
    <i name="KSPACING">      0.50000000</i>
    <i type="logical" name="KGAMMA"> T  </i>
   </separator>
   <separator name="electronic projectors" >
    <i type="logical" name="LREAL"> T  </i>
    <v name="ROPT">     -0.00025000</v>
    <i type="int" name="LMAXPAW">  -100</i>
    <i type="int" name="LMAXMIX">     2</i>
    <i type="logical" name="NLSPLINE"> F  </i>
   </separator>
   <separator name="electronic startup" >
    <i type="int" name="ISTART">     0</i>
    <i type="int" name="ICHARG">     2</i>
    <i type="int" name="INIWAV">     1</i>
   </separator>
   <separator name="electronic spin" >
    <i type="int" name="ISPIN">     2</i>
    <i type="logical" name="LNONCOLLINEAR"> F  </i>
    <v name="MAGMOM">      0.60000000</v>
    <i name="NUPDOWN">     -1.00000000</i>
    <i type="logical" name="LSORBIT"> F  </i>
    <v name="SAXIS">      0.00000000      0.00000000      1.00000000</v>
    <i type="logical" name="LSPIRAL"> F  </i>
    <v name="QSPIRAL">      0.00000000      0.00000000      0.00000000</v>
    <i type="logical" name="LZEROZ"> F  </i>
   </separator>
   <separator name="electronic exchange-correlation" >
    <i type="logical" name="LASPH"> T  </i>
    <i type="logical" name="LMETAGGA"> F  </i>
   </separator>
   <separator name="electronic convergence" >
    <i type="int" name="NELM">   300</i>
    <i type="int" name="NELMDL">     0</i>
    <i type="int" name="NELMIN">     2</i>
    <i name="ENINI">    520.00000000</i>
    <separator name="electronic convergence detail" >
     <i type="logical" name="LDIAG"> T  </i>
     <i type="logical" name="LSUBROT"> F  </i>
     <i name="WEIMIN">      0.00100000</i>
     <i name="EBREAK">      0.00000035</i>
     <i name="DEPER">      0.30000000</i>
     <i type="int" name="NRMM">     4</i>
     <i name="TIME">      0.40000000</i>
    </separator>
   </separator>
   <separator name="electronic mixer" >
    <i name="AMIX">      0.40000000</i>
    <i name="BMIX">      1.00000000</i>
    <i name="AMIN">      0.10000000</i>
    <i name="AMIX_MAG">      1.60000000</i>
    <i name="BMIX_MAG">      1.00000000</i>
    <separator name="electronic mixer details" >
     <i type="int" name="IMIX">     4</i>
     <i type="logical" name="MIXFIRST"> F  </i>
     <i type="int" name="MAXMIX">   -45</i>
     <i name="WC">    100.00000000</i>
     <i type="int" name="INIMIX">     1</i>
     <i type="int" name="MIXPRE">     1</i>
     <i type="int" name="MREMOVE">     5</i>
    </separator>
   </separator>
   <separator name="electronic dipolcorrection" >
    <i type="logical" name="LDIPOL"> F  </i>
    <i type="logical" name="LMONO"> F  </i>
    <i type="int" name="IDIPOL">     0</i>
    <i name="EPSILON">      1.00000000</i>
    <v name="DIPOL">   -100.00000000   -100.00000000   -100.00000000</v>
    <i name="EFIELD">      0.00000000</i>
   </separator>
  </separator>
  <separator name="grids" >
   <i type="int" name="NGX">    80</i>
   <i type="int" name="NGY">    80</i>
   <i type="int" name="NGZ">    80</i>
   <i type="int" name="NGXF">   160</i>
   <i type="int" name="NGYF">   160</i>
   <i type="int" name="NGZF">   160</i>
   <i type="logical" name="ADDGRID"> F  </i>
  </separator>
  <separator name="ionic" >
   <i type="int" name="NSW">    99</i>
   <i type="int" name="IBRION">     2</i>
   <i type="int" name="MDALGO">     0</i>
   <i type="int" name="ISIF">     2</i>
   <i name="PSTRESS">      0.00000000</i>
   <i name="EDIFFG">      0.00050000</i>
   <i type="int" name="NFREE">     1</i>
   <i name="POTIM">      0.50000000</i>
   <i name="SMASS">     -3.00000000</i>
   <i name="SCALEE">      1.00000000</i>
  </separator>
  <separator name="ionic md" >
   <i name="TEBEG">      0.00010000</i>
   <i name="TEEND">      0.00010000</i>
   <i type="int" name="NBLOCK">     1</i>
   <i type="int" name="KBLOCK">    99</i>
   <i type="int" name="NPACO">   256</i>
   <i name="APACO">     16.00000000</i>
  </separator>
  <separator name="symmetry" >
   <i type="int" name="ISYM">     2</i>
   <i name="SYMPREC">      0.00001000</i>
  </separator>
  <separator name="dos" >
   <i type="int" name="LORBIT">    11</i>
   <v name="RWIGS">     -1.00000000</v>
   <i type="int" name="NEDOS">   301</i>
   <i name="EMIN">     10.00000000</i>
   <i name="EMAX">    -10.00000000</i>
   <i name="EFERMI">      0.00000000</i>
  </separator>
  <separator name="writing" >
   <i type="int" name="NWRITE">     2</i>
   <i type="logical" name="LWAVE"> F  </i>
   <i type="logical" name="LDOWNSAMPLE"> F  </i>
   <i type="logical" name="LCHARG"> T  </i>
   <i type="logical" name="LPARD"> F  </i>
   <i type="logical" name="LVTOT"> F  </i>
   <i type="logical" name="LVHAR"> F  </i>
   <i type="logical" name="LELF"> F  </i>
   <i type="logical" name="LOPTICS"> F  </i>
   <v name="STM">      0.00000000      0.00000000      0.00000000      0.00000000      0.00000000      0.00000000      0.00000000</v>
  </separator>
  <separator name="performance" >
   <i type="int" name="NPAR">    36</i>
   <i type="int" name="NSIM">     4</i>
   <i type="int" name="NBLK">    -1</i>
   <i type="logical" name="LPLANE"> T  </i>
   <i type="logical" name="LSCALAPACK"> T  </i>
   <i type="logical" name="LSCAAWARE"> F  </i>
   <i type="logical" name="LSCALU"> F  </i>
   <i type="logical" name="LASYNC"> F  </i>
   <i type="logical" name="LORBITALREAL"> F  </i>
  </separator>
  <separator name="miscellaneous" >
   <i type="int" name="IDIOT">     3</i>
   <i type="int" name="ISPECIAL">     0</i>
   <i type="logical" name="LMUSIC"> F  </i>
   <v name="POMASS">     47.88000000</v>
   <v name="DARWINR">      0.00000000</v>
   <v name="DARWINV">      1.00000000</v>
   <i type="logical" name="LCORR"> T  </i>
  </separator>
  <i type="logical" name="GGA_COMPAT"> T  </i>
  <i type="logical" name="LBERRY"> F  </i>
  <i type="int" name="ICORELEVEL">     0</i>
  <i type="logical" name="LDAU"> F  </i>
  <i type="int" name="I_CONSTRAINED_M">     0</i>
  <separator name="electronic exchange-correlation" >
   <i type="string" name="GGA">--</i>
   <i type="int" name="VOSKOWN">     0</i>
   <i type="logical" name="LHFCALC"> F  </i>
   <i type="string" name="PRECFOCK"></i>
   <i type="logical" name="LSYMGRAD"> F  </i>
   <i type="logical" name="LHFONE"> F  </i>
   <i type="logical" name="LRHFCALC"> F  </i>
   <i type="logical" name="LTHOMAS"> F  </i>
   <i type="logical" name="LMODELHF"> F  </i>
   <i name="ENCUT4O">     -1.00000000</i>
   <i type="int" name="EXXOEP">     0</i>
   <i type="int" name="FOURORBIT">     0</i>
   <i name="AEXX">      0.00000000</i>
   <i name="HFALPHA">      0.00000000</i>
   <i name="MCALPHA">      0.00000000</i>
   <i name="ALDAX">      1.00000000</i>
   <i name="AGGAX">      1.00000000</i>
   <i name="ALDAC">      1.00000000</i>
   <i name="AGGAC">      1.00000000</i>
   <i type="int" name="NKREDX">     1</i>
   <i type="int" name="NKREDY">     1</i>
   <i type="int" name="NKREDZ">     1</i>
   <i type="logical" name="SHIFTRED"> F  </i>
   <i type="logical" name="ODDONLY"> F  </i>
   <i type="logical" name="EVENONLY"> F  </i>
   <i type="int" name="LMAXFOCK">     0</i>
   <i type="int" name="NMAXFOCKAE">     0</i>
   <i type="logical" name="LFOCKAEDFT"> F  </i>
   <i name="HFSCREEN">      0.00000000</i>
   <i name="HFSCREENC">      0.00000000</i>
   <i type="int" name="NBANDSGWLOW">     0</i>
  </separator>
  <separator name="vdW DFT" >
   <i type="logical" name="LUSE_VDW"> F  </i>
   <i name="Zab_VDW">     -0.84910000</i>
   <i name="PARAM1">      0.12340000</i>
   <i name="PARAM2">      1.00000000</i>
   <i name="PARAM3">      0.00000000</i>
  </separator>
  <separator name="model GW" >
   <i type="int" name="MODEL_GW">     0</i>
   <i name="MODEL_EPS0">    600.00000000</i>
   <i name="MODEL_ALPHA">      1.00000000</i>
  </separator>
  <separator name="linear response parameters" >
   <i type="logical" name="LEPSILON"> F  </i>
   <i type="logical" name="LRPA"> F  </i>
   <i type="logical" name="LNABLA"> F  </i>
   <i type="logical" name="LVEL"> F  </i>
   <i type="int" name="KINTER">     0</i>
   <i name="CSHIFT">      0.10000000</i>
   <i name="OMEGAMAX">     -1.00000000</i>
   <i name="DEG_THRESHOLD">      0.00200000</i>
   <i name="RTIME">     -0.10000000</i>
   <i name="WPLASMAI">      0.00000000</i>
   <v name="DFIELD">      0.00000000      0.00000000      0.00000000</v>
   <v name="WPLASMA">      0.00000000      0.00000000      0.00000000      0.00000000      0.00000000      0.00000000      0.00000000      0.00000000      0.00000000</v>
  </separator>
  <separator name="orbital magnetization" >
   <i type="logical" name="NUCIND"> F  </i>
   <v name="MAGPOS">      0.00000000      0.00000000      0.00000000</v>
   <i type="logical" name="LNICSALL"> T  </i>
   <i type="logical" name="ORBITALMAG"> F  </i>
   <i type="logical" name="LMAGBLOCH"> F  </i>
   <i type="logical" name="LCHIMAG"> F  </i>
   <i type="logical" name="LGAUGE"> T  </i>
   <i type="int" name="MAGATOM">     0</i>
   <v name="MAGDIPOL">      0.00000000      0.00000000      0.00000000</v>
   <v name="AVECCONST">      0.00000000      0.00000000      0.00000000</v>
  </separator>
  <separator name="response functions" >
   <i type="logical" name="LADDER"> F  </i>
   <i type="logical" name="LRPAFORCE"> F  </i>
   <i type="logical" name="LFXC"> F  </i>
   <i type="logical" name="LHARTREE"> T  </i>
   <i type="int" name="IBSE">     0</i>
   <v type="int" name="KPOINT">    -1     0     0     0</v>
   <i type="logical" name="LTCTE"> F  </i>
   <i type="logical" name="LTETE"> F  </i>
   <i type="logical" name="LTRIPLET"> F  </i>
   <i type="logical" name="LFXCEPS"> F  </i>
   <i type="logical" name="LFXHEG"> F  </i>
   <i type="int" name="NATURALO">     2</i>
   <i type="logical" name="L2ORDER"> F  </i>
   <i type="logical" name="LMP2LT"> F  </i>
   <i type="logical" name="LUSEW"> F  </i>
   <i name="ENCUTGW">     -2.00000000</i>
   <i name="ENCUTGWSOFT">     -2.00000000</i>
   <i name="ENCUTLF">     -1.00000000</i>
   <i type="int" name="LMAXMP2">    -1</i>
   <i name="SCISSOR">      0.00000000</i>
   <i type="int" name="NOMEGA">     0</i>
   <i type="int" name="NOMEGAR">     0</i>
   <i type="int" name="NBANDSGW">    -1</i>
   <i type="int" name="NBANDSO">    -1</i>
   <i type="int" name="NBANDSV">    -1</i>
   <i type="int" name="NELM">   300</i>
   <i type="int" name="NELMHF">     1</i>
   <i type="int" name="DIM">     3</i>
   <i type="int" name="ANTIRES">     0</i>
   <i name="OMEGAMAX">    -30.00000000</i>
   <i name="OMEGAMIN">    -30.00000000</i>
   <i name="OMEGATL">   -200.00000000</i>
   <i type="int" name="OMEGAGRID">   140</i>
   <i name="CSHIFT">     -0.10000000</i>
   <i type="logical" name="SELFENERGY"> F  </i>
   <i type="logical" name="LSPECTRAL"> F  </i>
   <i type="logical" name="LSPECTRALGW"> F  </i>
   <i type="logical" name="LSINGLES"> F  </i>
   <i type="logical" name="LFERMIGW"> F  </i>
   <i type="logical" name="ODDONLYGW"> F  </i>
   <i type="logical" name="EVENONLYGW"> F  </i>
   <i type="int" name="NKREDLFX">     1</i>
   <i type="int" name="NKREDLFY">     1</i>
   <i type="int" name="NKREDLFZ">     1</i>
   <i type="int" name="MAXMEM">  2800</i>
   <i type="int" name="TELESCOPE">     0</i>
   <i type="int" name="TAUPAR">     1</i>
   <i type="int" name="OMEGAPAR">    -1</i>
   <i name="LAMBDA">      1.00000000</i>
  </separator>
  <separator name="External order field" >
   <i name="OFIELD_KAPPA">      0.00000000</i>
   <v name="OFIELD_K">      0.00000000      0.00000000      0.00000000</v>
   <i name="OFIELD_Q6_NEAR">      0.00000000</i>
   <i name="OFIELD_Q6_FAR">      0.00000000</i>
   <i name="OFIELD_A">      0.00000000</i>
  </separator>
 </parameters>
 <atominfo>
  <atoms>       1 </atoms>
  <types>       1 </types>
  <array name="atoms" >
   <dimension dim="1">ion</dimension>
   <field type="string">element</field>
   <field type="int">atomtype</field>
   <set>
    <rc><c>Ti</c><c>   1</c></rc>
   </set>
  </array>
  <array name="atomtypes" >
   <dimension dim="1">type</dimension>
   <field type="int">atomspertype</field>
   <field type="string">element</field>
   <field>mass</field>
   <field>valence</field>
   <field type="string">pseudopotential</field>
   <set>
    <rc><c>   1</c><c>Ti</c><c>     47.88000000</c><c>     10.00000000</c><c>  PAW_PBE Ti_pv 07Sep2000               </c></rc>
   </set>
  </array>
 </atominfo>
 <structure name="initialpos" >
  <crystal>
   <varray name="basis" >
    <v>      10.00000000       0.00000000       0.00000000 </v>
    <v>       0.00000000      10.00000000       0.00000000 </v>
    <v>       0.00000000       0.00000000      10.00000000 </v>
   </varray>
   <i name="volume">   1000.00000000 </i>
   <varray name="rec_basis" >
    <v>       0.10000000       0.00000000       0.00000000 </v>
    <v>       0.00000000       0.10000000       0.00000000 </v>
    <v>       0.00000000       0.00000000       0.10000000 </v>
   </varray>
  </crystal>
  <varray name="positions" >
   <v>       0.50000000       0.50000000       0.50000000 </v>
  </varray>
 </structure>
 <calculation>
  <scstep>
   <time name="dav">    0.31    0.31</time>
   <time name="total">    0.89    0.90</time>
   <energy>
    <i name="alphaZ">      1.09052110 </i>
    <i name="ewald">   -204.28240005 </i>
    <i name="hartreedc">   -652.27532073 </i>
    <i name="XCdc">     33.52509933 </i>
    <i name="pawpsdc">    818.84268626 </i>
    <i name="pawaedc">   -818.20730616 </i>
    <i name="eentropy">     -0.00008599 </i>
    <i name="bandstr">   -208.83236318 </i>
    <i name="atom">   1042.59758728 </i>
    <i name="e_fr_energy">     12.45841784 </i>
    <i name="e_wo_entrp">     12.45850384 </i>
    <i name="e_0_energy">     12.45846084 </i>
   </energy>
  </scstep>
  <scstep>
   <time name="dav">    0.39    0.39</time>
   <time name="total">    0.39    0.39</time>
   <energy>
    <i name="e_fr_energy">     -2.20574294 </i>
    <i name="e_wo_entrp">     -2.13812447 </i>
    <i name="e_0_energy">     -2.17193370 </i>
   </energy>
  </scstep>
  <scstep>
   <time name="dav">    0.22    0.22</time>
   <time name="total">    0.22    0.22</time>
   <energy>
    <i name="e_fr_energy">     -2.23497391 </i>
    <i name="e_wo_entrp">     -2.16697737 </i>
    <i name="e_0_energy">     -2.20097564 </i>
   </energy>
  </scstep>
  <scstep>
   <time name="dav">    0.30    0.30</time>
   <time name="total">    0.30    0.30</time>
   <energy>
    <i name="e_fr_energy">     -2.23523548 </i>
    <i name="e_wo_entrp">     -2.16723835 </i>
    <i name="e_0_energy">     -2.20123691 </i>
   </energy>
  </scstep>
  <scstep>
   <time name="dav">    0.22    0.22</time>
   <time name="total">    0.45    0.45</time>
   <energy>
    <i name="e_fr_energy">     -2.23523592 </i>
    <i name="e_wo_entrp">     -2.16723879 </i>
    <i name="e_0_energy">     -2.20123735 </i>
   </energy>
  </scstep>
  <scstep>
   <time name="dav">    0.31    0.32</time>
   <time name="total">    1.10    1.10</time>
   <energy>
    <i name="e_fr_energy">     -1.66596728 </i>
    <i name="e_wo_entrp">     -1.62064209 </i>
    <i name="e_0_energy">     -1.64330469 </i>
   </energy>
  </scstep>
  <scstep>
   <time name="dav">    0.27    0.27</time>
   <time name="total">    1.04    1.04</time>
   <energy>
    <i name="e_fr_energy">     -1.61463918 </i>
    <i name="e_wo_entrp">     -1.61463880 </i>
    <i name="e_0_energy">     -1.61463899 </i>
   </energy>
  </scstep>
  <scstep>
   <time name="dav">    0.27    0.27</time>
   <time name="total">    1.06    1.06</time>
   <energy>
    <i name="e_fr_energy">     -1.70263670 </i>
    <i name="e_wo_entrp">     -1.70263670 </i>
    <i name="e_0_energy">     -1.70263670 </i>
   </energy>
  </scstep>
  <scstep>
   <time name="dav">    0.22    0.22</time>
   <time name="total">    0.99    0.99</time>
   <energy>
    <i name="e_fr_energy">     -2.05016759 </i>
    <i name="e_wo_entrp">     -2.05016759 </i>
    <i name="e_0_energy">     -2.05016759 </i>
   </energy>
  </scstep>
  <scstep>
   <time name="dav">    0.27    0.27</time>
   <time name="total">    1.05    1.05</time>
   <energy>
    <i name="e_fr_energy">     -2.39247380 </i>
    <i name="e_wo_entrp">     -2.35137378 </i>
    <i name="e_0_energy">     -2.37192379 </i>
   </energy>
  </scstep>
  <scstep>
   <time name="dav">    0.22    0.22</time>
   <time name="total">    1.01    1.01</time>
   <energy>
    <i name="e_fr_energy">     -2.38805070 </i>
    <i name="e_wo_entrp">     -2.34803070 </i>
    <i name="e_0_energy">     -2.36804070 </i>
   </energy>
  </scstep>
  <scstep>
   <time name="dav">    0.23    0.23</time>
   <time name="total">    1.01    1.01</time>
   <energy>
    <i name="e_fr_energy">     -2.29054585 </i>
    <i name="e_wo_entrp">     -2.24666470 </i>
    <i name="e_0_energy">     -2.26860528 </i>
   </energy>
  </scstep>
  <scstep>
   <time name="dav">    0.31    0.31</time>
   <time name="total">    1.09    1.09</time>
   <energy>
    <i name="e_fr_energy">     -2.30465385 </i>
    <i name="e_wo_entrp">     -2.27646634 </i>
    <i name="e_0_energy">     -2.29056010 </i>
   </energy>
  </scstep>
  <scstep>
   <time name="dav">    0.22    0.22</time>
   <time name="total">    1.02    1.02</time>
   <energy>
    <i name="e_fr_energy">     -2.38567257 </i>
    <i name="e_wo_entrp">     -2.36381259 </i>
    <i name="e_0_energy">     -2.37474258 </i>
   </energy>
  </scstep>
  <scstep>
   <time name="dav">    0.22    0.22</time>
   <time name="total">    1.00    1.00</time>
   <energy>
    <i name="e_fr_energy">     -2.42677670 </i>
    <i name="e_wo_entrp">     -2.41261431 </i>
    <i name="e_0_energy">     -2.41969550 </i>
   </energy>
  </scstep>
  <scstep>
   <time name="dav">    0.22    0.22</time>
   <time name="total">    0.99    0.99</time>
   <energy>
    <i name="e_fr_energy">     -2.43401434 </i>
    <i name="e_wo_entrp">     -2.42034737 </i>
    <i name="e_0_energy">     -2.42718086 </i>
   </energy>
  </scstep>
  <scstep>
   <time name="dav">    0.22    0.22</time>
   <time name="total">    1.00    1.00</time>
   <energy>
    <i name="e_fr_energy">     -2.43175593 </i>
    <i name="e_wo_entrp">     -2.40389121 </i>
    <i name="e_0_energy">     -2.41782357 </i>
   </energy>
  </scstep>
  <scstep>
   <time name="dav">    0.22    0.22</time>
   <time name="total">    1.00    1.00</time>
   <energy>
    <i name="e_fr_energy">     -2.43639376 </i>
    <i name="e_wo_entrp">     -2.40293850 </i>
    <i name="e_0_energy">     -2.41966613 </i>
   </energy>
  </scstep>
  <scstep>
   <time name="dav">    0.22    0.22</time>
   <time name="total">    0.99    0.99</time>
   <energy>
    <i name="e_fr_energy">     -2.43761398 </i>
    <i name="e_wo_entrp">     -2.40578184 </i>
    <i name="e_0_energy">     -2.42169791 </i>
   </energy>
  </scstep>
  <scstep>
   <time name="dav">    0.22    0.22</time>
   <time name="total">    1.00    1.00</time>
   <energy>
    <i name="e_fr_energy">     -2.43820004 </i>
    <i name="e_wo_entrp">     -2.40705558 </i>
    <i name="e_0_energy">     -2.42262781 </i>
   </energy>
  </scstep>
  <scstep>
   <time name="dav">    0.23    0.23</time>
   <time name="total">    1.02    1.02</time>
   <energy>
    <i name="e_fr_energy">     -2.43839757 </i>
    <i name="e_wo_entrp">     -2.40868252 </i>
    <i name="e_0_energy">     -2.42354005 </i>
   </energy>
  </scstep>
  <scstep>
   <time name="dav">    0.22    0.22</time>
   <time name="total">    1.00    1.01</time>
   <energy>
    <i name="e_fr_energy">     -2.43856646 </i>
    <i name="e_wo_entrp">     -2.40886271 </i>
    <i name="e_0_energy">     -2.42371459 </i>
   </energy>
  </scstep>
  <scstep>
   <time name="dav">    0.22    0.22</time>
   <time name="total">    0.78    0.78</time>
   <energy>
    <i name="alphaZ">      1.09052110 </i>
    <i name="ewald">   -204.28240005 </i>
    <i name="hartreedc">   -633.93524107 </i>
    <i name="XCdc">     33.40196045 </i>
    <i name="pawpsdc">    796.17304057 </i>
    <i name="pawaedc">   -798.58852426 </i>
    <i name="eentropy">     -0.03009691 </i>
    <i name="bandstr">   -238.86546141 </i>
    <i name="atom">   1042.59758728 </i>
    <i name="e_fr_energy">     -2.43861431 </i>
    <i name="e_wo_entrp">     -2.40851740 </i>
    <i name="e_0_energy">     -2.42356586 </i>
   </energy>
  </scstep>
  <structure>
   <crystal>
    <varray name="basis" >
     <v>      10.00000000       0.00000000       0.00000000 </v>
     <v>       0.00000000      10.00000000       0.00000000 </v>
     <v>       0.00000000       0.00000000      10.00000000 </v>
    </varray>
    <i name="volume">   1000.00000000 </i>
    <varray name="rec_basis" >
     <v>       0.10000000       0.00000000       0.00000000 </v>
     <v>       0.00000000       0.10000000       0.00000000 </v>
     <v>       0.00000000       0.00000000       0.10000000 </v>
    </varray>
   </crystal>
   <varray name="positions" >
    <v>       0.50000000       0.50000000       0.50000000 </v>
   </varray>
  </structure>
  <varray name="forces" >
   <v>       0.00000000       0.00000000       0.00000000 </v>
  </varray>
  <varray name="stress" >
   <v>      -0.19891065       0.00000000       0.00000000 </v>
   <v>      -0.00000000      -0.19891065       0.00000000 </v>
   <v>       0.00000000       0.00000000      -0.19891065 </v>
  </varray>
  <energy>
   <i name="e_fr_energy">     -2.43861431 </i>
   <i name="e_wo_entrp">     -2.42356586 </i>
   <i name="e_0_energy">     -0.03009691 </i>
  </energy>
  <time name="totalsc">   27.38   27.51</time>
  <eigenvalues>
   <array>
    <dimension dim="1">band</dimension>
    <dimension dim="2">kpoint</dimension>
    <dimension dim="3">spin</dimension>
    <field>eigene</field>
    <field>occ</field>
    <set>
     <set comment="spin 1">
      <set comment="kpoint 1">
       <r>  -38.0648    1.0000 </r>
       <r>  -38.0647    1.0000 </r>
       <r>  -38.0644    1.0000 </r>
       <r>   -4.2513    1.0000 </r>
       <r>   -4.1255    1.0000 </r>
       <r>   -4.1252    1.0000 </r>
       <r>   -3.3996    0.0971 </r>
       <r>   -3.3994    0.0964 </r>
       <r>   -3.3989    0.0940 </r>
       <r>   -1.2061    0.0000 </r>
       <r>   -1.2061    0.0000 </r>
       <r>   -1.2061    0.0000 </r>
       <r>   -0.2098    0.0000 </r>
       <r>    0.6754    0.0000 </r>
       <r>    0.6754    0.0000 </r>
       <r>    1.5322    0.0000 </r>
       <r>    1.5322    0.0000 </r>
       <r>    1.5322    0.0000 </r>
       <r>    1.8118    0.0000 </r>
       <r>    1.8118    0.0000 </r>
       <r>    1.8118    0.0000 </r>
       <r>    1.8614    0.0000 </r>
       <r>    2.2828    0.0000 </r>
       <r>    2.2828    0.0000 </r>
       <r>    2.2828    0.0000 </r>
       <r>    2.4505    0.0000 </r>
       <r>    2.4505    0.0000 </r>
       <r>    3.4592    0.0000 </r>
       <r>    3.5695    0.0000 </r>
       <r>    3.5695    0.0000 </r>
       <r>    3.5695    0.0000 </r>
       <r>    3.7098    0.0000 </r>
       <r>    3.7098    0.0000 </r>
       <r>    3.7098    0.0000 </r>
       <r>    3.8880    0.0000 </r>
       <r>    4.2153    0.0000 </r>
      </set>
     </set>
     <set comment="spin 2">
      <set comment="kpoint 1">
       <r>  -36.2411    1.0000 </r>
       <r>  -36.2411    1.0000 </r>
       <r>  -36.2411    1.0000 </r>
       <r>   -3.4653    0.7125 </r>
       <r>   -2.3409    0.0000 </r>
       <r>   -2.3409    0.0000 </r>
       <r>   -2.3408    0.0000 </r>
       <r>   -1.7144    0.0000 </r>
       <r>   -1.7143    0.0000 </r>
       <r>   -0.7221    0.0000 </r>
       <r>   -0.7221    0.0000 </r>
       <r>   -0.7221    0.0000 </r>
       <r>   -0.1480    0.0000 </r>
       <r>    0.8011    0.0000 </r>
       <r>    0.8011    0.0000 </r>
       <r>    1.6055    0.0000 </r>
       <r>    1.6055    0.0000 </r>
       <r>    1.6055    0.0000 </r>
       <r>    1.9279    0.0000 </r>
       <r>    1.9381    0.0000 </r>
       <r>    1.9381    0.0000 </r>
       <r>    1.9381    0.0000 </r>
       <r>    2.2934    0.0000 </r>
       <r>    2.2934    0.0000 </r>
       <r>    2.2934    0.0000 </r>
       <r>    2.4516    0.0000 </r>
       <r>    2.4516    0.0000 </r>
       <r>    3.4841    0.0000 </r>
       <r>    3.6362    0.0000 </r>
       <r>    3.6362    0.0000 </r>
       <r>    3.6362    0.0000 </r>
       <r>    3.7200    0.0000 </r>
       <r>    3.7200    0.0000 </r>
       <r>    3.7200    0.0000 </r>
       <r>    3.8905    0.0000 </r>
       <r>    4.3684    0.0000 </r>
      </set>
     </set>
    </set>
   </array>
  </eigenvalues>
  <separator name="orbital magnetization" >
   <v name="MAGDIPOLOUT">      0.00000000      0.00000000      0.00000000</v>
  </separator>
  <dos>
   <i name="efermi">     -3.44545974 </i>
   <total>
    <array>
     <dimension dim="1">gridpoints</dimension>
     <dimension dim="2">spin</dimension>
     <field>energy</field>
     <field>total</field>
     <field>integrated</field>
     <set>
      <set comment="spin 1">
       <r>   -40.1865     0.0000     0.0000 </r>
       <r>   -40.0309     0.0000     0.0000 </r>
       <r>   -39.8753     0.0000     0.0000 </r>
       <r>   -39.7197     0.0000     0.0000 </r>
       <r>   -39.5641     0.0000     0.0000 </r>
       <r>   -39.4085     0.0000     0.0000 </r>
       <r>   -39.2530     0.0000     0.0000 </r>
       <r>   -39.0974     0.0000     0.0000 </r>
       <r>   -38.9418     0.0000     0.0000 </r>
       <r>   -38.7862     0.0000     0.0000 </r>
       <r>   -38.6306     0.0000     0.0000 </r>
       <r>   -38.4750     0.0000     0.0000 </r>
       <r>   -38.3194     0.0000     0.0000 </r>
       <r>   -38.1638     0.0484     0.0075 </r>
       <r>   -38.0082    18.1662     2.8340 </r>
       <r>   -37.8527     1.0670     3.0000 </r>
       <r>   -37.6971     0.0000     3.0000 </r>
       <r>   -37.5415     0.0000     3.0000 </r>
       <r>   -37.3859     0.0000     3.0000 </r>
       <r>   -37.2303     0.0000     3.0000 </r>
       <r>   -37.0747     0.0000     3.0000 </r>
       <r>   -36.9191     0.0000     3.0000 </r>
       <r>   -36.7635     0.0000     3.0000 </r>
       <r>   -36.6079     0.0000     3.0000 </r>
       <r>   -36.4524     0.0000     3.0000 </r>
       <r>   -36.2968     0.0000     3.0000 </r>
       <r>   -36.1412     0.0000     3.0000 </r>
       <r>   -35.9856     0.0000     3.0000 </r>
       <r>   -35.8300     0.0000     3.0000 </r>
       <r>   -35.6744     0.0000     3.0000 </r>
       <r>   -35.5188     0.0000     3.0000 </r>
       <r>   -35.3632     0.0000     3.0000 </r>
       <r>   -35.2077     0.0000     3.0000 </r>
       <r>   -35.0521     0.0000     3.0000 </r>
       <r>   -34.8965     0.0000     3.0000 </r>
       <r>   -34.7409     0.0000     3.0000 </r>
       <r>   -34.5853     0.0000     3.0000 </r>
       <r>   -34.4297     0.0000     3.0000 </r>
       <r>   -34.2741     0.0000     3.0000 </r>
       <r>   -34.1185     0.0000     3.0000 </r>
       <r>   -33.9629     0.0000     3.0000 </r>
       <r>   -33.8074     0.0000     3.0000 </r>
       <r>   -33.6518     0.0000     3.0000 </r>
       <r>   -33.4962     0.0000     3.0000 </r>
       <r>   -33.3406     0.0000     3.0000 </r>
       <r>   -33.1850     0.0000     3.0000 </r>
       <r>   -33.0294     0.0000     3.0000 </r>
       <r>   -32.8738     0.0000     3.0000 </r>
       <r>   -32.7182     0.0000     3.0000 </r>
       <r>   -32.5626     0.0000     3.0000 </r>
       <r>   -32.4071     0.0000     3.0000 </r>
       <r>   -32.2515     0.0000     3.0000 </r>
       <r>   -32.0959     0.0000     3.0000 </r>
       <r>   -31.9403     0.0000     3.0000 </r>
       <r>   -31.7847     0.0000     3.0000 </r>
       <r>   -31.6291     0.0000     3.0000 </r>
       <r>   -31.4735     0.0000     3.0000 </r>
       <r>   -31.3179     0.0000     3.0000 </r>
       <r>   -31.1623     0.0000     3.0000 </r>
       <r>   -31.0068     0.0000     3.0000 </r>
       <r>   -30.8512     0.0000     3.0000 </r>
       <r>   -30.6956     0.0000     3.0000 </r>
       <r>   -30.5400     0.0000     3.0000 </r>
       <r>   -30.3844     0.0000     3.0000 </r>
       <r>   -30.2288     0.0000     3.0000 </r>
       <r>   -30.0732     0.0000     3.0000 </r>
       <r>   -29.9176     0.0000     3.0000 </r>
       <r>   -29.7621     0.0000     3.0000 </r>
       <r>   -29.6065     0.0000     3.0000 </r>
       <r>   -29.4509     0.0000     3.0000 </r>
       <r>   -29.2953     0.0000     3.0000 </r>
       <r>   -29.1397     0.0000     3.0000 </r>
       <r>   -28.9841     0.0000     3.0000 </r>
       <r>   -28.8285     0.0000     3.0000 </r>
       <r>   -28.6729     0.0000     3.0000 </r>
       <r>   -28.5173     0.0000     3.0000 </r>
       <r>   -28.3618     0.0000     3.0000 </r>
       <r>   -28.2062     0.0000     3.0000 </r>
       <r>   -28.0506     0.0000     3.0000 </r>
       <r>   -27.8950     0.0000     3.0000 </r>
       <r>   -27.7394     0.0000     3.0000 </r>
       <r>   -27.5838     0.0000     3.0000 </r>
       <r>   -27.4282     0.0000     3.0000 </r>
       <r>   -27.2726     0.0000     3.0000 </r>
       <r>   -27.1170     0.0000     3.0000 </r>
       <r>   -26.9615     0.0000     3.0000 </r>
       <r>   -26.8059     0.0000     3.0000 </r>
       <r>   -26.6503     0.0000     3.0000 </r>
       <r>   -26.4947     0.0000     3.0000 </r>
       <r>   -26.3391     0.0000     3.0000 </r>
       <r>   -26.1835     0.0000     3.0000 </r>
       <r>   -26.0279     0.0000     3.0000 </r>
       <r>   -25.8723     0.0000     3.0000 </r>
       <r>   -25.7168     0.0000     3.0000 </r>
       <r>   -25.5612     0.0000     3.0000 </r>
       <r>   -25.4056     0.0000     3.0000 </r>
       <r>   -25.2500     0.0000     3.0000 </r>
       <r>   -25.0944     0.0000     3.0000 </r>
       <r>   -24.9388     0.0000     3.0000 </r>
       <r>   -24.7832     0.0000     3.0000 </r>
       <r>   -24.6276     0.0000     3.0000 </r>
       <r>   -24.4720     0.0000     3.0000 </r>
       <r>   -24.3165     0.0000     3.0000 </r>
       <r>   -24.1609     0.0000     3.0000 </r>
       <r>   -24.0053     0.0000     3.0000 </r>
       <r>   -23.8497     0.0000     3.0000 </r>
       <r>   -23.6941     0.0000     3.0000 </r>
       <r>   -23.5385     0.0000     3.0000 </r>
       <r>   -23.3829     0.0000     3.0000 </r>
       <r>   -23.2273     0.0000     3.0000 </r>
       <r>   -23.0717     0.0000     3.0000 </r>
       <r>   -22.9162     0.0000     3.0000 </r>
       <r>   -22.7606     0.0000     3.0000 </r>
       <r>   -22.6050     0.0000     3.0000 </r>
       <r>   -22.4494     0.0000     3.0000 </r>
       <r>   -22.2938     0.0000     3.0000 </r>
       <r>   -22.1382     0.0000     3.0000 </r>
       <r>   -21.9826     0.0000     3.0000 </r>
       <r>   -21.8270     0.0000     3.0000 </r>
       <r>   -21.6714     0.0000     3.0000 </r>
       <r>   -21.5159     0.0000     3.0000 </r>
       <r>   -21.3603     0.0000     3.0000 </r>
       <r>   -21.2047     0.0000     3.0000 </r>
       <r>   -21.0491     0.0000     3.0000 </r>
       <r>   -20.8935     0.0000     3.0000 </r>
       <r>   -20.7379     0.0000     3.0000 </r>
       <r>   -20.5823     0.0000     3.0000 </r>
       <r>   -20.4267     0.0000     3.0000 </r>
       <r>   -20.2712     0.0000     3.0000 </r>
       <r>   -20.1156     0.0000     3.0000 </r>
       <r>   -19.9600     0.0000     3.0000 </r>
       <r>   -19.8044     0.0000     3.0000 </r>
       <r>   -19.6488     0.0000     3.0000 </r>
       <r>   -19.4932     0.0000     3.0000 </r>
       <r>   -19.3376     0.0000     3.0000 </r>
       <r>   -19.1820     0.0000     3.0000 </r>
       <r>   -19.0264     0.0000     3.0000 </r>
       <r>   -18.8709     0.0000     3.0000 </r>
       <r>   -18.7153     0.0000     3.0000 </r>
       <r>   -18.5597     0.0000     3.0000 </r>
       <r>   -18.4041     0.0000     3.0000 </r>
       <r>   -18.2485     0.0000     3.0000 </r>
       <r>   -18.0929     0.0000     3.0000 </r>
       <r>   -17.9373     0.0000     3.0000 </r>
       <r>   -17.7817     0.0000     3.0000 </r>
       <r>   -17.6261     0.0000     3.0000 </r>
       <r>   -17.4706     0.0000     3.0000 </r>
       <r>   -17.3150     0.0000     3.0000 </r>
       <r>   -17.1594     0.0000     3.0000 </r>
       <r>   -17.0038     0.0000     3.0000 </r>
       <r>   -16.8482     0.0000     3.0000 </r>
       <r>   -16.6926     0.0000     3.0000 </r>
       <r>   -16.5370     0.0000     3.0000 </r>
       <r>   -16.3814     0.0000     3.0000 </r>
       <r>   -16.2259     0.0000     3.0000 </r>
       <r>   -16.0703     0.0000     3.0000 </r>
       <r>   -15.9147     0.0000     3.0000 </r>
       <r>   -15.7591     0.0000     3.0000 </r>
       <r>   -15.6035     0.0000     3.0000 </r>
       <r>   -15.4479     0.0000     3.0000 </r>
       <r>   -15.2923     0.0000     3.0000 </r>
       <r>   -15.1367     0.0000     3.0000 </r>
       <r>   -14.9811     0.0000     3.0000 </r>
       <r>   -14.8256     0.0000     3.0000 </r>
       <r>   -14.6700     0.0000     3.0000 </r>
       <r>   -14.5144     0.0000     3.0000 </r>
       <r>   -14.3588     0.0000     3.0000 </r>
       <r>   -14.2032     0.0000     3.0000 </r>
       <r>   -14.0476     0.0000     3.0000 </r>
       <r>   -13.8920     0.0000     3.0000 </r>
       <r>   -13.7364     0.0000     3.0000 </r>
       <r>   -13.5808     0.0000     3.0000 </r>
       <r>   -13.4253     0.0000     3.0000 </r>
       <r>   -13.2697     0.0000     3.0000 </r>
       <r>   -13.1141     0.0000     3.0000 </r>
       <r>   -12.9585     0.0000     3.0000 </r>
       <r>   -12.8029     0.0000     3.0000 </r>
       <r>   -12.6473     0.0000     3.0000 </r>
       <r>   -12.4917     0.0000     3.0000 </r>
       <r>   -12.3361     0.0000     3.0000 </r>
       <r>   -12.1805     0.0000     3.0000 </r>
       <r>   -12.0250     0.0000     3.0000 </r>
       <r>   -11.8694     0.0000     3.0000 </r>
       <r>   -11.7138     0.0000     3.0000 </r>
       <r>   -11.5582     0.0000     3.0000 </r>
       <r>   -11.4026     0.0000     3.0000 </r>
       <r>   -11.2470     0.0000     3.0000 </r>
       <r>   -11.0914     0.0000     3.0000 </r>
       <r>   -10.9358     0.0000     3.0000 </r>
       <r>   -10.7803     0.0000     3.0000 </r>
       <r>   -10.6247     0.0000     3.0000 </r>
       <r>   -10.4691     0.0000     3.0000 </r>
       <r>   -10.3135     0.0000     3.0000 </r>
       <r>   -10.1579     0.0000     3.0000 </r>
       <r>   -10.0023     0.0000     3.0000 </r>
       <r>    -9.8467     0.0000     3.0000 </r>
       <r>    -9.6911     0.0000     3.0000 </r>
       <r>    -9.5355     0.0000     3.0000 </r>
       <r>    -9.3800     0.0000     3.0000 </r>
       <r>    -9.2244     0.0000     3.0000 </r>
       <r>    -9.0688     0.0000     3.0000 </r>
       <r>    -8.9132     0.0000     3.0000 </r>
       <r>    -8.7576     0.0000     3.0000 </r>
       <r>    -8.6020     0.0000     3.0000 </r>
       <r>    -8.4464     0.0000     3.0000 </r>
       <r>    -8.2908     0.0000     3.0000 </r>
       <r>    -8.1352     0.0000     3.0000 </r>
       <r>    -7.9797     0.0000     3.0000 </r>
       <r>    -7.8241     0.0000     3.0000 </r>
       <r>    -7.6685     0.0000     3.0000 </r>
       <r>    -7.5129     0.0000     3.0000 </r>
       <r>    -7.3573     0.0000     3.0000 </r>
       <r>    -7.2017     0.0000     3.0000 </r>
       <r>    -7.0461     0.0000     3.0000 </r>
       <r>    -6.8905     0.0000     3.0000 </r>
       <r>    -6.7350     0.0000     3.0000 </r>
       <r>    -6.5794     0.0000     3.0000 </r>
       <r>    -6.4238     0.0000     3.0000 </r>
       <r>    -6.2682     0.0000     3.0000 </r>
       <r>    -6.1126     0.0000     3.0000 </r>
       <r>    -5.9570     0.0000     3.0000 </r>
       <r>    -5.8014     0.0000     3.0000 </r>
       <r>    -5.6458     0.0000     3.0000 </r>
       <r>    -5.4902     0.0000     3.0000 </r>
       <r>    -5.3347     0.0000     3.0000 </r>
       <r>    -5.1791     0.0000     3.0000 </r>
       <r>    -5.0235     0.0000     3.0000 </r>
       <r>    -4.8679     0.0000     3.0000 </r>
       <r>    -4.7123     0.0000     3.0000 </r>
       <r>    -4.5567     0.0000     3.0000 </r>
       <r>    -4.4011     0.0001     3.0000 </r>
       <r>    -4.2455     3.6324     3.5652 </r>
       <r>    -4.0899    13.6139     5.6833 </r>
       <r>    -3.9344     2.0353     6.0000 </r>
       <r>    -3.7788     0.0000     6.0000 </r>
       <r>    -3.6232     0.0000     6.0000 </r>
       <r>    -3.4676     0.5149     6.0801 </r>
       <r>    -3.3120    18.6361     8.9797 </r>
       <r>    -3.1564     0.1306     9.0000 </r>
       <r>    -3.0008     0.0000     9.0000 </r>
       <r>    -2.8452     0.0000     9.0000 </r>
       <r>    -2.6896     0.0000     9.0000 </r>
       <r>    -2.5341     0.0000     9.0000 </r>
       <r>    -2.3785     0.0000     9.0000 </r>
       <r>    -2.2229     0.0000     9.0000 </r>
       <r>    -2.0673     0.0000     9.0000 </r>
       <r>    -1.9117     0.0000     9.0000 </r>
       <r>    -1.7561     0.0000     9.0000 </r>
       <r>    -1.6005     0.0000     9.0000 </r>
       <r>    -1.4449     0.0000     9.0000 </r>
       <r>    -1.2894     0.1792     9.0279 </r>
       <r>    -1.1338    18.7105    11.9390 </r>
       <r>    -0.9782     0.3920    12.0000 </r>
       <r>    -0.8226     0.0000    12.0000 </r>
       <r>    -0.6670     0.0000    12.0000 </r>
       <r>    -0.5114     0.0000    12.0000 </r>
       <r>    -0.3558     0.0001    12.0000 </r>
       <r>    -0.2002     3.9005    12.6069 </r>
       <r>    -0.0446     2.5266    13.0000 </r>
       <r>     0.1109     0.0000    13.0000 </r>
       <r>     0.2665     0.0000    13.0000 </r>
       <r>     0.4221     0.0000    13.0000 </r>
       <r>     0.5777     0.0368    13.0057 </r>
       <r>     0.7333    12.1651    14.8985 </r>
       <r>     0.8889     0.6525    15.0000 </r>
       <r>     1.0445     0.0000    15.0000 </r>
       <r>     1.2001     0.0000    15.0000 </r>
       <r>     1.3557     0.0000    15.0000 </r>
       <r>     1.5112     5.3423    15.8312 </r>
       <r>     1.6668    13.9384    17.9999 </r>
       <r>     1.8224    12.7945    19.9905 </r>
       <r>     1.9780    12.9122    21.9995 </r>
       <r>     2.1336     0.0034    22.0000 </r>
       <r>     2.2892    11.0196    23.7146 </r>
       <r>     2.4448    13.8685    25.8723 </r>
       <r>     2.6004     7.2476    27.0000 </r>
       <r>     2.7559     0.0001    27.0000 </r>
       <r>     2.9115     0.0000    27.0000 </r>
       <r>     3.0671     0.0000    27.0000 </r>
       <r>     3.2227     0.0000    27.0000 </r>
       <r>     3.3783     0.0712    27.0111 </r>
       <r>     3.5339     9.2672    28.4530 </r>
       <r>     3.6895    21.8221    31.8482 </r>
       <r>     3.8451    14.5513    34.1122 </r>
       <r>     4.0007     5.7012    34.9993 </r>
       <r>     4.1562     0.3097    35.0475 </r>
       <r>     4.3118     6.1019    35.9968 </r>
       <r>     4.4674     0.0203    36.0000 </r>
       <r>     4.6230     0.0000    36.0000 </r>
       <r>     4.7786     0.0000    36.0000 </r>
       <r>     4.9342     0.0000    36.0000 </r>
       <r>     5.0898     0.0000    36.0000 </r>
       <r>     5.2454     0.0000    36.0000 </r>
       <r>     5.4010     0.0000    36.0000 </r>
       <r>     5.5565     0.0000    36.0000 </r>
       <r>     5.7121     0.0000    36.0000 </r>
       <r>     5.8677     0.0000    36.0000 </r>
       <r>     6.0233     0.0000    36.0000 </r>
       <r>     6.1789     0.0000    36.0000 </r>
       <r>     6.3345     0.0000    36.0000 </r>
       <r>     6.4901     0.0000    36.0000 </r>
      </set>
      <set comment="spin 2">
       <r>   -40.1865     0.0000     0.0000 </r>
       <r>   -40.0309     0.0000     0.0000 </r>
       <r>   -39.8753     0.0000     0.0000 </r>
       <r>   -39.7197     0.0000     0.0000 </r>
       <r>   -39.5641     0.0000     0.0000 </r>
       <r>   -39.4085     0.0000     0.0000 </r>
       <r>   -39.2530     0.0000     0.0000 </r>
       <r>   -39.0974     0.0000     0.0000 </r>
       <r>   -38.9418     0.0000     0.0000 </r>
       <r>   -38.7862     0.0000     0.0000 </r>
       <r>   -38.6306     0.0000     0.0000 </r>
       <r>   -38.4750     0.0000     0.0000 </r>
       <r>   -38.3194     0.0000     0.0000 </r>
       <r>   -38.1638     0.0000     0.0000 </r>
       <r>   -38.0082     0.0000     0.0000 </r>
       <r>   -37.8527     0.0000     0.0000 </r>
       <r>   -37.6971     0.0000     0.0000 </r>
       <r>   -37.5415     0.0000     0.0000 </r>
       <r>   -37.3859     0.0000     0.0000 </r>
       <r>   -37.2303     0.0000     0.0000 </r>
       <r>   -37.0747     0.0000     0.0000 </r>
       <r>   -36.9191     0.0000     0.0000 </r>
       <r>   -36.7635     0.0000     0.0000 </r>
       <r>   -36.6079     0.0000     0.0000 </r>
       <r>   -36.4524     0.0000     0.0000 </r>
       <r>   -36.2968     1.1109     0.1728 </r>
       <r>   -36.1412    18.1252     2.9929 </r>
       <r>   -35.9856     0.0455     3.0000 </r>
       <r>   -35.8300     0.0000     3.0000 </r>
       <r>   -35.6744     0.0000     3.0000 </r>
       <r>   -35.5188     0.0000     3.0000 </r>
       <r>   -35.3632     0.0000     3.0000 </r>
       <r>   -35.2077     0.0000     3.0000 </r>
       <r>   -35.0521     0.0000     3.0000 </r>
       <r>   -34.8965     0.0000     3.0000 </r>
       <r>   -34.7409     0.0000     3.0000 </r>
       <r>   -34.5853     0.0000     3.0000 </r>
       <r>   -34.4297     0.0000     3.0000 </r>
       <r>   -34.2741     0.0000     3.0000 </r>
       <r>   -34.1185     0.0000     3.0000 </r>
       <r>   -33.9629     0.0000     3.0000 </r>
       <r>   -33.8074     0.0000     3.0000 </r>
       <r>   -33.6518     0.0000     3.0000 </r>
       <r>   -33.4962     0.0000     3.0000 </r>
       <r>   -33.3406     0.0000     3.0000 </r>
       <r>   -33.1850     0.0000     3.0000 </r>
       <r>   -33.0294     0.0000     3.0000 </r>
       <r>   -32.8738     0.0000     3.0000 </r>
       <r>   -32.7182     0.0000     3.0000 </r>
       <r>   -32.5626     0.0000     3.0000 </r>
       <r>   -32.4071     0.0000     3.0000 </r>
       <r>   -32.2515     0.0000     3.0000 </r>
       <r>   -32.0959     0.0000     3.0000 </r>
       <r>   -31.9403     0.0000     3.0000 </r>
       <r>   -31.7847     0.0000     3.0000 </r>
       <r>   -31.6291     0.0000     3.0000 </r>
       <r>   -31.4735     0.0000     3.0000 </r>
       <r>   -31.3179     0.0000     3.0000 </r>
       <r>   -31.1623     0.0000     3.0000 </r>
       <r>   -31.0068     0.0000     3.0000 </r>
       <r>   -30.8512     0.0000     3.0000 </r>
       <r>   -30.6956     0.0000     3.0000 </r>
       <r>   -30.5400     0.0000     3.0000 </r>
       <r>   -30.3844     0.0000     3.0000 </r>
       <r>   -30.2288     0.0000     3.0000 </r>
       <r>   -30.0732     0.0000     3.0000 </r>
       <r>   -29.9176     0.0000     3.0000 </r>
       <r>   -29.7621     0.0000     3.0000 </r>
       <r>   -29.6065     0.0000     3.0000 </r>
       <r>   -29.4509     0.0000     3.0000 </r>
       <r>   -29.2953     0.0000     3.0000 </r>
       <r>   -29.1397     0.0000     3.0000 </r>
       <r>   -28.9841     0.0000     3.0000 </r>
       <r>   -28.8285     0.0000     3.0000 </r>
       <r>   -28.6729     0.0000     3.0000 </r>
       <r>   -28.5173     0.0000     3.0000 </r>
       <r>   -28.3618     0.0000     3.0000 </r>
       <r>   -28.2062     0.0000     3.0000 </r>
       <r>   -28.0506     0.0000     3.0000 </r>
       <r>   -27.8950     0.0000     3.0000 </r>
       <r>   -27.7394     0.0000     3.0000 </r>
       <r>   -27.5838     0.0000     3.0000 </r>
       <r>   -27.4282     0.0000     3.0000 </r>
       <r>   -27.2726     0.0000     3.0000 </r>
       <r>   -27.1170     0.0000     3.0000 </r>
       <r>   -26.9615     0.0000     3.0000 </r>
       <r>   -26.8059     0.0000     3.0000 </r>
       <r>   -26.6503     0.0000     3.0000 </r>
       <r>   -26.4947     0.0000     3.0000 </r>
       <r>   -26.3391     0.0000     3.0000 </r>
       <r>   -26.1835     0.0000     3.0000 </r>
       <r>   -26.0279     0.0000     3.0000 </r>
       <r>   -25.8723     0.0000     3.0000 </r>
       <r>   -25.7168     0.0000     3.0000 </r>
       <r>   -25.5612     0.0000     3.0000 </r>
       <r>   -25.4056     0.0000     3.0000 </r>
       <r>   -25.2500     0.0000     3.0000 </r>
       <r>   -25.0944     0.0000     3.0000 </r>
       <r>   -24.9388     0.0000     3.0000 </r>
       <r>   -24.7832     0.0000     3.0000 </r>
       <r>   -24.6276     0.0000     3.0000 </r>
       <r>   -24.4720     0.0000     3.0000 </r>
       <r>   -24.3165     0.0000     3.0000 </r>
       <r>   -24.1609     0.0000     3.0000 </r>
       <r>   -24.0053     0.0000     3.0000 </r>
       <r>   -23.8497     0.0000     3.0000 </r>
       <r>   -23.6941     0.0000     3.0000 </r>
       <r>   -23.5385     0.0000     3.0000 </r>
       <r>   -23.3829     0.0000     3.0000 </r>
       <r>   -23.2273     0.0000     3.0000 </r>
       <r>   -23.0717     0.0000     3.0000 </r>
       <r>   -22.9162     0.0000     3.0000 </r>
       <r>   -22.7606     0.0000     3.0000 </r>
       <r>   -22.6050     0.0000     3.0000 </r>
       <r>   -22.4494     0.0000     3.0000 </r>
       <r>   -22.2938     0.0000     3.0000 </r>
       <r>   -22.1382     0.0000     3.0000 </r>
       <r>   -21.9826     0.0000     3.0000 </r>
       <r>   -21.8270     0.0000     3.0000 </r>
       <r>   -21.6714     0.0000     3.0000 </r>
       <r>   -21.5159     0.0000     3.0000 </r>
       <r>   -21.3603     0.0000     3.0000 </r>
       <r>   -21.2047     0.0000     3.0000 </r>
       <r>   -21.0491     0.0000     3.0000 </r>
       <r>   -20.8935     0.0000     3.0000 </r>
       <r>   -20.7379     0.0000     3.0000 </r>
       <r>   -20.5823     0.0000     3.0000 </r>
       <r>   -20.4267     0.0000     3.0000 </r>
       <r>   -20.2712     0.0000     3.0000 </r>
       <r>   -20.1156     0.0000     3.0000 </r>
       <r>   -19.9600     0.0000     3.0000 </r>
       <r>   -19.8044     0.0000     3.0000 </r>
       <r>   -19.6488     0.0000     3.0000 </r>
       <r>   -19.4932     0.0000     3.0000 </r>
       <r>   -19.3376     0.0000     3.0000 </r>
       <r>   -19.1820     0.0000     3.0000 </r>
       <r>   -19.0264     0.0000     3.0000 </r>
       <r>   -18.8709     0.0000     3.0000 </r>
       <r>   -18.7153     0.0000     3.0000 </r>
       <r>   -18.5597     0.0000     3.0000 </r>
       <r>   -18.4041     0.0000     3.0000 </r>
       <r>   -18.2485     0.0000     3.0000 </r>
       <r>   -18.0929     0.0000     3.0000 </r>
       <r>   -17.9373     0.0000     3.0000 </r>
       <r>   -17.7817     0.0000     3.0000 </r>
       <r>   -17.6261     0.0000     3.0000 </r>
       <r>   -17.4706     0.0000     3.0000 </r>
       <r>   -17.3150     0.0000     3.0000 </r>
       <r>   -17.1594     0.0000     3.0000 </r>
       <r>   -17.0038     0.0000     3.0000 </r>
       <r>   -16.8482     0.0000     3.0000 </r>
       <r>   -16.6926     0.0000     3.0000 </r>
       <r>   -16.5370     0.0000     3.0000 </r>
       <r>   -16.3814     0.0000     3.0000 </r>
       <r>   -16.2259     0.0000     3.0000 </r>
       <r>   -16.0703     0.0000     3.0000 </r>
       <r>   -15.9147     0.0000     3.0000 </r>
       <r>   -15.7591     0.0000     3.0000 </r>
       <r>   -15.6035     0.0000     3.0000 </r>
       <r>   -15.4479     0.0000     3.0000 </r>
       <r>   -15.2923     0.0000     3.0000 </r>
       <r>   -15.1367     0.0000     3.0000 </r>
       <r>   -14.9811     0.0000     3.0000 </r>
       <r>   -14.8256     0.0000     3.0000 </r>
       <r>   -14.6700     0.0000     3.0000 </r>
       <r>   -14.5144     0.0000     3.0000 </r>
       <r>   -14.3588     0.0000     3.0000 </r>
       <r>   -14.2032     0.0000     3.0000 </r>
       <r>   -14.0476     0.0000     3.0000 </r>
       <r>   -13.8920     0.0000     3.0000 </r>
       <r>   -13.7364     0.0000     3.0000 </r>
       <r>   -13.5808     0.0000     3.0000 </r>
       <r>   -13.4253     0.0000     3.0000 </r>
       <r>   -13.2697     0.0000     3.0000 </r>
       <r>   -13.1141     0.0000     3.0000 </r>
       <r>   -12.9585     0.0000     3.0000 </r>
       <r>   -12.8029     0.0000     3.0000 </r>
       <r>   -12.6473     0.0000     3.0000 </r>
       <r>   -12.4917     0.0000     3.0000 </r>
       <r>   -12.3361     0.0000     3.0000 </r>
       <r>   -12.1805     0.0000     3.0000 </r>
       <r>   -12.0250     0.0000     3.0000 </r>
       <r>   -11.8694     0.0000     3.0000 </r>
       <r>   -11.7138     0.0000     3.0000 </r>
       <r>   -11.5582     0.0000     3.0000 </r>
       <r>   -11.4026     0.0000     3.0000 </r>
       <r>   -11.2470     0.0000     3.0000 </r>
       <r>   -11.0914     0.0000     3.0000 </r>
       <r>   -10.9358     0.0000     3.0000 </r>
       <r>   -10.7803     0.0000     3.0000 </r>
       <r>   -10.6247     0.0000     3.0000 </r>
       <r>   -10.4691     0.0000     3.0000 </r>
       <r>   -10.3135     0.0000     3.0000 </r>
       <r>   -10.1579     0.0000     3.0000 </r>
       <r>   -10.0023     0.0000     3.0000 </r>
       <r>    -9.8467     0.0000     3.0000 </r>
       <r>    -9.6911     0.0000     3.0000 </r>
       <r>    -9.5355     0.0000     3.0000 </r>
       <r>    -9.3800     0.0000     3.0000 </r>
       <r>    -9.2244     0.0000     3.0000 </r>
       <r>    -9.0688     0.0000     3.0000 </r>
       <r>    -8.9132     0.0000     3.0000 </r>
       <r>    -8.7576     0.0000     3.0000 </r>
       <r>    -8.6020     0.0000     3.0000 </r>
       <r>    -8.4464     0.0000     3.0000 </r>
       <r>    -8.2908     0.0000     3.0000 </r>
       <r>    -8.1352     0.0000     3.0000 </r>
       <r>    -7.9797     0.0000     3.0000 </r>
       <r>    -7.8241     0.0000     3.0000 </r>
       <r>    -7.6685     0.0000     3.0000 </r>
       <r>    -7.5129     0.0000     3.0000 </r>
       <r>    -7.3573     0.0000     3.0000 </r>
       <r>    -7.2017     0.0000     3.0000 </r>
       <r>    -7.0461     0.0000     3.0000 </r>
       <r>    -6.8905     0.0000     3.0000 </r>
       <r>    -6.7350     0.0000     3.0000 </r>
       <r>    -6.5794     0.0000     3.0000 </r>
       <r>    -6.4238     0.0000     3.0000 </r>
       <r>    -6.2682     0.0000     3.0000 </r>
       <r>    -6.1126     0.0000     3.0000 </r>
       <r>    -5.9570     0.0000     3.0000 </r>
       <r>    -5.8014     0.0000     3.0000 </r>
       <r>    -5.6458     0.0000     3.0000 </r>
       <r>    -5.4902     0.0000     3.0000 </r>
       <r>    -5.3347     0.0000     3.0000 </r>
       <r>    -5.1791     0.0000     3.0000 </r>
       <r>    -5.0235     0.0000     3.0000 </r>
       <r>    -4.8679     0.0000     3.0000 </r>
       <r>    -4.7123     0.0000     3.0000 </r>
       <r>    -4.5567     0.0000     3.0000 </r>
       <r>    -4.4011     0.0000     3.0000 </r>
       <r>    -4.2455     0.0000     3.0000 </r>
       <r>    -4.0899     0.0000     3.0000 </r>
       <r>    -3.9344     0.0000     3.0000 </r>
       <r>    -3.7788     0.0000     3.0000 </r>
       <r>    -3.6232     0.0000     3.0000 </r>
       <r>    -3.4676     3.0461     3.4739 </r>
       <r>    -3.3120     3.3811     4.0000 </r>
       <r>    -3.1564     0.0000     4.0000 </r>
       <r>    -3.0008     0.0000     4.0000 </r>
       <r>    -2.8452     0.0000     4.0000 </r>
       <r>    -2.6896     0.0000     4.0000 </r>
       <r>    -2.5341     0.0000     4.0000 </r>
       <r>    -2.3785     2.7757     4.4319 </r>
       <r>    -2.2229    16.4978     6.9987 </r>
       <r>    -2.0673     0.0081     7.0000 </r>
       <r>    -1.9117     0.0000     7.0000 </r>
       <r>    -1.7561     1.5282     7.2378 </r>
       <r>    -1.6005    11.3180     8.9987 </r>
       <r>    -1.4449     0.0082     9.0000 </r>
       <r>    -1.2894     0.0000     9.0000 </r>
       <r>    -1.1338     0.0000     9.0000 </r>
       <r>    -0.9782     0.0000     9.0000 </r>
       <r>    -0.8226     0.0433     9.0067 </r>
       <r>    -0.6670    18.0914    11.8215 </r>
       <r>    -0.5114     1.1470    12.0000 </r>
       <r>    -0.3558     0.0000    12.0000 </r>
       <r>    -0.2002     0.4483    12.0698 </r>
       <r>    -0.0446     5.9677    12.9983 </r>
       <r>     0.1109     0.0111    13.0000 </r>
       <r>     0.2665     0.0000    13.0000 </r>
       <r>     0.4221     0.0000    13.0000 </r>
       <r>     0.5777     0.0000    13.0000 </r>
       <r>     0.7333     0.3548    13.0552 </r>
       <r>     0.8889    12.4160    14.9870 </r>
       <r>     1.0445     0.0836    15.0000 </r>
       <r>     1.2001     0.0000    15.0000 </r>
       <r>     1.3557     0.0000    15.0000 </r>
       <r>     1.5112     0.0742    15.0115 </r>
       <r>     1.6668    18.4107    17.8760 </r>
       <r>     1.8224     0.8162    18.0030 </r>
       <r>     1.9780    22.6860    21.5327 </r>
       <r>     2.1336     3.0035    22.0000 </r>
       <r>     2.2892     8.7350    23.3591 </r>
       <r>     2.4448    15.9872    25.8465 </r>
       <r>     2.6004     7.4136    27.0000 </r>
       <r>     2.7559     0.0002    27.0000 </r>
       <r>     2.9115     0.0000    27.0000 </r>
       <r>     3.0671     0.0000    27.0000 </r>
       <r>     3.2227     0.0000    27.0000 </r>
       <r>     3.3783     0.0089    27.0014 </r>
       <r>     3.5339     5.9430    27.9260 </r>
       <r>     3.6895    22.2214    31.3834 </r>
       <r>     3.8451    17.4517    34.0987 </r>
       <r>     4.0007     5.7867    34.9991 </r>
       <r>     4.1562     0.0059    35.0000 </r>
       <r>     4.3118     0.3520    35.0548 </r>
       <r>     4.4674     6.0588    35.9974 </r>
       <r>     4.6230     0.0164    36.0000 </r>
       <r>     4.7786     0.0000    36.0000 </r>
       <r>     4.9342     0.0000    36.0000 </r>
       <r>     5.0898     0.0000    36.0000 </r>
       <r>     5.2454     0.0000    36.0000 </r>
       <r>     5.4010     0.0000    36.0000 </r>
       <r>     5.5565     0.0000    36.0000 </r>
       <r>     5.7121     0.0000    36.0000 </r>
       <r>     5.8677     0.0000    36.0000 </r>
       <r>     6.0233     0.0000    36.0000 </r>
       <r>     6.1789     0.0000    36.0000 </r>
       <r>     6.3345     0.0000    36.0000 </r>
       <r>     6.4901     0.0000    36.0000 </r>
      </set>
     </set>
    </array>
   </total>
   <partial>
    <array>
     <dimension dim="1">gridpoints</dimension>
     <dimension dim="2">spin</dimension>
     <dimension dim="3">ion</dimension>
     <field>energy</field>
     <field>    s</field>
     <field>   py</field>
     <field>   pz</field>
     <field>   px</field>
     <field>  dxy</field>
     <field>  dyz</field>
     <field>  dz2</field>
     <field>  dxz</field>
     <field>x2-y2</field>
     <set>
      <set comment="ion 1">
       <set comment="spin 1">
        <r>   -40.1865     0.0000     0.0000     0.0000     0.0000     0.0000     0.0000     0.0000     0.0000     0.0000 </r>
        <r>   -40.0309     0.0000     0.0000     0.0000     0.0000     0.0000     0.0000     0.0000     0.0000     0.0000 </r>
        <r>   -39.8753     0.0000     0.0000     0.0000     0.0000     0.0000     0.0000     0.0000     0.0000     0.0000 </r>
        <r>   -39.7197     0.0000     0.0000     0.0000     0.0000     0.0000     0.0000     0.0000     0.0000     0.0000 </r>
        <r>   -39.5641     0.0000     0.0000     0.0000     0.0000     0.0000     0.0000     0.0000     0.0000     0.0000 </r>
        <r>   -39.4085     0.0000     0.0000     0.0000     0.0000     0.0000     0.0000     0.0000     0.0000     0.0000 </r>
        <r>   -39.2530     0.0000     0.0000     0.0000     0.0000     0.0000     0.0000     0.0000     0.0000     0.0000 </r>
        <r>   -39.0974     0.0000     0.0000     0.0000     0.0000     0.0000     0.0000     0.0000     0.0000     0.0000 </r>
        <r>   -38.9418     0.0000     0.0000     0.0000     0.0000     0.0000     0.0000     0.0000     0.0000     0.0000 </r>
        <r>   -38.7862     0.0000     0.0000     0.0000     0.0000     0.0000     0.0000     0.0000     0.0000     0.0000 </r>
        <r>   -38.6306     0.0000     0.0000     0.0000     0.0000     0.0000     0.0000     0.0000     0.0000     0.0000 </r>
        <r>   -38.4750     0.0000     0.0000     0.0000     0.0000     0.0000     0.0000     0.0000     0.0000     0.0000 </r>
        <r>   -38.3194     0.0000     0.0000     0.0000     0.0000     0.0000     0.0000     0.0000     0.0000     0.0000 </r>
        <r>   -38.1638     0.0000     0.0161     0.0162     0.0157     0.0000     0.0000     0.0000     0.0000     0.0000 </r>
        <r>   -38.0082     0.0000     6.0010     6.0033     5.9956     0.0000     0.0000     0.0000     0.0000     0.0000 </r>
        <r>   -37.8527     0.0000     0.3513     0.3488     0.3571     0.0000     0.0000     0.0000     0.0000     0.0000 </r>
        <r>   -37.6971     0.0000     0.0000     0.0000     0.0000     0.0000     0.0000     0.0000     0.0000     0.0000 </r>
        <r>   -37.5415     0.0000     0.0000     0.0000     0.0000     0.0000     0.0000     0.0000     0.0000     0.0000 </r>
        <r>   -37.3859     0.0000     0.0000     0.0000     0.0000     0.0000     0.0000     0.0000     0.0000     0.0000 </r>
        <r>   -37.2303     0.0000     0.0000     0.0000     0.0000     0.0000     0.0000     0.0000     0.0000     0.0000 </r>
        <r>   -37.0747     0.0000     0.0000     0.0000     0.0000     0.0000     0.0000     0.0000     0.0000     0.0000 </r>
        <r>   -36.9191     0.0000     0.0000     0.0000     0.0000     0.0000     0.0000     0.0000     0.0000     0.0000 </r>
        <r>   -36.7635     0.0000     0.0000     0.0000     0.0000     0.0000     0.0000     0.0000     0.0000     0.0000 </r>
        <r>   -36.6079     0.0000     0.0000     0.0000     0.0000     0.0000     0.0000     0.0000     0.0000     0.0000 </r>
        <r>   -36.4524     0.0000     0.0000     0.0000     0.0000     0.0000     0.0000     0.0000     0.0000     0.0000 </r>
        <r>   -36.2968     0.0000     0.0000     0.0000     0.0000     0.0000     0.0000     0.0000     0.0000     0.0000 </r>
        <r>   -36.1412     0.0000     0.0000     0.0000     0.0000     0.0000     0.0000     0.0000     0.0000     0.0000 </r>
        <r>   -35.9856     0.0000     0.0000     0.0000     0.0000     0.0000     0.0000     0.0000     0.0000     0.0000 </r>
        <r>   -35.8300     0.0000     0.0000     0.0000     0.0000     0.0000     0.0000     0.0000     0.0000     0.0000 </r>
        <r>   -35.6744     0.0000     0.0000     0.0000     0.0000     0.0000     0.0000     0.0000     0.0000     0.0000 </r>
        <r>   -35.5188     0.0000     0.0000     0.0000     0.0000     0.0000     0.0000     0.0000     0.0000     0.0000 </r>
        <r>   -35.3632     0.0000     0.0000     0.0000     0.0000     0.0000     0.0000     0.0000     0.0000     0.0000 </r>
        <r>   -35.2077     0.0000     0.0000     0.0000     0.0000     0.0000     0.0000     0.0000     0.0000     0.0000 </r>
        <r>   -35.0521     0.0000     0.0000     0.0000     0.0000     0.0000     0.0000     0.0000     0.0000     0.0000 </r>
        <r>   -34.8965     0.0000     0.0000     0.0000     0.0000     0.0000     0.0000     0.0000     0.0000     0.0000 </r>
        <r>   -34.7409     0.0000     0.0000     0.0000     0.0000     0.0000     0.0000     0.0000     0.0000     0.0000 </r>
        <r>   -34.5853     0.0000     0.0000     0.0000     0.0000     0.0000     0.0000     0.0000     0.0000     0.0000 </r>
        <r>   -34.4297     0.0000     0.0000     0.0000     0.0000     0.0000     0.0000     0.0000     0.0000     0.0000 </r>
        <r>   -34.2741     0.0000     0.0000     0.0000     0.0000     0.0000     0.0000     0.0000     0.0000     0.0000 </r>
        <r>   -34.1185     0.0000     0.0000     0.0000     0.0000     0.0000     0.0000     0.0000     0.0000     0.0000 </r>
        <r>   -33.9629     0.0000     0.0000     0.0000     0.0000     0.0000     0.0000     0.0000     0.0000     0.0000 </r>
        <r>   -33.8074     0.0000     0.0000     0.0000     0.0000     0.0000     0.0000     0.0000     0.0000     0.0000 </r>
        <r>   -33.6518     0.0000     0.0000     0.0000     0.0000     0.0000     0.0000     0.0000     0.0000     0.0000 </r>
        <r>   -33.4962     0.0000     0.0000     0.0000     0.0000     0.0000     0.0000     0.0000     0.0000     0.0000 </r>
        <r>   -33.3406     0.0000     0.0000     0.0000     0.0000     0.0000     0.0000     0.0000     0.0000     0.0000 </r>
        <r>   -33.1850     0.0000     0.0000     0.0000     0.0000     0.0000     0.0000     0.0000     0.0000     0.0000 </r>
        <r>   -33.0294     0.0000     0.0000     0.0000     0.0000     0.0000     0.0000     0.0000     0.0000     0.0000 </r>
        <r>   -32.8738     0.0000     0.0000     0.0000     0.0000     0.0000     0.0000     0.0000     0.0000     0.0000 </r>
        <r>   -32.7182     0.0000     0.0000     0.0000     0.0000     0.0000     0.0000     0.0000     0.0000     0.0000 </r>
        <r>   -32.5626     0.0000     0.0000     0.0000     0.0000     0.0000     0.0000     0.0000     0.0000     0.0000 </r>
        <r>   -32.4071     0.0000     0.0000     0.0000     0.0000     0.0000     0.0000     0.0000     0.0000     0.0000 </r>
        <r>   -32.2515     0.0000     0.0000     0.0000     0.0000     0.0000     0.0000     0.0000     0.0000     0.0000 </r>
        <r>   -32.0959     0.0000     0.0000     0.0000     0.0000     0.0000     0.0000     0.0000     0.0000     0.0000 </r>
        <r>   -31.9403     0.0000     0.0000     0.0000     0.0000     0.0000     0.0000     0.0000     0.0000     0.0000 </r>
        <r>   -31.7847     0.0000     0.0000     0.0000     0.0000     0.0000     0.0000     0.0000     0.0000     0.0000 </r>
        <r>   -31.6291     0.0000     0.0000     0.0000     0.0000     0.0000     0.0000     0.0000     0.0000     0.0000 </r>
        <r>   -31.4735     0.0000     0.0000     0.0000     0.0000     0.0000     0.0000     0.0000     0.0000     0.0000 </r>
        <r>   -31.3179     0.0000     0.0000     0.0000     0.0000     0.0000     0.0000     0.0000     0.0000     0.0000 </r>
        <r>   -31.1623     0.0000     0.0000     0.0000     0.0000     0.0000     0.0000     0.0000     0.0000     0.0000 </r>
        <r>   -31.0068     0.0000     0.0000     0.0000     0.0000     0.0000     0.0000     0.0000     0.0000     0.0000 </r>
        <r>   -30.8512     0.0000     0.0000     0.0000     0.0000     0.0000     0.0000     0.0000     0.0000     0.0000 </r>
        <r>   -30.6956     0.0000     0.0000     0.0000     0.0000     0.0000     0.0000     0.0000     0.0000     0.0000 </r>
        <r>   -30.5400     0.0000     0.0000     0.0000     0.0000     0.0000     0.0000     0.0000     0.0000     0.0000 </r>
        <r>   -30.3844     0.0000     0.0000     0.0000     0.0000     0.0000     0.0000     0.0000     0.0000     0.0000 </r>
        <r>   -30.2288     0.0000     0.0000     0.0000     0.0000     0.0000     0.0000     0.0000     0.0000     0.0000 </r>
        <r>   -30.0732     0.0000     0.0000     0.0000     0.0000     0.0000     0.0000     0.0000     0.0000     0.0000 </r>
        <r>   -29.9176     0.0000     0.0000     0.0000     0.0000     0.0000     0.0000     0.0000     0.0000     0.0000 </r>
        <r>   -29.7621     0.0000     0.0000     0.0000     0.0000     0.0000     0.0000     0.0000     0.0000     0.0000 </r>
        <r>   -29.6065     0.0000     0.0000     0.0000     0.0000     0.0000     0.0000     0.0000     0.0000     0.0000 </r>
        <r>   -29.4509     0.0000     0.0000     0.0000     0.0000     0.0000     0.0000     0.0000     0.0000     0.0000 </r>
        <r>   -29.2953     0.0000     0.0000     0.0000     0.0000     0.0000     0.0000     0.0000     0.0000     0.0000 </r>
        <r>   -29.1397     0.0000     0.0000     0.0000     0.0000     0.0000     0.0000     0.0000     0.0000     0.0000 </r>
        <r>   -28.9841     0.0000     0.0000     0.0000     0.0000     0.0000     0.0000     0.0000     0.0000     0.0000 </r>
        <r>   -28.8285     0.0000     0.0000     0.0000     0.0000     0.0000     0.0000     0.0000     0.0000     0.0000 </r>
        <r>   -28.6729     0.0000     0.0000     0.0000     0.0000     0.0000     0.0000     0.0000     0.0000     0.0000 </r>
        <r>   -28.5173     0.0000     0.0000     0.0000     0.0000     0.0000     0.0000     0.0000     0.0000     0.0000 </r>
        <r>   -28.3618     0.0000     0.0000     0.0000     0.0000     0.0000     0.0000     0.0000     0.0000     0.0000 </r>
        <r>   -28.2062     0.0000     0.0000     0.0000     0.0000     0.0000     0.0000     0.0000     0.0000     0.0000 </r>
        <r>   -28.0506     0.0000     0.0000     0.0000     0.0000     0.0000     0.0000     0.0000     0.0000     0.0000 </r>
        <r>   -27.8950     0.0000     0.0000     0.0000     0.0000     0.0000     0.0000     0.0000     0.0000     0.0000 </r>
        <r>   -27.7394     0.0000     0.0000     0.0000     0.0000     0.0000     0.0000     0.0000     0.0000     0.0000 </r>
        <r>   -27.5838     0.0000     0.0000     0.0000     0.0000     0.0000     0.0000     0.0000     0.0000     0.0000 </r>
        <r>   -27.4282     0.0000     0.0000     0.0000     0.0000     0.0000     0.0000     0.0000     0.0000     0.0000 </r>
        <r>   -27.2726     0.0000     0.0000     0.0000     0.0000     0.0000     0.0000     0.0000     0.0000     0.0000 </r>
        <r>   -27.1170     0.0000     0.0000     0.0000     0.0000     0.0000     0.0000     0.0000     0.0000     0.0000 </r>
        <r>   -26.9615     0.0000     0.0000     0.0000     0.0000     0.0000     0.0000     0.0000     0.0000     0.0000 </r>
        <r>   -26.8059     0.0000     0.0000     0.0000     0.0000     0.0000     0.0000     0.0000     0.0000     0.0000 </r>
        <r>   -26.6503     0.0000     0.0000     0.0000     0.0000     0.0000     0.0000     0.0000     0.0000     0.0000 </r>
        <r>   -26.4947     0.0000     0.0000     0.0000     0.0000     0.0000     0.0000     0.0000     0.0000     0.0000 </r>
        <r>   -26.3391     0.0000     0.0000     0.0000     0.0000     0.0000     0.0000     0.0000     0.0000     0.0000 </r>
        <r>   -26.1835     0.0000     0.0000     0.0000     0.0000     0.0000     0.0000     0.0000     0.0000     0.0000 </r>
        <r>   -26.0279     0.0000     0.0000     0.0000     0.0000     0.0000     0.0000     0.0000     0.0000     0.0000 </r>
        <r>   -25.8723     0.0000     0.0000     0.0000     0.0000     0.0000     0.0000     0.0000     0.0000     0.0000 </r>
        <r>   -25.7168     0.0000     0.0000     0.0000     0.0000     0.0000     0.0000     0.0000     0.0000     0.0000 </r>
        <r>   -25.5612     0.0000     0.0000     0.0000     0.0000     0.0000     0.0000     0.0000     0.0000     0.0000 </r>
        <r>   -25.4056     0.0000     0.0000     0.0000     0.0000     0.0000     0.0000     0.0000     0.0000     0.0000 </r>
        <r>   -25.2500     0.0000     0.0000     0.0000     0.0000     0.0000     0.0000     0.0000     0.0000     0.0000 </r>
        <r>   -25.0944     0.0000     0.0000     0.0000     0.0000     0.0000     0.0000     0.0000     0.0000     0.0000 </r>
        <r>   -24.9388     0.0000     0.0000     0.0000     0.0000     0.0000     0.0000     0.0000     0.0000     0.0000 </r>
        <r>   -24.7832     0.0000     0.0000     0.0000     0.0000     0.0000     0.0000     0.0000     0.0000     0.0000 </r>
        <r>   -24.6276     0.0000     0.0000     0.0000     0.0000     0.0000     0.0000     0.0000     0.0000     0.0000 </r>
        <r>   -24.4720     0.0000     0.0000     0.0000     0.0000     0.0000     0.0000     0.0000     0.0000     0.0000 </r>
        <r>   -24.3165     0.0000     0.0000     0.0000     0.0000     0.0000     0.0000     0.0000     0.0000     0.0000 </r>
        <r>   -24.1609     0.0000     0.0000     0.0000     0.0000     0.0000     0.0000     0.0000     0.0000     0.0000 </r>
        <r>   -24.0053     0.0000     0.0000     0.0000     0.0000     0.0000     0.0000     0.0000     0.0000     0.0000 </r>
        <r>   -23.8497     0.0000     0.0000     0.0000     0.0000     0.0000     0.0000     0.0000     0.0000     0.0000 </r>
        <r>   -23.6941     0.0000     0.0000     0.0000     0.0000     0.0000     0.0000     0.0000     0.0000     0.0000 </r>
        <r>   -23.5385     0.0000     0.0000     0.0000     0.0000     0.0000     0.0000     0.0000     0.0000     0.0000 </r>
        <r>   -23.3829     0.0000     0.0000     0.0000     0.0000     0.0000     0.0000     0.0000     0.0000     0.0000 </r>
        <r>   -23.2273     0.0000     0.0000     0.0000     0.0000     0.0000     0.0000     0.0000     0.0000     0.0000 </r>
        <r>   -23.0717     0.0000     0.0000     0.0000     0.0000     0.0000     0.0000     0.0000     0.0000     0.0000 </r>
        <r>   -22.9162     0.0000     0.0000     0.0000     0.0000     0.0000     0.0000     0.0000     0.0000     0.0000 </r>
        <r>   -22.7606     0.0000     0.0000     0.0000     0.0000     0.0000     0.0000     0.0000     0.0000     0.0000 </r>
        <r>   -22.6050     0.0000     0.0000     0.0000     0.0000     0.0000     0.0000     0.0000     0.0000     0.0000 </r>
        <r>   -22.4494     0.0000     0.0000     0.0000     0.0000     0.0000     0.0000     0.0000     0.0000     0.0000 </r>
        <r>   -22.2938     0.0000     0.0000     0.0000     0.0000     0.0000     0.0000     0.0000     0.0000     0.0000 </r>
        <r>   -22.1382     0.0000     0.0000     0.0000     0.0000     0.0000     0.0000     0.0000     0.0000     0.0000 </r>
        <r>   -21.9826     0.0000     0.0000     0.0000     0.0000     0.0000     0.0000     0.0000     0.0000     0.0000 </r>
        <r>   -21.8270     0.0000     0.0000     0.0000     0.0000     0.0000     0.0000     0.0000     0.0000     0.0000 </r>
        <r>   -21.6714     0.0000     0.0000     0.0000     0.0000     0.0000     0.0000     0.0000     0.0000     0.0000 </r>
        <r>   -21.5159     0.0000     0.0000     0.0000     0.0000     0.0000     0.0000     0.0000     0.0000     0.0000 </r>
        <r>   -21.3603     0.0000     0.0000     0.0000     0.0000     0.0000     0.0000     0.0000     0.0000     0.0000 </r>
        <r>   -21.2047     0.0000     0.0000     0.0000     0.0000     0.0000     0.0000     0.0000     0.0000     0.0000 </r>
        <r>   -21.0491     0.0000     0.0000     0.0000     0.0000     0.0000     0.0000     0.0000     0.0000     0.0000 </r>
        <r>   -20.8935     0.0000     0.0000     0.0000     0.0000     0.0000     0.0000     0.0000     0.0000     0.0000 </r>
        <r>   -20.7379     0.0000     0.0000     0.0000     0.0000     0.0000     0.0000     0.0000     0.0000     0.0000 </r>
        <r>   -20.5823     0.0000     0.0000     0.0000     0.0000     0.0000     0.0000     0.0000     0.0000     0.0000 </r>
        <r>   -20.4267     0.0000     0.0000     0.0000     0.0000     0.0000     0.0000     0.0000     0.0000     0.0000 </r>
        <r>   -20.2712     0.0000     0.0000     0.0000     0.0000     0.0000     0.0000     0.0000     0.0000     0.0000 </r>
        <r>   -20.1156     0.0000     0.0000     0.0000     0.0000     0.0000     0.0000     0.0000     0.0000     0.0000 </r>
        <r>   -19.9600     0.0000     0.0000     0.0000     0.0000     0.0000     0.0000     0.0000     0.0000     0.0000 </r>
        <r>   -19.8044     0.0000     0.0000     0.0000     0.0000     0.0000     0.0000     0.0000     0.0000     0.0000 </r>
        <r>   -19.6488     0.0000     0.0000     0.0000     0.0000     0.0000     0.0000     0.0000     0.0000     0.0000 </r>
        <r>   -19.4932     0.0000     0.0000     0.0000     0.0000     0.0000     0.0000     0.0000     0.0000     0.0000 </r>
        <r>   -19.3376     0.0000     0.0000     0.0000     0.0000     0.0000     0.0000     0.0000     0.0000     0.0000 </r>
        <r>   -19.1820     0.0000     0.0000     0.0000     0.0000     0.0000     0.0000     0.0000     0.0000     0.0000 </r>
        <r>   -19.0264     0.0000     0.0000     0.0000     0.0000     0.0000     0.0000     0.0000     0.0000     0.0000 </r>
        <r>   -18.8709     0.0000     0.0000     0.0000     0.0000     0.0000     0.0000     0.0000     0.0000     0.0000 </r>
        <r>   -18.7153     0.0000     0.0000     0.0000     0.0000     0.0000     0.0000     0.0000     0.0000     0.0000 </r>
        <r>   -18.5597     0.0000     0.0000     0.0000     0.0000     0.0000     0.0000     0.0000     0.0000     0.0000 </r>
        <r>   -18.4041     0.0000     0.0000     0.0000     0.0000     0.0000     0.0000     0.0000     0.0000     0.0000 </r>
        <r>   -18.2485     0.0000     0.0000     0.0000     0.0000     0.0000     0.0000     0.0000     0.0000     0.0000 </r>
        <r>   -18.0929     0.0000     0.0000     0.0000     0.0000     0.0000     0.0000     0.0000     0.0000     0.0000 </r>
        <r>   -17.9373     0.0000     0.0000     0.0000     0.0000     0.0000     0.0000     0.0000     0.0000     0.0000 </r>
        <r>   -17.7817     0.0000     0.0000     0.0000     0.0000     0.0000     0.0000     0.0000     0.0000     0.0000 </r>
        <r>   -17.6261     0.0000     0.0000     0.0000     0.0000     0.0000     0.0000     0.0000     0.0000     0.0000 </r>
        <r>   -17.4706     0.0000     0.0000     0.0000     0.0000     0.0000     0.0000     0.0000     0.0000     0.0000 </r>
        <r>   -17.3150     0.0000     0.0000     0.0000     0.0000     0.0000     0.0000     0.0000     0.0000     0.0000 </r>
        <r>   -17.1594     0.0000     0.0000     0.0000     0.0000     0.0000     0.0000     0.0000     0.0000     0.0000 </r>
        <r>   -17.0038     0.0000     0.0000     0.0000     0.0000     0.0000     0.0000     0.0000     0.0000     0.0000 </r>
        <r>   -16.8482     0.0000     0.0000     0.0000     0.0000     0.0000     0.0000     0.0000     0.0000     0.0000 </r>
        <r>   -16.6926     0.0000     0.0000     0.0000     0.0000     0.0000     0.0000     0.0000     0.0000     0.0000 </r>
        <r>   -16.5370     0.0000     0.0000     0.0000     0.0000     0.0000     0.0000     0.0000     0.0000     0.0000 </r>
        <r>   -16.3814     0.0000     0.0000     0.0000     0.0000     0.0000     0.0000     0.0000     0.0000     0.0000 </r>
        <r>   -16.2259     0.0000     0.0000     0.0000     0.0000     0.0000     0.0000     0.0000     0.0000     0.0000 </r>
        <r>   -16.0703     0.0000     0.0000     0.0000     0.0000     0.0000     0.0000     0.0000     0.0000     0.0000 </r>
        <r>   -15.9147     0.0000     0.0000     0.0000     0.0000     0.0000     0.0000     0.0000     0.0000     0.0000 </r>
        <r>   -15.7591     0.0000     0.0000     0.0000     0.0000     0.0000     0.0000     0.0000     0.0000     0.0000 </r>
        <r>   -15.6035     0.0000     0.0000     0.0000     0.0000     0.0000     0.0000     0.0000     0.0000     0.0000 </r>
        <r>   -15.4479     0.0000     0.0000     0.0000     0.0000     0.0000     0.0000     0.0000     0.0000     0.0000 </r>
        <r>   -15.2923     0.0000     0.0000     0.0000     0.0000     0.0000     0.0000     0.0000     0.0000     0.0000 </r>
        <r>   -15.1367     0.0000     0.0000     0.0000     0.0000     0.0000     0.0000     0.0000     0.0000     0.0000 </r>
        <r>   -14.9811     0.0000     0.0000     0.0000     0.0000     0.0000     0.0000     0.0000     0.0000     0.0000 </r>
        <r>   -14.8256     0.0000     0.0000     0.0000     0.0000     0.0000     0.0000     0.0000     0.0000     0.0000 </r>
        <r>   -14.6700     0.0000     0.0000     0.0000     0.0000     0.0000     0.0000     0.0000     0.0000     0.0000 </r>
        <r>   -14.5144     0.0000     0.0000     0.0000     0.0000     0.0000     0.0000     0.0000     0.0000     0.0000 </r>
        <r>   -14.3588     0.0000     0.0000     0.0000     0.0000     0.0000     0.0000     0.0000     0.0000     0.0000 </r>
        <r>   -14.2032     0.0000     0.0000     0.0000     0.0000     0.0000     0.0000     0.0000     0.0000     0.0000 </r>
[...]
        <r>    -0.5114     0.0000     0.0259     0.0259     0.0259     0.0000     0.0000     0.0000     0.0000     0.0000 </r>
        <r>    -0.3558     0.0000     0.0000     0.0000     0.0000     0.0000     0.0000     0.0000     0.0000     0.0000 </r>
        <r>    -0.2002     0.0155     0.0000     0.0000     0.0000     0.0000     0.0000     0.0000     0.0000     0.0000 </r>
        <r>    -0.0446     0.2059     0.0000     0.0000     0.0000     0.0000     0.0000     0.0000     0.0000     0.0000 </r>
        <r>     0.1109     0.0004     0.0000     0.0000     0.0000     0.0000     0.0000     0.0000     0.0000     0.0000 </r>
        <r>     0.2665     0.0000     0.0000     0.0000     0.0000     0.0000     0.0000     0.0000     0.0000     0.0000 </r>
        <r>     0.4221     0.0000     0.0000     0.0000     0.0000     0.0000     0.0000     0.0000     0.0000     0.0000 </r>
        <r>     0.5777     0.0000     0.0000     0.0000     0.0000     0.0000     0.0000     0.0000     0.0000     0.0000 </r>
        <r>     0.7333     0.0000     0.0000     0.0000     0.0000     0.0000     0.0000     0.0069     0.0000     0.0069 </r>
        <r>     0.8889     0.0000     0.0000     0.0000     0.0000     0.0000     0.0000     0.2408     0.0000     0.2408 </r>
        <r>     1.0445     0.0000     0.0000     0.0000     0.0000     0.0000     0.0000     0.0016     0.0000     0.0016 </r>
        <r>     1.2001     0.0000     0.0000     0.0000     0.0000     0.0000     0.0000     0.0000     0.0000     0.0000 </r>
        <r>     1.3557     0.0000     0.0000     0.0000     0.0000     0.0000     0.0000     0.0000     0.0000     0.0000 </r>
        <r>     1.5112     0.0000     0.0006     0.0006     0.0006     0.0000     0.0000     0.0000     0.0000     0.0000 </r>
        <r>     1.6668     0.0000     0.1516     0.1516     0.1516     0.0000     0.0000     0.0000     0.0000     0.0000 </r>
        <r>     1.8224     0.0003     0.0066     0.0066     0.0066     0.0002     0.0002     0.0000     0.0002     0.0000 </r>
        <r>     1.9780     0.1798     0.0000     0.0000     0.0000     0.2665     0.2665     0.0000     0.2665     0.0000 </r>
        <r>     2.1336     0.0153     0.0000     0.0000     0.0000     0.0398     0.0397     0.0000     0.0398     0.0000 </r>
        <r>     2.2892     0.0000     0.0000     0.0000     0.0000     0.0000     0.0000     0.0000     0.0000     0.0000 </r>
        <r>     2.4448     0.0000     0.0000     0.0000     0.0000     0.0000     0.0000     0.0365     0.0000     0.0365 </r>
        <r>     2.6004     0.0000     0.0000     0.0000     0.0000     0.0000     0.0000     0.0497     0.0000     0.0497 </r>
        <r>     2.7559     0.0000     0.0000     0.0000     0.0000     0.0000     0.0000     0.0000     0.0000     0.0000 </r>
        <r>     2.9115     0.0000     0.0000     0.0000     0.0000     0.0000     0.0000     0.0000     0.0000     0.0000 </r>
        <r>     3.0671     0.0000     0.0000     0.0000     0.0000     0.0000     0.0000     0.0000     0.0000     0.0000 </r>
        <r>     3.2227     0.0000     0.0000     0.0000     0.0000     0.0000     0.0000     0.0000     0.0000     0.0000 </r>
        <r>     3.3783     0.0000     0.0000     0.0000     0.0000     0.0000     0.0000     0.0000     0.0000     0.0000 </r>
        <r>     3.5339     0.0000     0.0003     0.0003     0.0003     0.0000     0.0000     0.0000     0.0000     0.0000 </r>
        <r>     3.6895     0.0000     0.1687     0.1683     0.1683     0.0209     0.0209     0.0000     0.0209     0.0000 </r>
        <r>     3.8451     0.0137     0.0120     0.0119     0.0119     0.0868     0.0868     0.0000     0.0868     0.0000 </r>
        <r>     4.0007     0.1238     0.0000     0.0000     0.0000     0.0000     0.0000     0.0000     0.0000     0.0000 </r>
        <r>     4.1562     0.0001     0.0000     0.0000     0.0000     0.0000     0.0000     0.0000     0.0000     0.0000 </r>
        <r>     4.3118     0.0000     0.0000     0.0043     0.0049     0.0000     0.0000     0.0000     0.0000     0.0000 </r>
        <r>     4.4674     0.0000     0.0004     0.0748     0.0849     0.0000     0.0000     0.0000     0.0000     0.0000 </r>
        <r>     4.6230     0.0000     0.0000     0.0002     0.0002     0.0000     0.0000     0.0000     0.0000     0.0000 </r>
        <r>     4.7786     0.0000     0.0000     0.0000     0.0000     0.0000     0.0000     0.0000     0.0000     0.0000 </r>
        <r>     4.9342     0.0000     0.0000     0.0000     0.0000     0.0000     0.0000     0.0000     0.0000     0.0000 </r>
        <r>     5.0898     0.0000     0.0000     0.0000     0.0000     0.0000     0.0000     0.0000     0.0000     0.0000 </r>
        <r>     5.2454     0.0000     0.0000     0.0000     0.0000     0.0000     0.0000     0.0000     0.0000     0.0000 </r>
        <r>     5.4010     0.0000     0.0000     0.0000     0.0000     0.0000     0.0000     0.0000     0.0000     0.0000 </r>
        <r>     5.5565     0.0000     0.0000     0.0000     0.0000     0.0000     0.0000     0.0000     0.0000     0.0000 </r>
        <r>     5.7121     0.0000     0.0000     0.0000     0.0000     0.0000     0.0000     0.0000     0.0000     0.0000 </r>
        <r>     5.8677     0.0000     0.0000     0.0000     0.0000     0.0000     0.0000     0.0000     0.0000     0.0000 </r>
        <r>     6.0233     0.0000     0.0000     0.0000     0.0000     0.0000     0.0000     0.0000     0.0000     0.0000 </r>
        <r>     6.1789     0.0000     0.0000     0.0000     0.0000     0.0000     0.0000     0.0000     0.0000     0.0000 </r>
        <r>     6.3345     0.0000     0.0000     0.0000     0.0000     0.0000     0.0000     0.0000     0.0000     0.0000 </r>
        <r>     6.4901     0.0000     0.0000     0.0000     0.0000     0.0000     0.0000     0.0000     0.0000     0.0000 </r>
       </set>
      </set>
     </set>
    </array>
   </partial>
  </dos>
  <projected>
   <eigenvalues>
    <array>
     <dimension dim="1">band</dimension>
     <dimension dim="2">kpoint</dimension>
     <dimension dim="3">spin</dimension>
     <field>eigene</field>
     <field>occ</field>
     <set>
      <set comment="spin 1">
       <set comment="kpoint 1">
        <r>  -38.0648    1.0000 </r>
        <r>  -38.0647    1.0000 </r>
        <r>  -38.0644    1.0000 </r>
        <r>   -4.2513    1.0000 </r>
        <r>   -4.1255    1.0000 </r>
        <r>   -4.1252    1.0000 </r>
        <r>   -3.3996    0.0971 </r>
        <r>   -3.3994    0.0964 </r>
        <r>   -3.3989    0.0940 </r>
        <r>   -1.2061    0.0000 </r>
        <r>   -1.2061    0.0000 </r>
        <r>   -1.2061    0.0000 </r>
        <r>   -0.2098    0.0000 </r>
        <r>    0.6754    0.0000 </r>
        <r>    0.6754    0.0000 </r>
        <r>    1.5322    0.0000 </r>
        <r>    1.5322    0.0000 </r>
        <r>    1.5322    0.0000 </r>
        <r>    1.8118    0.0000 </r>
        <r>    1.8118    0.0000 </r>
        <r>    1.8118    0.0000 </r>
        <r>    1.8614    0.0000 </r>
        <r>    2.2828    0.0000 </r>
        <r>    2.2828    0.0000 </r>
        <r>    2.2828    0.0000 </r>
        <r>    2.4505    0.0000 </r>
        <r>    2.4505    0.0000 </r>
        <r>    3.4592    0.0000 </r>
        <r>    3.5695    0.0000 </r>
        <r>    3.5695    0.0000 </r>
        <r>    3.5695    0.0000 </r>
        <r>    3.7098    0.0000 </r>
        <r>    3.7098    0.0000 </r>
        <r>    3.7098    0.0000 </r>
        <r>    3.8880    0.0000 </r>
        <r>    4.2153    0.0000 </r>
       </set>
      </set>
      <set comment="spin 2">
       <set comment="kpoint 1">
        <r>  -36.2411    1.0000 </r>
        <r>  -36.2411    1.0000 </r>
        <r>  -36.2411    1.0000 </r>
        <r>   -3.4653    0.7125 </r>
        <r>   -2.3409    0.0000 </r>
        <r>   -2.3409    0.0000 </r>
        <r>   -2.3408    0.0000 </r>
        <r>   -1.7144    0.0000 </r>
        <r>   -1.7143    0.0000 </r>
        <r>   -0.7221    0.0000 </r>
        <r>   -0.7221    0.0000 </r>
        <r>   -0.7221    0.0000 </r>
        <r>   -0.1480    0.0000 </r>
        <r>    0.8011    0.0000 </r>
        <r>    0.8011    0.0000 </r>
        <r>    1.6055    0.0000 </r>
        <r>    1.6055    0.0000 </r>
        <r>    1.6055    0.0000 </r>
        <r>    1.9279    0.0000 </r>
        <r>    1.9381    0.0000 </r>
        <r>    1.9381    0.0000 </r>
        <r>    1.9381    0.0000 </r>
        <r>    2.2934    0.0000 </r>
        <r>    2.2934    0.0000 </r>
        <r>    2.2934    0.0000 </r>
        <r>    2.4516    0.0000 </r>
        <r>    2.4516    0.0000 </r>
        <r>    3.4841    0.0000 </r>
        <r>    3.6362    0.0000 </r>
        <r>    3.6362    0.0000 </r>
        <r>    3.6362    0.0000 </r>
        <r>    3.7200    0.0000 </r>
        <r>    3.7200    0.0000 </r>
        <r>    3.7200    0.0000 </r>
        <r>    3.8905    0.0000 </r>
        <r>    4.3684    0.0000 </r>
       </set>
      </set>
     </set>
    </array>
   </eigenvalues>
   <array>
    <dimension dim="1">ion</dimension>
    <dimension dim="2">band</dimension>
    <dimension dim="3">kpoint</dimension>
    <dimension dim="4">spin</dimension>
    <field>    s</field>
    <field>   py</field>
    <field>   pz</field>
    <field>   px</field>
    <field>  dxy</field>
    <field>  dyz</field>
    <field>  dz2</field>
    <field>  dxz</field>
    <field>x2-y2</field>
    <set>
     <set comment="spin1">
      <set comment="kpoint 1">
       <set comment="band 1">
        <r>  0.0000  0.0000  0.9908  0.0000  0.0000  0.0000  0.0000  0.0000  0.0000 </r>
       </set>
       <set comment="band 2">
        <r>  0.0000  0.9908  0.0000  0.0000  0.0000  0.0000  0.0000  0.0000  0.0000 </r>
       </set>
       <set comment="band 3">
        <r>  0.0000  0.0000  0.0000  0.9908  0.0000  0.0000  0.0000  0.0000  0.0000 </r>
       </set>
       <set comment="band 4">
        <r>  0.2316  0.0000  0.0000  0.0000  0.0000  0.0000  0.0000  0.0000  0.0000 </r>
       </set>
       <set comment="band 5">
        <r>  0.0000  0.0000  0.0000  0.0000  0.0000  0.0000  0.1051  0.0000  0.7358 </r>
       </set>
       <set comment="band 6">
        <r>  0.0000  0.0000  0.0000  0.0000  0.0000  0.0000  0.7358  0.0000  0.1051 </r>
       </set>
       <set comment="band 7">
        <r>  0.0000  0.0000  0.0000  0.0000  0.0000  0.8280  0.0000  0.0000  0.0000 </r>
       </set>
       <set comment="band 8">
        <r>  0.0000  0.0000  0.0000  0.0000  0.0000  0.0000  0.0000  0.8280  0.0000 </r>
       </set>
       <set comment="band 9">
        <r>  0.0000  0.0000  0.0000  0.0000  0.8280  0.0000  0.0000  0.0000  0.0000 </r>
       </set>
       <set comment="band 10">
        <r>  0.0000  0.0000  0.0000  0.0891  0.0000  0.0000  0.0000  0.0000  0.0000 </r>
       </set>
       <set comment="band 11">
        <r>  0.0000  0.0891  0.0000  0.0000  0.0000  0.0000  0.0000  0.0000  0.0000 </r>
       </set>
       <set comment="band 12">
        <r>  0.0000  0.0000  0.0891  0.0000  0.0000  0.0000  0.0000  0.0000  0.0000 </r>
       </set>
       <set comment="band 13">
        <r>  0.0334  0.0000  0.0000  0.0000  0.0000  0.0000  0.0000  0.0000  0.0000 </r>
       </set>
       <set comment="band 14">
        <r>  0.0000  0.0000  0.0000  0.0000  0.0000  0.0000  0.0090  0.0000  0.0094 </r>
       </set>
       <set comment="band 15">
        <r>  0.0000  0.0000  0.0000  0.0000  0.0000  0.0000  0.0094  0.0000  0.0090 </r>
       </set>
       <set comment="band 16">
        <r>  0.0000  0.0000  0.0000  0.0259  0.0000  0.0000  0.0000  0.0000  0.0000 </r>
       </set>
       <set comment="band 17">
        <r>  0.0000  0.0259  0.0000  0.0000  0.0000  0.0000  0.0000  0.0000  0.0000 </r>
       </set>
       <set comment="band 18">
        <r>  0.0000  0.0000  0.0259  0.0000  0.0000  0.0000  0.0000  0.0000  0.0000 </r>
       </set>
       <set comment="band 19">
        <r>  0.0000  0.0000  0.0000  0.0000  0.0000  0.0416  0.0000  0.0000  0.0000 </r>
       </set>
       <set comment="band 20">
        <r>  0.0000  0.0000  0.0000  0.0000  0.0000  0.0000  0.0000  0.0416  0.0000 </r>
       </set>
       <set comment="band 21">
        <r>  0.0000  0.0000  0.0000  0.0000  0.0416  0.0000  0.0000  0.0000  0.0000 </r>
       </set>
       <set comment="band 22">
        <r>  0.0291  0.0000  0.0000  0.0000  0.0000  0.0000  0.0000  0.0000  0.0000 </r>
       </set>
       <set comment="band 23">
        <r>  0.0000  0.0000  0.0000  0.0000  0.0000  0.0000  0.0000  0.0000  0.0000 </r>
       </set>
       <set comment="band 24">
        <r>  0.0000  0.0000  0.0000  0.0000  0.0000  0.0000  0.0000  0.0000  0.0000 </r>
       </set>
       <set comment="band 25">
        <r>  0.0000  0.0000  0.0000  0.0000  0.0000  0.0000  0.0000  0.0000  0.0000 </r>
       </set>
       <set comment="band 26">
        <r>  0.0000  0.0000  0.0000  0.0000  0.0000  0.0000  0.0065  0.0000  0.0024 </r>
       </set>
       <set comment="band 27">
        <r>  0.0000  0.0000  0.0000  0.0000  0.0000  0.0000  0.0024  0.0000  0.0065 </r>
       </set>
       <set comment="band 28">
        <r>  0.0000  0.0000  0.0000  0.0000  0.0000  0.0000  0.0000  0.0000  0.0000 </r>
       </set>
       <set comment="band 29">
        <r>  0.0000  0.0000  0.0000  0.0371  0.0000  0.0000  0.0000  0.0000  0.0000 </r>
       </set>
       <set comment="band 30">
        <r>  0.0000  0.0371  0.0000  0.0000  0.0000  0.0000  0.0000  0.0000  0.0000 </r>
       </set>
       <set comment="band 31">
        <r>  0.0000  0.0000  0.0371  0.0000  0.0000  0.0000  0.0000  0.0000  0.0000 </r>
       </set>
       <set comment="band 32">
        <r>  0.0000  0.0000  0.0000  0.0000  0.0000  0.0140  0.0000  0.0000  0.0000 </r>
       </set>
       <set comment="band 33">
        <r>  0.0000  0.0000  0.0000  0.0000  0.0000  0.0000  0.0000  0.0140  0.0000 </r>
       </set>
       <set comment="band 34">
        <r>  0.0000  0.0000  0.0000  0.0000  0.0140  0.0000  0.0000  0.0000  0.0000 </r>
       </set>
       <set comment="band 35">
        <r>  0.0258  0.0000  0.0000  0.0000  0.0000  0.0000  0.0000  0.0000  0.0000 </r>
       </set>
       <set comment="band 36">
        <r>  0.0000  0.0184  0.0024  0.0010  0.0000  0.0000  0.0000  0.0000  0.0000 </r>
       </set>
      </set>
     </set>
     <set comment="spin2">
      <set comment="kpoint 1">
       <set comment="band 1">
        <r>  0.0000  0.0000  0.9906  0.0000  0.0000  0.0000  0.0000  0.0000  0.0000 </r>
       </set>
       <set comment="band 2">
        <r>  0.0000  0.9906  0.0000  0.0000  0.0000  0.0000  0.0000  0.0000  0.0000 </r>
       </set>
       <set comment="band 3">
        <r>  0.0000  0.0000  0.0000  0.9906  0.0000  0.0000  0.0000  0.0000  0.0000 </r>
       </set>
       <set comment="band 4">
        <r>  0.2019  0.0000  0.0000  0.0000  0.0000  0.0000  0.0000  0.0000  0.0000 </r>
       </set>
       <set comment="band 5">
        <r>  0.0000  0.0000  0.0000  0.0000  0.0000  0.8029  0.0000  0.0000  0.0000 </r>
       </set>
       <set comment="band 6">
        <r>  0.0000  0.0000  0.0000  0.0000  0.0000  0.0000  0.0000  0.8029  0.0000 </r>
       </set>
       <set comment="band 7">
        <r>  0.0000  0.0000  0.0000  0.0000  0.8029  0.0000  0.0000  0.0000  0.0000 </r>
       </set>
       <set comment="band 8">
        <r>  0.0000  0.0000  0.0000  0.0000  0.0000  0.0000  0.0016  0.0000  0.7690 </r>
       </set>
       <set comment="band 9">
        <r>  0.0000  0.0000  0.0000  0.0000  0.0000  0.0000  0.7689  0.0000  0.0016 </r>
       </set>
       <set comment="band 10">
        <r>  0.0000  0.0677  0.0000  0.0000  0.0000  0.0000  0.0000  0.0000  0.0000 </r>
       </set>
       <set comment="band 11">
        <r>  0.0000  0.0000  0.0677  0.0000  0.0000  0.0000  0.0000  0.0000  0.0000 </r>
       </set>
       <set comment="band 12">
        <r>  0.0000  0.0000  0.0000  0.0677  0.0000  0.0000  0.0000  0.0000  0.0000 </r>
       </set>
       <set comment="band 13">
        <r>  0.0345  0.0000  0.0000  0.0000  0.0000  0.0000  0.0000  0.0000  0.0000 </r>
       </set>
       <set comment="band 14">
        <r>  0.0000  0.0000  0.0000  0.0000  0.0000  0.0000  0.0001  0.0000  0.0387 </r>
       </set>
       <set comment="band 15">
        <r>  0.0000  0.0000  0.0000  0.0000  0.0000  0.0000  0.0387  0.0000  0.0001 </r>
       </set>
       <set comment="band 16">
        <r>  0.0000  0.0246  0.0001  0.0000  0.0000  0.0000  0.0000  0.0000  0.0000 </r>
       </set>
       <set comment="band 17">
        <r>  0.0000  0.0001  0.0193  0.0052  0.0000  0.0000  0.0000  0.0000  0.0000 </r>
       </set>
       <set comment="band 18">
        <r>  0.0000  0.0000  0.0053  0.0194  0.0000  0.0000  0.0000  0.0000  0.0000 </r>
       </set>
       <set comment="band 19">
        <r>  0.0304  0.0000  0.0000  0.0000  0.0000  0.0000  0.0000  0.0000  0.0000 </r>
       </set>
       <set comment="band 20">
        <r>  0.0000  0.0000  0.0000  0.0000  0.0000  0.0477  0.0000  0.0000  0.0000 </r>
       </set>
       <set comment="band 21">
        <r>  0.0000  0.0000  0.0000  0.0000  0.0000  0.0000  0.0000  0.0477  0.0000 </r>
       </set>
       <set comment="band 22">
        <r>  0.0000  0.0000  0.0000  0.0000  0.0477  0.0000  0.0000  0.0000  0.0000 </r>
       </set>
       <set comment="band 23">
        <r>  0.0000  0.0000  0.0000  0.0000  0.0000  0.0000  0.0000  0.0000  0.0000 </r>
       </set>
       <set comment="band 24">
        <r>  0.0000  0.0000  0.0000  0.0000  0.0000  0.0000  0.0000  0.0000  0.0000 </r>
       </set>
       <set comment="band 25">
        <r>  0.0000  0.0000  0.0000  0.0000  0.0000  0.0000  0.0000  0.0000  0.0000 </r>
       </set>
       <set comment="band 26">
        <r>  0.0000  0.0000  0.0000  0.0000  0.0000  0.0000  0.0000  0.0000  0.0134 </r>
       </set>
       <set comment="band 27">
        <r>  0.0000  0.0000  0.0000  0.0000  0.0000  0.0000  0.0134  0.0000  0.0000 </r>
       </set>
       <set comment="band 28">
        <r>  0.0000  0.0000  0.0000  0.0000  0.0000  0.0000  0.0000  0.0000  0.0000 </r>
       </set>
       <set comment="band 29">
        <r>  0.0000  0.0001  0.0132  0.0148  0.0000  0.0000  0.0000  0.0000  0.0000 </r>
       </set>
       <set comment="band 30">
        <r>  0.0000  0.0281  0.0000  0.0000  0.0000  0.0000  0.0000  0.0000  0.0000 </r>
       </set>
       <set comment="band 31">
        <r>  0.0000  0.0000  0.0149  0.0133  0.0000  0.0000  0.0000  0.0000  0.0000 </r>
       </set>
       <set comment="band 32">
        <r>  0.0000  0.0000  0.0000  0.0000  0.0000  0.0168  0.0000  0.0000  0.0000 </r>
       </set>
       <set comment="band 33">
        <r>  0.0000  0.0000  0.0000  0.0000  0.0000  0.0000  0.0000  0.0168  0.0000 </r>
       </set>
       <set comment="band 34">
        <r>  0.0000  0.0000  0.0000  0.0000  0.0168  0.0000  0.0000  0.0000  0.0000 </r>
       </set>
       <set comment="band 35">
        <r>  0.0214  0.0000  0.0000  0.0000  0.0000  0.0000  0.0000  0.0000  0.0000 </r>
       </set>
       <set comment="band 36">
        <r>  0.0000  0.0001  0.0123  0.0140  0.0000  0.0000  0.0000  0.0000  0.0000 </r>
       </set>
      </set>
     </set>
    </set>
   </array>
  </projected>
 </calculation>
 <structure name="finalpos" >
  <crystal>
   <varray name="basis" >
    <v>      10.00000000       0.00000000       0.00000000 </v>
    <v>       0.00000000      10.00000000       0.00000000 </v>
    <v>       0.00000000       0.00000000      10.00000000 </v>
   </varray>
   <i name="volume">   1000.00000000 </i>
   <varray name="rec_basis" >
    <v>       0.10000000       0.00000000       0.00000000 </v>
    <v>       0.00000000       0.10000000       0.00000000 </v>
    <v>       0.00000000       0.00000000       0.10000000 </v>
   </varray>
  </crystal>
  <varray name="positions" >
   <v>       0.50000000       0.50000000       0.50000000 </v>
  </varray>
 </structure>
</modeling>
