       N       E                     dE             d eps       ncg     rms          ort
DAV:   1     0.192303102853E+03    0.19230E+03   -0.29171E+03    36   0.217E+02
DAV:   2     0.661886510220E+02   -0.12611E+03   -0.12611E+03    36   0.284E+01
DAV:   3     0.713482732350E+01   -0.59054E+02   -0.59054E+02    36   0.562E+01
DAV:   4     0.950364800303E+00   -0.61845E+01   -0.61845E+01    36   0.225E+01
DAV:   5     0.259763598761E+00   -0.69060E+00   -0.69060E+00    36   0.788E+00
SDA:   6     0.219221999606E+00   -0.40542E-01   -0.22899E+00    36   0.572E+00 0.000E+00
DMP:   7     0.713769933943E-01   -0.14785E+00   -0.12473E+00    36   0.250E+00 0.161E+00
DMP:   8     0.191498380699E-01   -0.52227E-01   -0.89019E-01    36   0.246E+00-0.601E-01
DMP:   9    -0.115876940072E-02   -0.20309E-01   -0.10107E+00    36   0.301E+00-0.126E+00
DMP:  10    -0.218341493961E-01   -0.20675E-01   -0.77814E-01    36   0.252E+00-0.150E+00
DMP:  11    -0.424702775553E-01   -0.20636E-01   -0.32819E-01    36   0.117E+00-0.916E-01
DMP:  12    -0.566379056780E-01   -0.14168E-01   -0.62122E-02    36   0.199E-01-0.114E-01
DMP:  13    -0.609802550408E-01   -0.43423E-02   -0.28278E-02    36   0.475E-02 0.608E-02
DMP:  14    -0.623516328644E-01   -0.13714E-02   -0.16892E-02    36   0.433E-02-0.275E-03
DMP:  15    -0.633627629711E-01   -0.10111E-02   -0.39588E-03    36   0.682E-03 0.805E-03
DMP:  16    -0.636333583135E-01   -0.27060E-03   -0.24875E-03    36   0.488E-03 0.350E-03
DMP:  17    -0.637815242133E-01   -0.14817E-03   -0.62493E-04    36   0.114E-03 0.110E-03
DMP:  18    -0.638267162435E-01   -0.45192E-04   -0.35679E-04    36   0.640E-04 0.659E-04
   1 F= -.63826716E-01 E0= -.63826716E-01  d E =-.638267E-01  mag=     0.0000
