<?xml version="1.0" encoding="ISO-8859-1"?>
<modeling>
 <generator>
  <i name="program" type="string">vasp </i>
  <i name="version" type="string">5.4.4.18Apr17-6-g9f103f2a35  </i>
  <i name="subversion" type="string">(build Nov 08 2019 15:19:53) gamma-only         parallel </i>
  <i name="platform" type="string">LinuxIFC </i>
  <i name="date" type="string">2020 11 30 </i>
  <i name="time" type="string">09:30:50 </i>
 </generator>
 <incar>
  <i type="string" name="PREC">accurate</i>
  <i type="string" name="ALGO"> D</i>
  <i type="int" name="ISPIN">     2</i>
  <i type="int" name="NELM">   300</i>
  <i type="int" name="IBRION">     2</i>
  <i name="EDIFF">      0.00005000</i>
  <i type="int" name="NSW">    99</i>
  <i type="int" name="ISIF">     2</i>
  <i name="ENCUT">    520.00000000</i>
  <v name="MAGMOM">      0.60000000</v>
  <i type="string" name="LREAL"> Auto</i>
  <i type="int" name="ISMEAR">     0</i>
  <i name="SIGMA">      0.05000000</i>
  <i type="logical" name="LWAVE"> F  </i>
  <i type="int" name="LORBIT">    11</i>
  <i type="logical" name="LASPH"> T  </i>
  <v type="int" name="KPOINT_BSE">    -1     0     0     0</v>
  <i type="int" name="NELM">   300</i>
  <i type="logical" name="LASPH"> T  </i>
 </incar>
 <structure name="primitive_cell" >
  <crystal>
   <varray name="basis" >
    <v>      10.00000000       0.00000000       0.00000000 </v>
    <v>       0.00000000      10.00000000       0.00000000 </v>
    <v>       0.00000000       0.00000000      10.00000000 </v>
   </varray>
   <i name="volume">   1000.00000000 </i>
   <varray name="rec_basis" >
    <v>       0.10000000       0.00000000       0.00000000 </v>
    <v>       0.00000000       0.10000000       0.00000000 </v>
    <v>       0.00000000       0.00000000       0.10000000 </v>
   </varray>
  </crystal>
  <varray name="positions" >
   <v>      -0.50000000      -0.50000000      -0.50000000 </v>
  </varray>
 </structure>
 <varray name="primitive_index" >
  <v type="int" >        1 </v>
 </varray>
 <kpoints>
  <generation param="Gamma">
   <v type="int" name="divisions">       1        1        1 </v>
   <v name="usershift">      0.00000000       0.00000000       0.00000000 </v>
   <v name="genvec1">      1.00000000       0.00000000       0.00000000 </v>
   <v name="genvec2">      0.00000000       1.00000000       0.00000000 </v>
   <v name="genvec3">      0.00000000       0.00000000       1.00000000 </v>
   <v name="shift">      0.00000000       0.00000000       0.00000000 </v>
  </generation>
  <varray name="kpointlist" >
   <v>       0.00000000       0.00000000       0.00000000 </v>
  </varray>
  <varray name="weights" >
   <v>       1.00000000 </v>
  </varray>
 </kpoints>
 <parameters>
  <separator name="general" >
   <i type="string" name="SYSTEM">unknown system</i>
   <i type="logical" name="LCOMPAT"> F  </i>
  </separator>
  <separator name="electronic" >
   <i type="string" name="PREC">accura</i>
   <i name="ENMAX">    520.00000000</i>
   <i name="ENAUG">    420.85200000</i>
   <i name="EDIFF">      0.00005000</i>
   <i type="int" name="IALGO">    53</i>
   <i type="int" name="IWAVPR">    11</i>
   <i type="int" name="NBANDS">    36</i>
   <i name="NELECT">     10.00000000</i>
   <i type="int" name="TURBO">     0</i>
   <i type="int" name="IRESTART">     0</i>
   <i type="int" name="NREBOOT">     0</i>
   <i type="int" name="NMIN">     0</i>
   <i name="EREF">      0.00000000</i>
   <separator name="electronic smearing" >
    <i type="int" name="ISMEAR">     0</i>
    <i name="SIGMA">      0.05000000</i>
    <i name="KSPACING">      0.50000000</i>
    <i type="logical" name="KGAMMA"> T  </i>
   </separator>
   <separator name="electronic projectors" >
    <i type="logical" name="LREAL"> T  </i>
    <v name="ROPT">     -0.00025000</v>
    <i type="int" name="LMAXPAW">  -100</i>
    <i type="int" name="LMAXMIX">     2</i>
    <i type="logical" name="NLSPLINE"> F  </i>
   </separator>
   <separator name="electronic startup" >
    <i type="int" name="ISTART">     0</i>
    <i type="int" name="ICHARG">     2</i>
    <i type="int" name="INIWAV">     1</i>
   </separator>
   <separator name="electronic spin" >
    <i type="int" name="ISPIN">     2</i>
    <i type="logical" name="LNONCOLLINEAR"> F  </i>
    <v name="MAGMOM">      0.60000000</v>
    <i name="NUPDOWN">     -1.00000000</i>
    <i type="logical" name="LSORBIT"> F  </i>
    <v name="SAXIS">      0.00000000      0.00000000      1.00000000</v>
    <i type="logical" name="LSPIRAL"> F  </i>
    <v name="QSPIRAL">      0.00000000      0.00000000      0.00000000</v>
    <i type="logical" name="LZEROZ"> F  </i>
   </separator>
   <separator name="electronic exchange-correlation" >
    <i type="logical" name="LASPH"> T  </i>
    <i type="logical" name="LMETAGGA"> F  </i>
   </separator>
   <separator name="electronic convergence" >
    <i type="int" name="NELM">   300</i>
    <i type="int" name="NELMDL">    -5</i>
    <i type="int" name="NELMIN">     2</i>
    <i name="ENINI">    520.00000000</i>
    <separator name="electronic convergence detail" >
     <i type="logical" name="LDIAG"> T  </i>
     <i type="logical" name="LSUBROT"> F  </i>
     <i name="WEIMIN">      0.00100000</i>
     <i name="EBREAK">      0.00000035</i>
     <i name="DEPER">      0.30000000</i>
     <i type="int" name="NRMM">     4</i>
     <i name="TIME">      0.40000000</i>
    </separator>
   </separator>
   <separator name="electronic mixer" >
    <i name="AMIX">      0.40000000</i>
    <i name="BMIX">      1.00000000</i>
    <i name="AMIN">      0.10000000</i>
    <i name="AMIX_MAG">      1.60000000</i>
    <i name="BMIX_MAG">      1.00000000</i>
    <separator name="electronic mixer details" >
     <i type="int" name="IMIX">     4</i>
     <i type="logical" name="MIXFIRST"> F  </i>
     <i type="int" name="MAXMIX">   -45</i>
     <i name="WC">    100.00000000</i>
     <i type="int" name="INIMIX">     1</i>
     <i type="int" name="MIXPRE">     1</i>
     <i type="int" name="MREMOVE">     5</i>
    </separator>
   </separator>
   <separator name="electronic dipolcorrection" >
    <i type="logical" name="LDIPOL"> F  </i>
    <i type="logical" name="LMONO"> F  </i>
    <i type="int" name="IDIPOL">     0</i>
    <i name="EPSILON">      1.00000000</i>
    <v name="DIPOL">   -100.00000000   -100.00000000   -100.00000000</v>
    <i name="EFIELD">      0.00000000</i>
   </separator>
  </separator>
  <separator name="grids" >
   <i type="int" name="NGX">    80</i>
   <i type="int" name="NGY">    80</i>
   <i type="int" name="NGZ">    80</i>
   <i type="int" name="NGXF">   160</i>
   <i type="int" name="NGYF">   160</i>
   <i type="int" name="NGZF">   160</i>
   <i type="logical" name="ADDGRID"> F  </i>
  </separator>
  <separator name="ionic" >
   <i type="int" name="NSW">    99</i>
   <i type="int" name="IBRION">     2</i>
   <i type="int" name="MDALGO">     0</i>
   <i type="int" name="ISIF">     2</i>
   <i name="PSTRESS">      0.00000000</i>
   <i name="EDIFFG">      0.00050000</i>
   <i type="int" name="NFREE">     1</i>
   <i name="POTIM">      0.50000000</i>
   <i name="SMASS">     -3.00000000</i>
   <i name="SCALEE">      1.00000000</i>
  </separator>
  <separator name="ionic md" >
   <i name="TEBEG">      0.00010000</i>
   <i name="TEEND">      0.00010000</i>
   <i type="int" name="NBLOCK">     1</i>
   <i type="int" name="KBLOCK">    99</i>
   <i type="int" name="NPACO">   256</i>
   <i name="APACO">     16.00000000</i>
  </separator>
  <separator name="symmetry" >
   <i type="int" name="ISYM">     2</i>
   <i name="SYMPREC">      0.00001000</i>
  </separator>
  <separator name="dos" >
   <i type="int" name="LORBIT">    11</i>
   <v name="RWIGS">     -1.00000000</v>
   <i type="int" name="NEDOS">   301</i>
   <i name="EMIN">     10.00000000</i>
   <i name="EMAX">    -10.00000000</i>
   <i name="EFERMI">      0.00000000</i>
  </separator>
  <separator name="writing" >
   <i type="int" name="NWRITE">     2</i>
   <i type="logical" name="LWAVE"> F  </i>
   <i type="logical" name="LDOWNSAMPLE"> F  </i>
   <i type="logical" name="LCHARG"> T  </i>
   <i type="logical" name="LPARD"> F  </i>
   <i type="logical" name="LVTOT"> F  </i>
   <i type="logical" name="LVHAR"> F  </i>
   <i type="logical" name="LELF"> F  </i>
   <i type="logical" name="LOPTICS"> F  </i>
   <v name="STM">      0.00000000      0.00000000      0.00000000      0.00000000      0.00000000      0.00000000      0.00000000</v>
  </separator>
  <separator name="performance" >
   <i type="int" name="NPAR">    36</i>
   <i type="int" name="NSIM">     4</i>
   <i type="int" name="NBLK">    -1</i>
   <i type="logical" name="LPLANE"> T  </i>
   <i type="logical" name="LSCALAPACK"> T  </i>
   <i type="logical" name="LSCAAWARE"> F  </i>
   <i type="logical" name="LSCALU"> F  </i>
   <i type="logical" name="LASYNC"> F  </i>
   <i type="logical" name="LORBITALREAL"> F  </i>
  </separator>
  <separator name="miscellaneous" >
   <i type="int" name="IDIOT">     3</i>
   <i type="int" name="ISPECIAL">     0</i>
   <i type="logical" name="LMUSIC"> F  </i>
   <v name="POMASS">     40.07800000</v>
   <v name="DARWINR">      0.00000000</v>
   <v name="DARWINV">      1.00000000</v>
   <i type="logical" name="LCORR"> T  </i>
  </separator>
  <i type="logical" name="GGA_COMPAT"> T  </i>
  <i type="logical" name="LBERRY"> F  </i>
  <i type="int" name="ICORELEVEL">     0</i>
  <i type="logical" name="LDAU"> F  </i>
  <i type="int" name="I_CONSTRAINED_M">     0</i>
  <separator name="electronic exchange-correlation" >
   <i type="string" name="GGA">--</i>
   <i type="int" name="VOSKOWN">     0</i>
   <i type="logical" name="LHFCALC"> F  </i>
   <i type="string" name="PRECFOCK"></i>
   <i type="logical" name="LSYMGRAD"> F  </i>
   <i type="logical" name="LHFONE"> F  </i>
   <i type="logical" name="LRHFCALC"> F  </i>
   <i type="logical" name="LTHOMAS"> F  </i>
   <i type="logical" name="LMODELHF"> F  </i>
   <i name="ENCUT4O">     -1.00000000</i>
   <i type="int" name="EXXOEP">     0</i>
   <i type="int" name="FOURORBIT">     0</i>
   <i name="AEXX">      0.00000000</i>
   <i name="HFALPHA">      0.00000000</i>
   <i name="MCALPHA">      0.00000000</i>
   <i name="ALDAX">      1.00000000</i>
   <i name="AGGAX">      1.00000000</i>
   <i name="ALDAC">      1.00000000</i>
   <i name="AGGAC">      1.00000000</i>
   <i type="int" name="NKREDX">     1</i>
   <i type="int" name="NKREDY">     1</i>
   <i type="int" name="NKREDZ">     1</i>
   <i type="logical" name="SHIFTRED"> F  </i>
   <i type="logical" name="ODDONLY"> F  </i>
   <i type="logical" name="EVENONLY"> F  </i>
   <i type="int" name="LMAXFOCK">     0</i>
   <i type="int" name="NMAXFOCKAE">     0</i>
   <i type="logical" name="LFOCKAEDFT"> F  </i>
   <i name="HFSCREEN">      0.00000000</i>
   <i name="HFSCREENC">      0.00000000</i>
   <i type="int" name="NBANDSGWLOW">     0</i>
  </separator>
  <separator name="vdW DFT" >
   <i type="logical" name="LUSE_VDW"> F  </i>
   <i name="Zab_VDW">     -0.84910000</i>
   <i name="PARAM1">      0.12340000</i>
   <i name="PARAM2">      1.00000000</i>
   <i name="PARAM3">      0.00000000</i>
  </separator>
  <separator name="model GW" >
   <i type="int" name="MODEL_GW">     0</i>
   <i name="MODEL_EPS0">    600.00000000</i>
   <i name="MODEL_ALPHA">      1.00000000</i>
  </separator>
  <separator name="linear response parameters" >
   <i type="logical" name="LEPSILON"> F  </i>
   <i type="logical" name="LRPA"> F  </i>
   <i type="logical" name="LNABLA"> F  </i>
   <i type="logical" name="LVEL"> F  </i>
   <i type="int" name="KINTER">     0</i>
   <i name="CSHIFT">      0.10000000</i>
   <i name="OMEGAMAX">     -1.00000000</i>
   <i name="DEG_THRESHOLD">      0.00200000</i>
   <i name="RTIME">     -0.10000000</i>
   <i name="WPLASMAI">      0.00000000</i>
   <v name="DFIELD">      0.00000000      0.00000000      0.00000000</v>
   <v name="WPLASMA">      0.00000000      0.00000000      0.00000000      0.00000000      0.00000000      0.00000000      0.00000000      0.00000000      0.00000000</v>
  </separator>
  <separator name="orbital magnetization" >
   <i type="logical" name="NUCIND"> F  </i>
   <v name="MAGPOS">      0.00000000      0.00000000      0.00000000</v>
   <i type="logical" name="LNICSALL"> T  </i>
   <i type="logical" name="ORBITALMAG"> F  </i>
   <i type="logical" name="LMAGBLOCH"> F  </i>
   <i type="logical" name="LCHIMAG"> F  </i>
   <i type="logical" name="LGAUGE"> T  </i>
   <i type="int" name="MAGATOM">     0</i>
   <v name="MAGDIPOL">      0.00000000      0.00000000      0.00000000</v>
   <v name="AVECCONST">      0.00000000      0.00000000      0.00000000</v>
  </separator>
  <separator name="response functions" >
   <i type="logical" name="LADDER"> F  </i>
   <i type="logical" name="LRPAFORCE"> F  </i>
   <i type="logical" name="LFXC"> F  </i>
   <i type="logical" name="LHARTREE"> T  </i>
   <i type="int" name="IBSE">     0</i>
   <v type="int" name="KPOINT">    -1     0     0     0</v>
   <i type="logical" name="LTCTE"> F  </i>
   <i type="logical" name="LTETE"> F  </i>
   <i type="logical" name="LTRIPLET"> F  </i>
   <i type="logical" name="LFXCEPS"> F  </i>
   <i type="logical" name="LFXHEG"> F  </i>
   <i type="int" name="NATURALO">     2</i>
   <i type="logical" name="L2ORDER"> F  </i>
   <i type="logical" name="LMP2LT"> F  </i>
   <i type="logical" name="LUSEW"> F  </i>
   <i name="ENCUTGW">     -2.00000000</i>
   <i name="ENCUTGWSOFT">     -2.00000000</i>
   <i name="ENCUTLF">     -1.00000000</i>
   <i type="int" name="LMAXMP2">    -1</i>
   <i name="SCISSOR">      0.00000000</i>
   <i type="int" name="NOMEGA">     0</i>
   <i type="int" name="NOMEGAR">     0</i>
   <i type="int" name="NBANDSGW">    -1</i>
   <i type="int" name="NBANDSO">    -1</i>
   <i type="int" name="NBANDSV">    -1</i>
   <i type="int" name="NELM">   300</i>
   <i type="int" name="NELMHF">     1</i>
   <i type="int" name="DIM">     3</i>
   <i type="int" name="ANTIRES">     0</i>
   <i name="OMEGAMAX">    -30.00000000</i>
   <i name="OMEGAMIN">    -30.00000000</i>
   <i name="OMEGATL">   -200.00000000</i>
   <i type="int" name="OMEGAGRID">   140</i>
   <i name="CSHIFT">     -0.10000000</i>
   <i type="logical" name="SELFENERGY"> F  </i>
   <i type="logical" name="LSPECTRAL"> F  </i>
   <i type="logical" name="LSPECTRALGW"> F  </i>
   <i type="logical" name="LSINGLES"> F  </i>
   <i type="logical" name="LFERMIGW"> F  </i>
   <i type="logical" name="ODDONLYGW"> F  </i>
   <i type="logical" name="EVENONLYGW"> F  </i>
   <i type="int" name="NKREDLFX">     1</i>
   <i type="int" name="NKREDLFY">     1</i>
   <i type="int" name="NKREDLFZ">     1</i>
   <i type="int" name="MAXMEM">  2800</i>
   <i type="int" name="TELESCOPE">     0</i>
   <i type="int" name="TAUPAR">     1</i>
   <i type="int" name="OMEGAPAR">    -1</i>
   <i name="LAMBDA">      1.00000000</i>
  </separator>
  <separator name="External order field" >
   <i name="OFIELD_KAPPA">      0.00000000</i>
   <v name="OFIELD_K">      0.00000000      0.00000000      0.00000000</v>
   <i name="OFIELD_Q6_NEAR">      0.00000000</i>
   <i name="OFIELD_Q6_FAR">      0.00000000</i>
   <i name="OFIELD_A">      0.00000000</i>
  </separator>
 </parameters>
 <atominfo>
  <atoms>       1 </atoms>
  <types>       1 </types>
  <array name="atoms" >
   <dimension dim="1">ion</dimension>
   <field type="string">element</field>
   <field type="int">atomtype</field>
   <set>
    <rc><c>Ca</c><c>   1</c></rc>
   </set>
  </array>
  <array name="atomtypes" >
   <dimension dim="1">type</dimension>
   <field type="int">atomspertype</field>
   <field type="string">element</field>
   <field>mass</field>
   <field>valence</field>
   <field type="string">pseudopotential</field>
   <set>
    <rc><c>   1</c><c>Ca</c><c>     40.07800000</c><c>     10.00000000</c><c>  PAW_PBE Ca_sv 06Sep2000               </c></rc>
   </set>
  </array>
 </atominfo>
 <structure name="initialpos" >
  <crystal>
   <varray name="basis" >
    <v>      10.00000000       0.00000000       0.00000000 </v>
    <v>       0.00000000      10.00000000       0.00000000 </v>
    <v>       0.00000000       0.00000000      10.00000000 </v>
   </varray>
   <i name="volume">   1000.00000000 </i>
   <varray name="rec_basis" >
    <v>       0.10000000       0.00000000       0.00000000 </v>
    <v>       0.00000000       0.10000000       0.00000000 </v>
    <v>       0.00000000       0.00000000       0.10000000 </v>
   </varray>
  </crystal>
  <varray name="positions" >
   <v>       0.50000000       0.50000000       0.50000000 </v>
  </varray>
 </structure>
 <calculation>
  <scstep>
   <time name="total">    0.86    0.87</time>
   <energy>
    <i name="alphaZ">      1.26949260 </i>
    <i name="ewald">   -204.28240005 </i>
    <i name="hartreedc">   -586.86012464 </i>
    <i name="XCdc">     40.45468323 </i>
    <i name="pawpsdc">    746.07000129 </i>
    <i name="pawaedc">   -736.05091552 </i>
    <i name="eentropy">     -0.00000000 </i>
    <i name="bandstr">    -74.38631191 </i>
    <i name="atom">   1006.08867786 </i>
    <i name="e_fr_energy">    192.30310285 </i>
    <i name="e_wo_entrp">    192.30310285 </i>
    <i name="e_0_energy">    192.30310285 </i>
   </energy>
  </scstep>
  <scstep>
   <time name="total">    0.40    0.40</time>
   <energy>
    <i name="e_fr_energy">     66.18865102 </i>
    <i name="e_wo_entrp">     66.18865102 </i>
    <i name="e_0_energy">     66.18865102 </i>
   </energy>
  </scstep>
  <scstep>
   <time name="total">    0.31    0.31</time>
   <energy>
    <i name="e_fr_energy">      7.13482732 </i>
    <i name="e_wo_entrp">      7.13482732 </i>
    <i name="e_0_energy">      7.13482732 </i>
   </energy>
  </scstep>
  <scstep>
   <time name="total">    0.41    0.41</time>
   <energy>
    <i name="e_fr_energy">      0.95036480 </i>
    <i name="e_wo_entrp">      0.95036480 </i>
    <i name="e_0_energy">      0.95036480 </i>
   </energy>
  </scstep>
  <scstep>
   <time name="total">    0.62    0.62</time>
   <energy>
    <i name="e_fr_energy">      0.25976360 </i>
    <i name="e_wo_entrp">      0.25976360 </i>
    <i name="e_0_energy">      0.25976360 </i>
   </energy>
  </scstep>
  <scstep>
   <time name="total">    0.98    0.99</time>
   <energy>
    <i name="e_fr_energy">      0.21922200 </i>
    <i name="e_wo_entrp">      0.21922200 </i>
    <i name="e_0_energy">      0.21922200 </i>
   </energy>
  </scstep>
  <scstep>
   <time name="total">    0.92    0.92</time>
   <energy>
    <i name="e_fr_energy">      0.07137699 </i>
    <i name="e_wo_entrp">      0.07137699 </i>
    <i name="e_0_energy">      0.07137699 </i>
   </energy>
  </scstep>
  <scstep>
   <time name="total">    0.91    0.91</time>
   <energy>
    <i name="e_fr_energy">      0.01914984 </i>
    <i name="e_wo_entrp">      0.01914984 </i>
    <i name="e_0_energy">      0.01914984 </i>
   </energy>
  </scstep>
  <scstep>
   <time name="total">    0.92    0.92</time>
   <energy>
    <i name="e_fr_energy">     -0.00115877 </i>
    <i name="e_wo_entrp">     -0.00115877 </i>
    <i name="e_0_energy">     -0.00115877 </i>
   </energy>
  </scstep>
  <scstep>
   <time name="total">    0.90    0.90</time>
   <energy>
    <i name="e_fr_energy">     -0.02183415 </i>
    <i name="e_wo_entrp">     -0.02183415 </i>
    <i name="e_0_energy">     -0.02183415 </i>
   </energy>
  </scstep>
  <scstep>
   <time name="total">    0.92    0.92</time>
   <energy>
    <i name="e_fr_energy">     -0.04247028 </i>
    <i name="e_wo_entrp">     -0.04247028 </i>
    <i name="e_0_energy">     -0.04247028 </i>
   </energy>
  </scstep>
  <scstep>
   <time name="total">    0.91    0.91</time>
   <energy>
    <i name="e_fr_energy">     -0.05663791 </i>
    <i name="e_wo_entrp">     -0.05663791 </i>
    <i name="e_0_energy">     -0.05663791 </i>
   </energy>
  </scstep>
  <scstep>
   <time name="total">    0.91    0.91</time>
   <energy>
    <i name="e_fr_energy">     -0.06098026 </i>
    <i name="e_wo_entrp">     -0.06098026 </i>
    <i name="e_0_energy">     -0.06098026 </i>
   </energy>
  </scstep>
  <scstep>
   <time name="total">    0.91    0.91</time>
   <energy>
    <i name="e_fr_energy">     -0.06235163 </i>
    <i name="e_wo_entrp">     -0.06235163 </i>
    <i name="e_0_energy">     -0.06235163 </i>
   </energy>
  </scstep>
  <scstep>
   <time name="total">    0.90    0.90</time>
   <energy>
    <i name="e_fr_energy">     -0.06336276 </i>
    <i name="e_wo_entrp">     -0.06336276 </i>
    <i name="e_0_energy">     -0.06336276 </i>
   </energy>
  </scstep>
  <scstep>
   <time name="total">    0.91    0.91</time>
   <energy>
    <i name="e_fr_energy">     -0.06363336 </i>
    <i name="e_wo_entrp">     -0.06363336 </i>
    <i name="e_0_energy">     -0.06363336 </i>
   </energy>
  </scstep>
  <scstep>
   <time name="total">    0.92    0.92</time>
   <energy>
    <i name="e_fr_energy">     -0.06378152 </i>
    <i name="e_wo_entrp">     -0.06378152 </i>
    <i name="e_0_energy">     -0.06378152 </i>
   </energy>
  </scstep>
  <scstep>
   <time name="total">    0.96    0.96</time>
   <energy>
    <i name="alphaZ">      1.26949260 </i>
    <i name="ewald">   -204.28240005 </i>
    <i name="hartreedc">   -585.83612904 </i>
    <i name="XCdc">     40.38953384 </i>
    <i name="pawpsdc">    743.96154953 </i>
    <i name="pawaedc">   -734.09392277 </i>
    <i name="eentropy">     -0.00000000 </i>
    <i name="bandstr">   -267.56062868 </i>
    <i name="atom">   1006.08867786 </i>
    <i name="e_fr_energy">     -0.06382672 </i>
    <i name="e_wo_entrp">     -0.06382672 </i>
    <i name="e_0_energy">     -0.06382672 </i>
   </energy>
  </scstep>
  <structure>
   <crystal>
    <varray name="basis" >
     <v>      10.00000000       0.00000000       0.00000000 </v>
     <v>       0.00000000      10.00000000       0.00000000 </v>
     <v>       0.00000000       0.00000000      10.00000000 </v>
    </varray>
    <i name="volume">   1000.00000000 </i>
    <varray name="rec_basis" >
     <v>       0.10000000       0.00000000       0.00000000 </v>
     <v>       0.00000000       0.10000000       0.00000000 </v>
     <v>       0.00000000       0.00000000       0.10000000 </v>
    </varray>
   </crystal>
   <varray name="positions" >
    <v>       0.50000000       0.50000000       0.50000000 </v>
   </varray>
  </structure>
  <varray name="forces" >
   <v>       0.00000000       0.00000000       0.00000000 </v>
  </varray>
  <varray name="stress" >
   <v>      -0.20462867       0.00000000       0.00000000 </v>
   <v>      -0.00000000      -0.20462867      -0.00000000 </v>
   <v>       0.00000000       0.00000000      -0.20462867 </v>
  </varray>
  <energy>
   <i name="e_fr_energy">     -0.06382672 </i>
   <i name="e_wo_entrp">     -0.06382672 </i>
   <i name="e_0_energy">     -0.00000000 </i>
  </energy>
  <time name="totalsc">   27.37   27.49</time>
  <eigenvalues>
   <array>
    <dimension dim="1">band</dimension>
    <dimension dim="2">kpoint</dimension>
    <dimension dim="3">spin</dimension>
    <field>eigene</field>
    <field>occ</field>
    <set>
     <set comment="spin 1">
      <set comment="kpoint 1">
       <r>  -46.8767    1.0000 </r>
       <r>  -27.7924    1.0000 </r>
       <r>  -27.7924    1.0000 </r>
       <r>  -27.7924    1.0000 </r>
       <r>   -3.5269    1.0000 </r>
       <r>   -1.7280    0.0000 </r>
       <r>   -1.7204    0.0000 </r>
       <r>   -1.7180    0.0000 </r>
       <r>   -1.7133    0.0000 </r>
       <r>   -1.7121    0.0000 </r>
       <r>   -1.0532    0.0000 </r>
       <r>   -1.0532    0.0000 </r>
       <r>   -1.0494    0.0000 </r>
       <r>   -0.2150    0.0000 </r>
       <r>    0.6857    0.0000 </r>
       <r>    0.6858    0.0000 </r>
       <r>    1.4826    0.0000 </r>
       <r>    1.5597    0.0000 </r>
       <r>    1.6376    0.0000 </r>
       <r>    1.7388    0.0000 </r>
       <r>    1.7756    0.0000 </r>
       <r>    1.7833    0.0000 </r>
       <r>    1.8371    0.0000 </r>
       <r>    2.0922    0.0000 </r>
       <r>    2.1209    0.0000 </r>
       <r>    2.1379    0.0000 </r>
       <r>    2.2965    0.0000 </r>
       <r>    2.2986    0.0000 </r>
       <r>    3.4609    0.0000 </r>
       <r>    3.4733    0.0000 </r>
       <r>    3.5458    0.0000 </r>
       <r>    3.5752    0.0000 </r>
       <r>    3.5768    0.0000 </r>
       <r>    3.7173    0.0000 </r>
       <r>    4.4259    0.0000 </r>
       <r>    5.2070    0.0000 </r>
      </set>
     </set>
     <set comment="spin 2">
      <set comment="kpoint 1">
       <r>  -46.8764    1.0000 </r>
       <r>  -27.7922    1.0000 </r>
       <r>  -27.7922    1.0000 </r>
       <r>  -27.7922    1.0000 </r>
       <r>   -3.5268    1.0000 </r>
       <r>   -1.7245    0.0000 </r>
       <r>   -1.7230    0.0000 </r>
       <r>   -1.7159    0.0000 </r>
       <r>   -1.7148    0.0000 </r>
       <r>   -1.7113    0.0000 </r>
       <r>   -1.0538    0.0000 </r>
       <r>   -1.0536    0.0000 </r>
       <r>   -1.0524    0.0000 </r>
       <r>   -0.2155    0.0000 </r>
       <r>    0.6853    0.0000 </r>
       <r>    0.6856    0.0000 </r>
       <r>    1.4655    0.0000 </r>
       <r>    1.4764    0.0000 </r>
       <r>    1.5031    0.0000 </r>
       <r>    1.7883    0.0000 </r>
       <r>    1.8280    0.0000 </r>
       <r>    1.8394    0.0000 </r>
       <r>    1.8434    0.0000 </r>
       <r>    2.1365    0.0000 </r>
       <r>    2.1549    0.0000 </r>
       <r>    2.1590    0.0000 </r>
       <r>    2.2624    0.0000 </r>
       <r>    2.2652    0.0000 </r>
       <r>    3.3978    0.0000 </r>
       <r>    3.5325    0.0000 </r>
       <r>    3.5575    0.0000 </r>
       <r>    3.5613    0.0000 </r>
       <r>    3.5712    0.0000 </r>
       <r>    3.7617    0.0000 </r>
       <r>    4.3332    0.0000 </r>
       <r>    4.3656    0.0000 </r>
      </set>
     </set>
    </set>
   </array>
  </eigenvalues>
  <separator name="orbital magnetization" >
   <v name="MAGDIPOLOUT">      0.00000000      0.00000000      0.00000000</v>
  </separator>
  <dos>
   <i name="efermi">     -3.21755854 </i>
   <total>
    <array>
     <dimension dim="1">gridpoints</dimension>
     <dimension dim="2">spin</dimension>
     <field>energy</field>
     <field>total</field>
     <field>integrated</field>
     <set>
      <set comment="spin 1">
       <r>   -49.4809     0.0000     0.0000 </r>
       <r>   -49.2899     0.0000     0.0000 </r>
       <r>   -49.0990     0.0000     0.0000 </r>
       <r>   -48.9080     0.0000     0.0000 </r>
       <r>   -48.7170     0.0000     0.0000 </r>
       <r>   -48.5260     0.0000     0.0000 </r>
       <r>   -48.3351     0.0000     0.0000 </r>
       <r>   -48.1441     0.0000     0.0000 </r>
       <r>   -47.9531     0.0000     0.0000 </r>
       <r>   -47.7621     0.0000     0.0000 </r>
       <r>   -47.5712     0.0000     0.0000 </r>
       <r>   -47.3802     0.0000     0.0000 </r>
       <r>   -47.1892     0.0000     0.0000 </r>
       <r>   -46.9982     0.0015     0.0003 </r>
       <r>   -46.8073     5.1052     0.9752 </r>
       <r>   -46.6163     0.1296     1.0000 </r>
       <r>   -46.4253     0.0000     1.0000 </r>
       <r>   -46.2344     0.0000     1.0000 </r>
       <r>   -46.0434     0.0000     1.0000 </r>
       <r>   -45.8524     0.0000     1.0000 </r>
       <r>   -45.6614     0.0000     1.0000 </r>
       <r>   -45.4705     0.0000     1.0000 </r>
       <r>   -45.2795     0.0000     1.0000 </r>
       <r>   -45.0885     0.0000     1.0000 </r>
       <r>   -44.8975     0.0000     1.0000 </r>
       <r>   -44.7066     0.0000     1.0000 </r>
       <r>   -44.5156     0.0000     1.0000 </r>
       <r>   -44.3246     0.0000     1.0000 </r>
       <r>   -44.1336     0.0000     1.0000 </r>
       <r>   -43.9427     0.0000     1.0000 </r>
       <r>   -43.7517     0.0000     1.0000 </r>
       <r>   -43.5607     0.0000     1.0000 </r>
       <r>   -43.3697     0.0000     1.0000 </r>
       <r>   -43.1788     0.0000     1.0000 </r>
       <r>   -42.9878     0.0000     1.0000 </r>
       <r>   -42.7968     0.0000     1.0000 </r>
       <r>   -42.6059     0.0000     1.0000 </r>
       <r>   -42.4149     0.0000     1.0000 </r>
       <r>   -42.2239     0.0000     1.0000 </r>
       <r>   -42.0329     0.0000     1.0000 </r>
       <r>   -41.8420     0.0000     1.0000 </r>
       <r>   -41.6510     0.0000     1.0000 </r>
       <r>   -41.4600     0.0000     1.0000 </r>
       <r>   -41.2690     0.0000     1.0000 </r>
       <r>   -41.0781     0.0000     1.0000 </r>
       <r>   -40.8871     0.0000     1.0000 </r>
       <r>   -40.6961     0.0000     1.0000 </r>
       <r>   -40.5051     0.0000     1.0000 </r>
       <r>   -40.3142     0.0000     1.0000 </r>
       <r>   -40.1232     0.0000     1.0000 </r>
       <r>   -39.9322     0.0000     1.0000 </r>
       <r>   -39.7412     0.0000     1.0000 </r>
       <r>   -39.5503     0.0000     1.0000 </r>
       <r>   -39.3593     0.0000     1.0000 </r>
       <r>   -39.1683     0.0000     1.0000 </r>
       <r>   -38.9774     0.0000     1.0000 </r>
       <r>   -38.7864     0.0000     1.0000 </r>
       <r>   -38.5954     0.0000     1.0000 </r>
       <r>   -38.4044     0.0000     1.0000 </r>
       <r>   -38.2135     0.0000     1.0000 </r>
       <r>   -38.0225     0.0000     1.0000 </r>
       <r>   -37.8315     0.0000     1.0000 </r>
       <r>   -37.6405     0.0000     1.0000 </r>
       <r>   -37.4496     0.0000     1.0000 </r>
       <r>   -37.2586     0.0000     1.0000 </r>
       <r>   -37.0676     0.0000     1.0000 </r>
       <r>   -36.8766     0.0000     1.0000 </r>
       <r>   -36.6857     0.0000     1.0000 </r>
       <r>   -36.4947     0.0000     1.0000 </r>
       <r>   -36.3037     0.0000     1.0000 </r>
       <r>   -36.1128     0.0000     1.0000 </r>
       <r>   -35.9218     0.0000     1.0000 </r>
       <r>   -35.7308     0.0000     1.0000 </r>
       <r>   -35.5398     0.0000     1.0000 </r>
       <r>   -35.3489     0.0000     1.0000 </r>
       <r>   -35.1579     0.0000     1.0000 </r>
       <r>   -34.9669     0.0000     1.0000 </r>
       <r>   -34.7759     0.0000     1.0000 </r>
       <r>   -34.5850     0.0000     1.0000 </r>
       <r>   -34.3940     0.0000     1.0000 </r>
       <r>   -34.2030     0.0000     1.0000 </r>
       <r>   -34.0120     0.0000     1.0000 </r>
       <r>   -33.8211     0.0000     1.0000 </r>
       <r>   -33.6301     0.0000     1.0000 </r>
       <r>   -33.4391     0.0000     1.0000 </r>
       <r>   -33.2481     0.0000     1.0000 </r>
       <r>   -33.0572     0.0000     1.0000 </r>
       <r>   -32.8662     0.0000     1.0000 </r>
       <r>   -32.6752     0.0000     1.0000 </r>
       <r>   -32.4843     0.0000     1.0000 </r>
       <r>   -32.2933     0.0000     1.0000 </r>
       <r>   -32.1023     0.0000     1.0000 </r>
       <r>   -31.9113     0.0000     1.0000 </r>
       <r>   -31.7204     0.0000     1.0000 </r>
       <r>   -31.5294     0.0000     1.0000 </r>
       <r>   -31.3384     0.0000     1.0000 </r>
       <r>   -31.1474     0.0000     1.0000 </r>
       <r>   -30.9565     0.0000     1.0000 </r>
       <r>   -30.7655     0.0000     1.0000 </r>
       <r>   -30.5745     0.0000     1.0000 </r>
       <r>   -30.3835     0.0000     1.0000 </r>
       <r>   -30.1926     0.0000     1.0000 </r>
       <r>   -30.0016     0.0000     1.0000 </r>
       <r>   -29.8106     0.0000     1.0000 </r>
       <r>   -29.6197     0.0000     1.0000 </r>
       <r>   -29.4287     0.0000     1.0000 </r>
       <r>   -29.2377     0.0000     1.0000 </r>
       <r>   -29.0467     0.0000     1.0000 </r>
       <r>   -28.8558     0.0000     1.0000 </r>
       <r>   -28.6648     0.0000     1.0000 </r>
       <r>   -28.4738     0.0000     1.0000 </r>
       <r>   -28.2828     0.0000     1.0000 </r>
       <r>   -28.0919     0.0000     1.0000 </r>
       <r>   -27.9009     0.0170     1.0032 </r>
       <r>   -27.7099    15.5382     3.9706 </r>
       <r>   -27.5189     0.1538     4.0000 </r>
       <r>   -27.3280     0.0000     4.0000 </r>
       <r>   -27.1370     0.0000     4.0000 </r>
       <r>   -26.9460     0.0000     4.0000 </r>
       <r>   -26.7550     0.0000     4.0000 </r>
       <r>   -26.5641     0.0000     4.0000 </r>
       <r>   -26.3731     0.0000     4.0000 </r>
       <r>   -26.1821     0.0000     4.0000 </r>
       <r>   -25.9912     0.0000     4.0000 </r>
       <r>   -25.8002     0.0000     4.0000 </r>
       <r>   -25.6092     0.0000     4.0000 </r>
       <r>   -25.4182     0.0000     4.0000 </r>
       <r>   -25.2273     0.0000     4.0000 </r>
       <r>   -25.0363     0.0000     4.0000 </r>
       <r>   -24.8453     0.0000     4.0000 </r>
       <r>   -24.6543     0.0000     4.0000 </r>
       <r>   -24.4634     0.0000     4.0000 </r>
       <r>   -24.2724     0.0000     4.0000 </r>
       <r>   -24.0814     0.0000     4.0000 </r>
       <r>   -23.8904     0.0000     4.0000 </r>
       <r>   -23.6995     0.0000     4.0000 </r>
       <r>   -23.5085     0.0000     4.0000 </r>
       <r>   -23.3175     0.0000     4.0000 </r>
       <r>   -23.1266     0.0000     4.0000 </r>
       <r>   -22.9356     0.0000     4.0000 </r>
       <r>   -22.7446     0.0000     4.0000 </r>
       <r>   -22.5536     0.0000     4.0000 </r>
       <r>   -22.3627     0.0000     4.0000 </r>
       <r>   -22.1717     0.0000     4.0000 </r>
       <r>   -21.9807     0.0000     4.0000 </r>
       <r>   -21.7897     0.0000     4.0000 </r>
       <r>   -21.5988     0.0000     4.0000 </r>
       <r>   -21.4078     0.0000     4.0000 </r>
       <r>   -21.2168     0.0000     4.0000 </r>
       <r>   -21.0258     0.0000     4.0000 </r>
       <r>   -20.8349     0.0000     4.0000 </r>
       <r>   -20.6439     0.0000     4.0000 </r>
       <r>   -20.4529     0.0000     4.0000 </r>
       <r>   -20.2619     0.0000     4.0000 </r>
       <r>   -20.0710     0.0000     4.0000 </r>
       <r>   -19.8800     0.0000     4.0000 </r>
       <r>   -19.6890     0.0000     4.0000 </r>
       <r>   -19.4981     0.0000     4.0000 </r>
       <r>   -19.3071     0.0000     4.0000 </r>
       <r>   -19.1161     0.0000     4.0000 </r>
       <r>   -18.9251     0.0000     4.0000 </r>
       <r>   -18.7342     0.0000     4.0000 </r>
       <r>   -18.5432     0.0000     4.0000 </r>
       <r>   -18.3522     0.0000     4.0000 </r>
       <r>   -18.1612     0.0000     4.0000 </r>
       <r>   -17.9703     0.0000     4.0000 </r>
       <r>   -17.7793     0.0000     4.0000 </r>
       <r>   -17.5883     0.0000     4.0000 </r>
       <r>   -17.3973     0.0000     4.0000 </r>
       <r>   -17.2064     0.0000     4.0000 </r>
       <r>   -17.0154     0.0000     4.0000 </r>
       <r>   -16.8244     0.0000     4.0000 </r>
       <r>   -16.6335     0.0000     4.0000 </r>
       <r>   -16.4425     0.0000     4.0000 </r>
       <r>   -16.2515     0.0000     4.0000 </r>
       <r>   -16.0605     0.0000     4.0000 </r>
       <r>   -15.8696     0.0000     4.0000 </r>
       <r>   -15.6786     0.0000     4.0000 </r>
       <r>   -15.4876     0.0000     4.0000 </r>
       <r>   -15.2966     0.0000     4.0000 </r>
       <r>   -15.1057     0.0000     4.0000 </r>
       <r>   -14.9147     0.0000     4.0000 </r>
       <r>   -14.7237     0.0000     4.0000 </r>
       <r>   -14.5327     0.0000     4.0000 </r>
       <r>   -14.3418     0.0000     4.0000 </r>
       <r>   -14.1508     0.0000     4.0000 </r>
       <r>   -13.9598     0.0000     4.0000 </r>
       <r>   -13.7688     0.0000     4.0000 </r>
       <r>   -13.5779     0.0000     4.0000 </r>
       <r>   -13.3869     0.0000     4.0000 </r>
       <r>   -13.1959     0.0000     4.0000 </r>
       <r>   -13.0050     0.0000     4.0000 </r>
       <r>   -12.8140     0.0000     4.0000 </r>
       <r>   -12.6230     0.0000     4.0000 </r>
       <r>   -12.4320     0.0000     4.0000 </r>
       <r>   -12.2411     0.0000     4.0000 </r>
       <r>   -12.0501     0.0000     4.0000 </r>
       <r>   -11.8591     0.0000     4.0000 </r>
       <r>   -11.6681     0.0000     4.0000 </r>
       <r>   -11.4772     0.0000     4.0000 </r>
       <r>   -11.2862     0.0000     4.0000 </r>
       <r>   -11.0952     0.0000     4.0000 </r>
       <r>   -10.9042     0.0000     4.0000 </r>
       <r>   -10.7133     0.0000     4.0000 </r>
       <r>   -10.5223     0.0000     4.0000 </r>
       <r>   -10.3313     0.0000     4.0000 </r>
       <r>   -10.1403     0.0000     4.0000 </r>
       <r>    -9.9494     0.0000     4.0000 </r>
       <r>    -9.7584     0.0000     4.0000 </r>
       <r>    -9.5674     0.0000     4.0000 </r>
       <r>    -9.3765     0.0000     4.0000 </r>
       <r>    -9.1855     0.0000     4.0000 </r>
       <r>    -8.9945     0.0000     4.0000 </r>
       <r>    -8.8035     0.0000     4.0000 </r>
       <r>    -8.6126     0.0000     4.0000 </r>
       <r>    -8.4216     0.0000     4.0000 </r>
       <r>    -8.2306     0.0000     4.0000 </r>
       <r>    -8.0396     0.0000     4.0000 </r>
       <r>    -7.8487     0.0000     4.0000 </r>
       <r>    -7.6577     0.0000     4.0000 </r>
       <r>    -7.4667     0.0000     4.0000 </r>
       <r>    -7.2757     0.0000     4.0000 </r>
       <r>    -7.0848     0.0000     4.0000 </r>
       <r>    -6.8938     0.0000     4.0000 </r>
       <r>    -6.7028     0.0000     4.0000 </r>
       <r>    -6.5119     0.0000     4.0000 </r>
       <r>    -6.3209     0.0000     4.0000 </r>
       <r>    -6.1299     0.0000     4.0000 </r>
       <r>    -5.9389     0.0000     4.0000 </r>
       <r>    -5.7480     0.0000     4.0000 </r>
       <r>    -5.5570     0.0000     4.0000 </r>
       <r>    -5.3660     0.0000     4.0000 </r>
       <r>    -5.1750     0.0000     4.0000 </r>
       <r>    -4.9841     0.0000     4.0000 </r>
       <r>    -4.7931     0.0000     4.0000 </r>
       <r>    -4.6021     0.0000     4.0000 </r>
       <r>    -4.4111     0.0000     4.0000 </r>
       <r>    -4.2202     0.0000     4.0000 </r>
       <r>    -4.0292     0.0000     4.0000 </r>
       <r>    -3.8382     0.0000     4.0000 </r>
       <r>    -3.6472     0.0017     4.0003 </r>
       <r>    -3.4563     5.1151     4.9772 </r>
       <r>    -3.2653     0.1195     5.0000 </r>
       <r>    -3.0743     0.0000     5.0000 </r>
       <r>    -2.8834     0.0000     5.0000 </r>
       <r>    -2.6924     0.0000     5.0000 </r>
       <r>    -2.5014     0.0000     5.0000 </r>
       <r>    -2.3104     0.0000     5.0000 </r>
       <r>    -2.1195     0.0000     5.0000 </r>
       <r>    -1.9285     0.0000     5.0000 </r>
       <r>    -1.7375     7.7578     6.4815 </r>
       <r>    -1.5465    18.4238    10.0000 </r>
       <r>    -1.3556     0.0000    10.0000 </r>
       <r>    -1.1646     0.0115    10.0022 </r>
       <r>    -0.9736    15.4859    12.9596 </r>
       <r>    -0.7826     0.2116    13.0000 </r>
       <r>    -0.5917     0.0000    13.0000 </r>
       <r>    -0.4007     0.0000    13.0000 </r>
       <r>    -0.2097     2.9306    13.5597 </r>
       <r>    -0.0188     2.3057    14.0000 </r>
       <r>     0.1722     0.0000    14.0000 </r>
       <r>     0.3632     0.0000    14.0000 </r>
       <r>     0.5542     0.0010    14.0002 </r>
       <r>     0.7451     9.9846    15.9070 </r>
       <r>     0.9361     0.4870    16.0000 </r>
       <r>     1.1271     0.0000    16.0000 </r>
       <r>     1.3181     0.0000    16.0000 </r>
       <r>     1.5090     4.4452    16.8489 </r>
       <r>     1.7000    11.9073    19.1229 </r>
       <r>     1.8910    19.9596    22.9347 </r>
       <r>     2.0820     3.3693    23.5781 </r>
       <r>     2.2729    15.2284    26.4863 </r>
       <r>     2.4639     7.9261    28.0000 </r>
       <r>     2.6549     0.0000    28.0000 </r>
       <r>     2.8459     0.0000    28.0000 </r>
       <r>     3.0368     0.0000    28.0000 </r>
       <r>     3.2278     0.0000    28.0000 </r>
       <r>     3.4188     0.9333    28.1782 </r>
       <r>     3.6097    23.2900    32.6260 </r>
       <r>     3.8007     7.1468    33.9909 </r>
       <r>     3.9917     0.0478    34.0000 </r>
       <r>     4.1827     0.0000    34.0000 </r>
       <r>     4.3736     0.3651    34.0697 </r>
       <r>     4.5646     4.8710    35.0000 </r>
       <r>     4.7556     0.0002    35.0000 </r>
       <r>     4.9466     0.0000    35.0000 </r>
       <r>     5.1375     0.1296    35.0248 </r>
       <r>     5.3285     5.1052    35.9997 </r>
       <r>     5.5195     0.0015    36.0000 </r>
       <r>     5.7105     0.0000    36.0000 </r>
       <r>     5.9014     0.0000    36.0000 </r>
       <r>     6.0924     0.0000    36.0000 </r>
       <r>     6.2834     0.0000    36.0000 </r>
       <r>     6.4743     0.0000    36.0000 </r>
       <r>     6.6653     0.0000    36.0000 </r>
       <r>     6.8563     0.0000    36.0000 </r>
       <r>     7.0473     0.0000    36.0000 </r>
       <r>     7.2382     0.0000    36.0000 </r>
       <r>     7.4292     0.0000    36.0000 </r>
       <r>     7.6202     0.0000    36.0000 </r>
       <r>     7.8112     0.0000    36.0000 </r>
      </set>
      <set comment="spin 2">
       <r>   -49.4809     0.0000     0.0000 </r>
       <r>   -49.2899     0.0000     0.0000 </r>
       <r>   -49.0990     0.0000     0.0000 </r>
       <r>   -48.9080     0.0000     0.0000 </r>
       <r>   -48.7170     0.0000     0.0000 </r>
       <r>   -48.5260     0.0000     0.0000 </r>
       <r>   -48.3351     0.0000     0.0000 </r>
       <r>   -48.1441     0.0000     0.0000 </r>
       <r>   -47.9531     0.0000     0.0000 </r>
       <r>   -47.7621     0.0000     0.0000 </r>
       <r>   -47.5712     0.0000     0.0000 </r>
       <r>   -47.3802     0.0000     0.0000 </r>
       <r>   -47.1892     0.0000     0.0000 </r>
       <r>   -46.9982     0.0015     0.0003 </r>
       <r>   -46.8073     5.1021     0.9746 </r>
       <r>   -46.6163     0.1328     1.0000 </r>
       <r>   -46.4253     0.0000     1.0000 </r>
       <r>   -46.2344     0.0000     1.0000 </r>
       <r>   -46.0434     0.0000     1.0000 </r>
       <r>   -45.8524     0.0000     1.0000 </r>
       <r>   -45.6614     0.0000     1.0000 </r>
       <r>   -45.4705     0.0000     1.0000 </r>
       <r>   -45.2795     0.0000     1.0000 </r>
       <r>   -45.0885     0.0000     1.0000 </r>
       <r>   -44.8975     0.0000     1.0000 </r>
       <r>   -44.7066     0.0000     1.0000 </r>
       <r>   -44.5156     0.0000     1.0000 </r>
       <r>   -44.3246     0.0000     1.0000 </r>
       <r>   -44.1336     0.0000     1.0000 </r>
       <r>   -43.9427     0.0000     1.0000 </r>
       <r>   -43.7517     0.0000     1.0000 </r>
       <r>   -43.5607     0.0000     1.0000 </r>
       <r>   -43.3697     0.0000     1.0000 </r>
       <r>   -43.1788     0.0000     1.0000 </r>
       <r>   -42.9878     0.0000     1.0000 </r>
       <r>   -42.7968     0.0000     1.0000 </r>
       <r>   -42.6059     0.0000     1.0000 </r>
       <r>   -42.4149     0.0000     1.0000 </r>
       <r>   -42.2239     0.0000     1.0000 </r>
       <r>   -42.0329     0.0000     1.0000 </r>
       <r>   -41.8420     0.0000     1.0000 </r>
       <r>   -41.6510     0.0000     1.0000 </r>
       <r>   -41.4600     0.0000     1.0000 </r>
       <r>   -41.2690     0.0000     1.0000 </r>
       <r>   -41.0781     0.0000     1.0000 </r>
       <r>   -40.8871     0.0000     1.0000 </r>
       <r>   -40.6961     0.0000     1.0000 </r>
       <r>   -40.5051     0.0000     1.0000 </r>
       <r>   -40.3142     0.0000     1.0000 </r>
       <r>   -40.1232     0.0000     1.0000 </r>
       <r>   -39.9322     0.0000     1.0000 </r>
       <r>   -39.7412     0.0000     1.0000 </r>
       <r>   -39.5503     0.0000     1.0000 </r>
       <r>   -39.3593     0.0000     1.0000 </r>
       <r>   -39.1683     0.0000     1.0000 </r>
       <r>   -38.9774     0.0000     1.0000 </r>
       <r>   -38.7864     0.0000     1.0000 </r>
       <r>   -38.5954     0.0000     1.0000 </r>
       <r>   -38.4044     0.0000     1.0000 </r>
       <r>   -38.2135     0.0000     1.0000 </r>
       <r>   -38.0225     0.0000     1.0000 </r>
       <r>   -37.8315     0.0000     1.0000 </r>
       <r>   -37.6405     0.0000     1.0000 </r>
       <r>   -37.4496     0.0000     1.0000 </r>
       <r>   -37.2586     0.0000     1.0000 </r>
       <r>   -37.0676     0.0000     1.0000 </r>
       <r>   -36.8766     0.0000     1.0000 </r>
       <r>   -36.6857     0.0000     1.0000 </r>
       <r>   -36.4947     0.0000     1.0000 </r>
       <r>   -36.3037     0.0000     1.0000 </r>
       <r>   -36.1128     0.0000     1.0000 </r>
       <r>   -35.9218     0.0000     1.0000 </r>
       <r>   -35.7308     0.0000     1.0000 </r>
       <r>   -35.5398     0.0000     1.0000 </r>
       <r>   -35.3489     0.0000     1.0000 </r>
       <r>   -35.1579     0.0000     1.0000 </r>
       <r>   -34.9669     0.0000     1.0000 </r>
       <r>   -34.7759     0.0000     1.0000 </r>
       <r>   -34.5850     0.0000     1.0000 </r>
       <r>   -34.3940     0.0000     1.0000 </r>
       <r>   -34.2030     0.0000     1.0000 </r>
       <r>   -34.0120     0.0000     1.0000 </r>
       <r>   -33.8211     0.0000     1.0000 </r>
       <r>   -33.6301     0.0000     1.0000 </r>
       <r>   -33.4391     0.0000     1.0000 </r>
       <r>   -33.2481     0.0000     1.0000 </r>
       <r>   -33.0572     0.0000     1.0000 </r>
       <r>   -32.8662     0.0000     1.0000 </r>
       <r>   -32.6752     0.0000     1.0000 </r>
       <r>   -32.4843     0.0000     1.0000 </r>
       <r>   -32.2933     0.0000     1.0000 </r>
       <r>   -32.1023     0.0000     1.0000 </r>
       <r>   -31.9113     0.0000     1.0000 </r>
       <r>   -31.7204     0.0000     1.0000 </r>
       <r>   -31.5294     0.0000     1.0000 </r>
       <r>   -31.3384     0.0000     1.0000 </r>
       <r>   -31.1474     0.0000     1.0000 </r>
       <r>   -30.9565     0.0000     1.0000 </r>
       <r>   -30.7655     0.0000     1.0000 </r>
       <r>   -30.5745     0.0000     1.0000 </r>
       <r>   -30.3835     0.0000     1.0000 </r>
       <r>   -30.1926     0.0000     1.0000 </r>
       <r>   -30.0016     0.0000     1.0000 </r>
       <r>   -29.8106     0.0000     1.0000 </r>
       <r>   -29.6197     0.0000     1.0000 </r>
       <r>   -29.4287     0.0000     1.0000 </r>
       <r>   -29.2377     0.0000     1.0000 </r>
       <r>   -29.0467     0.0000     1.0000 </r>
       <r>   -28.8558     0.0000     1.0000 </r>
       <r>   -28.6648     0.0000     1.0000 </r>
       <r>   -28.4738     0.0000     1.0000 </r>
       <r>   -28.2828     0.0000     1.0000 </r>
       <r>   -28.0919     0.0000     1.0000 </r>
       <r>   -27.9009     0.0165     1.0032 </r>
       <r>   -27.7099    15.5355     3.9700 </r>
       <r>   -27.5189     0.1569     4.0000 </r>
       <r>   -27.3280     0.0000     4.0000 </r>
       <r>   -27.1370     0.0000     4.0000 </r>
       <r>   -26.9460     0.0000     4.0000 </r>
       <r>   -26.7550     0.0000     4.0000 </r>
       <r>   -26.5641     0.0000     4.0000 </r>
       <r>   -26.3731     0.0000     4.0000 </r>
       <r>   -26.1821     0.0000     4.0000 </r>
       <r>   -25.9912     0.0000     4.0000 </r>
       <r>   -25.8002     0.0000     4.0000 </r>
       <r>   -25.6092     0.0000     4.0000 </r>
       <r>   -25.4182     0.0000     4.0000 </r>
       <r>   -25.2273     0.0000     4.0000 </r>
       <r>   -25.0363     0.0000     4.0000 </r>
       <r>   -24.8453     0.0000     4.0000 </r>
       <r>   -24.6543     0.0000     4.0000 </r>
       <r>   -24.4634     0.0000     4.0000 </r>
       <r>   -24.2724     0.0000     4.0000 </r>
       <r>   -24.0814     0.0000     4.0000 </r>
       <r>   -23.8904     0.0000     4.0000 </r>
       <r>   -23.6995     0.0000     4.0000 </r>
       <r>   -23.5085     0.0000     4.0000 </r>
       <r>   -23.3175     0.0000     4.0000 </r>
       <r>   -23.1266     0.0000     4.0000 </r>
       <r>   -22.9356     0.0000     4.0000 </r>
       <r>   -22.7446     0.0000     4.0000 </r>
       <r>   -22.5536     0.0000     4.0000 </r>
       <r>   -22.3627     0.0000     4.0000 </r>
       <r>   -22.1717     0.0000     4.0000 </r>
       <r>   -21.9807     0.0000     4.0000 </r>
       <r>   -21.7897     0.0000     4.0000 </r>
       <r>   -21.5988     0.0000     4.0000 </r>
       <r>   -21.4078     0.0000     4.0000 </r>
       <r>   -21.2168     0.0000     4.0000 </r>
       <r>   -21.0258     0.0000     4.0000 </r>
       <r>   -20.8349     0.0000     4.0000 </r>
       <r>   -20.6439     0.0000     4.0000 </r>
       <r>   -20.4529     0.0000     4.0000 </r>
       <r>   -20.2619     0.0000     4.0000 </r>
       <r>   -20.0710     0.0000     4.0000 </r>
       <r>   -19.8800     0.0000     4.0000 </r>
       <r>   -19.6890     0.0000     4.0000 </r>
       <r>   -19.4981     0.0000     4.0000 </r>
       <r>   -19.3071     0.0000     4.0000 </r>
       <r>   -19.1161     0.0000     4.0000 </r>
       <r>   -18.9251     0.0000     4.0000 </r>
       <r>   -18.7342     0.0000     4.0000 </r>
       <r>   -18.5432     0.0000     4.0000 </r>
       <r>   -18.3522     0.0000     4.0000 </r>
       <r>   -18.1612     0.0000     4.0000 </r>
       <r>   -17.9703     0.0000     4.0000 </r>
       <r>   -17.7793     0.0000     4.0000 </r>
       <r>   -17.5883     0.0000     4.0000 </r>
       <r>   -17.3973     0.0000     4.0000 </r>
       <r>   -17.2064     0.0000     4.0000 </r>
       <r>   -17.0154     0.0000     4.0000 </r>
       <r>   -16.8244     0.0000     4.0000 </r>
       <r>   -16.6335     0.0000     4.0000 </r>
       <r>   -16.4425     0.0000     4.0000 </r>
       <r>   -16.2515     0.0000     4.0000 </r>
       <r>   -16.0605     0.0000     4.0000 </r>
       <r>   -15.8696     0.0000     4.0000 </r>
       <r>   -15.6786     0.0000     4.0000 </r>
       <r>   -15.4876     0.0000     4.0000 </r>
       <r>   -15.2966     0.0000     4.0000 </r>
       <r>   -15.1057     0.0000     4.0000 </r>
       <r>   -14.9147     0.0000     4.0000 </r>
       <r>   -14.7237     0.0000     4.0000 </r>
       <r>   -14.5327     0.0000     4.0000 </r>
       <r>   -14.3418     0.0000     4.0000 </r>
       <r>   -14.1508     0.0000     4.0000 </r>
       <r>   -13.9598     0.0000     4.0000 </r>
       <r>   -13.7688     0.0000     4.0000 </r>
       <r>   -13.5779     0.0000     4.0000 </r>
       <r>   -13.3869     0.0000     4.0000 </r>
       <r>   -13.1959     0.0000     4.0000 </r>
       <r>   -13.0050     0.0000     4.0000 </r>
       <r>   -12.8140     0.0000     4.0000 </r>
       <r>   -12.6230     0.0000     4.0000 </r>
       <r>   -12.4320     0.0000     4.0000 </r>
       <r>   -12.2411     0.0000     4.0000 </r>
       <r>   -12.0501     0.0000     4.0000 </r>
       <r>   -11.8591     0.0000     4.0000 </r>
       <r>   -11.6681     0.0000     4.0000 </r>
       <r>   -11.4772     0.0000     4.0000 </r>
       <r>   -11.2862     0.0000     4.0000 </r>
       <r>   -11.0952     0.0000     4.0000 </r>
       <r>   -10.9042     0.0000     4.0000 </r>
       <r>   -10.7133     0.0000     4.0000 </r>
       <r>   -10.5223     0.0000     4.0000 </r>
       <r>   -10.3313     0.0000     4.0000 </r>
       <r>   -10.1403     0.0000     4.0000 </r>
       <r>    -9.9494     0.0000     4.0000 </r>
       <r>    -9.7584     0.0000     4.0000 </r>
       <r>    -9.5674     0.0000     4.0000 </r>
       <r>    -9.3765     0.0000     4.0000 </r>
       <r>    -9.1855     0.0000     4.0000 </r>
       <r>    -8.9945     0.0000     4.0000 </r>
       <r>    -8.8035     0.0000     4.0000 </r>
       <r>    -8.6126     0.0000     4.0000 </r>
       <r>    -8.4216     0.0000     4.0000 </r>
       <r>    -8.2306     0.0000     4.0000 </r>
       <r>    -8.0396     0.0000     4.0000 </r>
       <r>    -7.8487     0.0000     4.0000 </r>
       <r>    -7.6577     0.0000     4.0000 </r>
       <r>    -7.4667     0.0000     4.0000 </r>
       <r>    -7.2757     0.0000     4.0000 </r>
       <r>    -7.0848     0.0000     4.0000 </r>
       <r>    -6.8938     0.0000     4.0000 </r>
       <r>    -6.7028     0.0000     4.0000 </r>
       <r>    -6.5119     0.0000     4.0000 </r>
       <r>    -6.3209     0.0000     4.0000 </r>
       <r>    -6.1299     0.0000     4.0000 </r>
       <r>    -5.9389     0.0000     4.0000 </r>
       <r>    -5.7480     0.0000     4.0000 </r>
       <r>    -5.5570     0.0000     4.0000 </r>
       <r>    -5.3660     0.0000     4.0000 </r>
       <r>    -5.1750     0.0000     4.0000 </r>
       <r>    -4.9841     0.0000     4.0000 </r>
       <r>    -4.7931     0.0000     4.0000 </r>
       <r>    -4.6021     0.0000     4.0000 </r>
       <r>    -4.4111     0.0000     4.0000 </r>
       <r>    -4.2202     0.0000     4.0000 </r>
       <r>    -4.0292     0.0000     4.0000 </r>
       <r>    -3.8382     0.0000     4.0000 </r>
       <r>    -3.6472     0.0017     4.0003 </r>
       <r>    -3.4563     5.1137     4.9769 </r>
       <r>    -3.2653     0.1209     5.0000 </r>
       <r>    -3.0743     0.0000     5.0000 </r>
       <r>    -2.8834     0.0000     5.0000 </r>
       <r>    -2.6924     0.0000     5.0000 </r>
       <r>    -2.5014     0.0000     5.0000 </r>
       <r>    -2.3104     0.0000     5.0000 </r>
       <r>    -2.1195     0.0000     5.0000 </r>
       <r>    -1.9285     0.0000     5.0000 </r>
       <r>    -1.7375     7.6306     6.4572 </r>
       <r>    -1.5465    18.5511    10.0000 </r>
       <r>    -1.3556     0.0000    10.0000 </r>
       <r>    -1.1646     0.0129    10.0025 </r>
       <r>    -0.9736    15.5051    12.9635 </r>
       <r>    -0.7826     0.1910    13.0000 </r>
       <r>    -0.5917     0.0000    13.0000 </r>
       <r>    -0.4007     0.0000    13.0000 </r>
       <r>    -0.2097     2.9586    13.5650 </r>
       <r>    -0.0188     2.2777    14.0000 </r>
       <r>     0.1722     0.0000    14.0000 </r>
       <r>     0.3632     0.0000    14.0000 </r>
       <r>     0.5542     0.0011    14.0002 </r>
       <r>     0.7451     9.9927    15.9085 </r>
       <r>     0.9361     0.4789    16.0000 </r>
       <r>     1.1271     0.0000    16.0000 </r>
       <r>     1.3181     0.0001    16.0000 </r>
       <r>     1.5090    11.9394    18.2801 </r>
       <r>     1.7000     3.8032    19.0065 </r>
       <r>     1.8910    19.8610    22.7994 </r>
       <r>     2.0820     1.5515    23.0957 </r>
       <r>     2.2729    21.5088    27.2033 </r>
       <r>     2.4639     4.1719    28.0000 </r>
       <r>     2.6549     0.0000    28.0000 </r>
       <r>     2.8459     0.0000    28.0000 </r>
       <r>     3.0368     0.0000    28.0000 </r>
       <r>     3.2278     0.0000    28.0000 </r>
       <r>     3.4188     3.7923    28.7242 </r>
       <r>     3.6097    20.7800    32.6927 </r>
       <r>     3.8007     6.1408    33.8654 </r>
       <r>     3.9917     0.7048    34.0000 </r>
       <r>     4.1827     0.0001    34.0000 </r>
       <r>     4.3736     7.6645    35.4637 </r>
       <r>     4.5646     2.8081    36.0000 </r>
       <r>     4.7556     0.0000    36.0000 </r>
       <r>     4.9466     0.0000    36.0000 </r>
       <r>     5.1375     0.0000    36.0000 </r>
       <r>     5.3285     0.0000    36.0000 </r>
       <r>     5.5195     0.0000    36.0000 </r>
       <r>     5.7105     0.0000    36.0000 </r>
       <r>     5.9014     0.0000    36.0000 </r>
       <r>     6.0924     0.0000    36.0000 </r>
       <r>     6.2834     0.0000    36.0000 </r>
       <r>     6.4743     0.0000    36.0000 </r>
       <r>     6.6653     0.0000    36.0000 </r>
       <r>     6.8563     0.0000    36.0000 </r>
       <r>     7.0473     0.0000    36.0000 </r>
       <r>     7.2382     0.0000    36.0000 </r>
       <r>     7.4292     0.0000    36.0000 </r>
       <r>     7.6202     0.0000    36.0000 </r>
       <r>     7.8112     0.0000    36.0000 </r>
      </set>
     </set>
    </array>
   </total>
   <partial>
    <array>
     <dimension dim="1">gridpoints</dimension>
     <dimension dim="2">spin</dimension>
     <dimension dim="3">ion</dimension>
     <field>energy</field>
     <field>    s</field>
     <field>   py</field>
     <field>   pz</field>
     <field>   px</field>
     <field>  dxy</field>
     <field>  dyz</field>
     <field>  dz2</field>
     <field>  dxz</field>
     <field>x2-y2</field>
     <set>
      <set comment="ion 1">
       <set comment="spin 1">
        <r>   -49.4809     0.0000     0.0000     0.0000     0.0000     0.0000     0.0000     0.0000     0.0000     0.0000 </r>
        <r>   -49.2899     0.0000     0.0000     0.0000     0.0000     0.0000     0.0000     0.0000     0.0000     0.0000 </r>
        <r>   -49.0990     0.0000     0.0000     0.0000     0.0000     0.0000     0.0000     0.0000     0.0000     0.0000 </r>
        <r>   -48.9080     0.0000     0.0000     0.0000     0.0000     0.0000     0.0000     0.0000     0.0000     0.0000 </r>
        <r>   -48.7170     0.0000     0.0000     0.0000     0.0000     0.0000     0.0000     0.0000     0.0000     0.0000 </r>
        <r>   -48.5260     0.0000     0.0000     0.0000     0.0000     0.0000     0.0000     0.0000     0.0000     0.0000 </r>
        <r>   -48.3351     0.0000     0.0000     0.0000     0.0000     0.0000     0.0000     0.0000     0.0000     0.0000 </r>
        <r>   -48.1441     0.0000     0.0000     0.0000     0.0000     0.0000     0.0000     0.0000     0.0000     0.0000 </r>
        <r>   -47.9531     0.0000     0.0000     0.0000     0.0000     0.0000     0.0000     0.0000     0.0000     0.0000 </r>
        <r>   -47.7621     0.0000     0.0000     0.0000     0.0000     0.0000     0.0000     0.0000     0.0000     0.0000 </r>
        <r>   -47.5712     0.0000     0.0000     0.0000     0.0000     0.0000     0.0000     0.0000     0.0000     0.0000 </r>
        <r>   -47.3802     0.0000     0.0000     0.0000     0.0000     0.0000     0.0000     0.0000     0.0000     0.0000 </r>
        <r>   -47.1892     0.0000     0.0000     0.0000     0.0000     0.0000     0.0000     0.0000     0.0000     0.0000 </r>
        <r>   -46.9982     0.0015     0.0000     0.0000     0.0000     0.0000     0.0000     0.0000     0.0000     0.0000 </r>
        <r>   -46.8073     5.0402     0.0000     0.0000     0.0000     0.0000     0.0000     0.0000     0.0000     0.0000 </r>
        <r>   -46.6163     0.1280     0.0000     0.0000     0.0000     0.0000     0.0000     0.0000     0.0000     0.0000 </r>
        <r>   -46.4253     0.0000     0.0000     0.0000     0.0000     0.0000     0.0000     0.0000     0.0000     0.0000 </r>
        <r>   -46.2344     0.0000     0.0000     0.0000     0.0000     0.0000     0.0000     0.0000     0.0000     0.0000 </r>
        <r>   -46.0434     0.0000     0.0000     0.0000     0.0000     0.0000     0.0000     0.0000     0.0000     0.0000 </r>
        <r>   -45.8524     0.0000     0.0000     0.0000     0.0000     0.0000     0.0000     0.0000     0.0000     0.0000 </r>
        <r>   -45.6614     0.0000     0.0000     0.0000     0.0000     0.0000     0.0000     0.0000     0.0000     0.0000 </r>
        <r>   -45.4705     0.0000     0.0000     0.0000     0.0000     0.0000     0.0000     0.0000     0.0000     0.0000 </r>
        <r>   -45.2795     0.0000     0.0000     0.0000     0.0000     0.0000     0.0000     0.0000     0.0000     0.0000 </r>
        <r>   -45.0885     0.0000     0.0000     0.0000     0.0000     0.0000     0.0000     0.0000     0.0000     0.0000 </r>
        <r>   -44.8975     0.0000     0.0000     0.0000     0.0000     0.0000     0.0000     0.0000     0.0000     0.0000 </r>
        <r>   -44.7066     0.0000     0.0000     0.0000     0.0000     0.0000     0.0000     0.0000     0.0000     0.0000 </r>
        <r>   -44.5156     0.0000     0.0000     0.0000     0.0000     0.0000     0.0000     0.0000     0.0000     0.0000 </r>
        <r>   -44.3246     0.0000     0.0000     0.0000     0.0000     0.0000     0.0000     0.0000     0.0000     0.0000 </r>
        <r>   -44.1336     0.0000     0.0000     0.0000     0.0000     0.0000     0.0000     0.0000     0.0000     0.0000 </r>
        <r>   -43.9427     0.0000     0.0000     0.0000     0.0000     0.0000     0.0000     0.0000     0.0000     0.0000 </r>
        <r>   -43.7517     0.0000     0.0000     0.0000     0.0000     0.0000     0.0000     0.0000     0.0000     0.0000 </r>
        <r>   -43.5607     0.0000     0.0000     0.0000     0.0000     0.0000     0.0000     0.0000     0.0000     0.0000 </r>
        <r>   -43.3697     0.0000     0.0000     0.0000     0.0000     0.0000     0.0000     0.0000     0.0000     0.0000 </r>
        <r>   -43.1788     0.0000     0.0000     0.0000     0.0000     0.0000     0.0000     0.0000     0.0000     0.0000 </r>
        <r>   -42.9878     0.0000     0.0000     0.0000     0.0000     0.0000     0.0000     0.0000     0.0000     0.0000 </r>
        <r>   -42.7968     0.0000     0.0000     0.0000     0.0000     0.0000     0.0000     0.0000     0.0000     0.0000 </r>
        <r>   -42.6059     0.0000     0.0000     0.0000     0.0000     0.0000     0.0000     0.0000     0.0000     0.0000 </r>
        <r>   -42.4149     0.0000     0.0000     0.0000     0.0000     0.0000     0.0000     0.0000     0.0000     0.0000 </r>
        <r>   -42.2239     0.0000     0.0000     0.0000     0.0000     0.0000     0.0000     0.0000     0.0000     0.0000 </r>
        <r>   -42.0329     0.0000     0.0000     0.0000     0.0000     0.0000     0.0000     0.0000     0.0000     0.0000 </r>
        <r>   -41.8420     0.0000     0.0000     0.0000     0.0000     0.0000     0.0000     0.0000     0.0000     0.0000 </r>
        <r>   -41.6510     0.0000     0.0000     0.0000     0.0000     0.0000     0.0000     0.0000     0.0000     0.0000 </r>
        <r>   -41.4600     0.0000     0.0000     0.0000     0.0000     0.0000     0.0000     0.0000     0.0000     0.0000 </r>
        <r>   -41.2690     0.0000     0.0000     0.0000     0.0000     0.0000     0.0000     0.0000     0.0000     0.0000 </r>
        <r>   -41.0781     0.0000     0.0000     0.0000     0.0000     0.0000     0.0000     0.0000     0.0000     0.0000 </r>
        <r>   -40.8871     0.0000     0.0000     0.0000     0.0000     0.0000     0.0000     0.0000     0.0000     0.0000 </r>
        <r>   -40.6961     0.0000     0.0000     0.0000     0.0000     0.0000     0.0000     0.0000     0.0000     0.0000 </r>
        <r>   -40.5051     0.0000     0.0000     0.0000     0.0000     0.0000     0.0000     0.0000     0.0000     0.0000 </r>
        <r>   -40.3142     0.0000     0.0000     0.0000     0.0000     0.0000     0.0000     0.0000     0.0000     0.0000 </r>
        <r>   -40.1232     0.0000     0.0000     0.0000     0.0000     0.0000     0.0000     0.0000     0.0000     0.0000 </r>
        <r>   -39.9322     0.0000     0.0000     0.0000     0.0000     0.0000     0.0000     0.0000     0.0000     0.0000 </r>
        <r>   -39.7412     0.0000     0.0000     0.0000     0.0000     0.0000     0.0000     0.0000     0.0000     0.0000 </r>
        <r>   -39.5503     0.0000     0.0000     0.0000     0.0000     0.0000     0.0000     0.0000     0.0000     0.0000 </r>
        <r>   -39.3593     0.0000     0.0000     0.0000     0.0000     0.0000     0.0000     0.0000     0.0000     0.0000 </r>
        <r>   -39.1683     0.0000     0.0000     0.0000     0.0000     0.0000     0.0000     0.0000     0.0000     0.0000 </r>
        <r>   -38.9774     0.0000     0.0000     0.0000     0.0000     0.0000     0.0000     0.0000     0.0000     0.0000 </r>
        <r>   -38.7864     0.0000     0.0000     0.0000     0.0000     0.0000     0.0000     0.0000     0.0000     0.0000 </r>
        <r>   -38.5954     0.0000     0.0000     0.0000     0.0000     0.0000     0.0000     0.0000     0.0000     0.0000 </r>
        <r>   -38.4044     0.0000     0.0000     0.0000     0.0000     0.0000     0.0000     0.0000     0.0000     0.0000 </r>
        <r>   -38.2135     0.0000     0.0000     0.0000     0.0000     0.0000     0.0000     0.0000     0.0000     0.0000 </r>
        <r>   -38.0225     0.0000     0.0000     0.0000     0.0000     0.0000     0.0000     0.0000     0.0000     0.0000 </r>
        <r>   -37.8315     0.0000     0.0000     0.0000     0.0000     0.0000     0.0000     0.0000     0.0000     0.0000 </r>
        <r>   -37.6405     0.0000     0.0000     0.0000     0.0000     0.0000     0.0000     0.0000     0.0000     0.0000 </r>
        <r>   -37.4496     0.0000     0.0000     0.0000     0.0000     0.0000     0.0000     0.0000     0.0000     0.0000 </r>
        <r>   -37.2586     0.0000     0.0000     0.0000     0.0000     0.0000     0.0000     0.0000     0.0000     0.0000 </r>
        <r>   -37.0676     0.0000     0.0000     0.0000     0.0000     0.0000     0.0000     0.0000     0.0000     0.0000 </r>
        <r>   -36.8766     0.0000     0.0000     0.0000     0.0000     0.0000     0.0000     0.0000     0.0000     0.0000 </r>
        <r>   -36.6857     0.0000     0.0000     0.0000     0.0000     0.0000     0.0000     0.0000     0.0000     0.0000 </r>
        <r>   -36.4947     0.0000     0.0000     0.0000     0.0000     0.0000     0.0000     0.0000     0.0000     0.0000 </r>
        <r>   -36.3037     0.0000     0.0000     0.0000     0.0000     0.0000     0.0000     0.0000     0.0000     0.0000 </r>
        <r>   -36.1128     0.0000     0.0000     0.0000     0.0000     0.0000     0.0000     0.0000     0.0000     0.0000 </r>
        <r>   -35.9218     0.0000     0.0000     0.0000     0.0000     0.0000     0.0000     0.0000     0.0000     0.0000 </r>
        <r>   -35.7308     0.0000     0.0000     0.0000     0.0000     0.0000     0.0000     0.0000     0.0000     0.0000 </r>
        <r>   -35.5398     0.0000     0.0000     0.0000     0.0000     0.0000     0.0000     0.0000     0.0000     0.0000 </r>
        <r>   -35.3489     0.0000     0.0000     0.0000     0.0000     0.0000     0.0000     0.0000     0.0000     0.0000 </r>
        <r>   -35.1579     0.0000     0.0000     0.0000     0.0000     0.0000     0.0000     0.0000     0.0000     0.0000 </r>
        <r>   -34.9669     0.0000     0.0000     0.0000     0.0000     0.0000     0.0000     0.0000     0.0000     0.0000 </r>
        <r>   -34.7759     0.0000     0.0000     0.0000     0.0000     0.0000     0.0000     0.0000     0.0000     0.0000 </r>
        <r>   -34.5850     0.0000     0.0000     0.0000     0.0000     0.0000     0.0000     0.0000     0.0000     0.0000 </r>
        <r>   -34.3940     0.0000     0.0000     0.0000     0.0000     0.0000     0.0000     0.0000     0.0000     0.0000 </r>
        <r>   -34.2030     0.0000     0.0000     0.0000     0.0000     0.0000     0.0000     0.0000     0.0000     0.0000 </r>
        <r>   -34.0120     0.0000     0.0000     0.0000     0.0000     0.0000     0.0000     0.0000     0.0000     0.0000 </r>
        <r>   -33.8211     0.0000     0.0000     0.0000     0.0000     0.0000     0.0000     0.0000     0.0000     0.0000 </r>
        <r>   -33.6301     0.0000     0.0000     0.0000     0.0000     0.0000     0.0000     0.0000     0.0000     0.0000 </r>
        <r>   -33.4391     0.0000     0.0000     0.0000     0.0000     0.0000     0.0000     0.0000     0.0000     0.0000 </r>
        <r>   -33.2481     0.0000     0.0000     0.0000     0.0000     0.0000     0.0000     0.0000     0.0000     0.0000 </r>
        <r>   -33.0572     0.0000     0.0000     0.0000     0.0000     0.0000     0.0000     0.0000     0.0000     0.0000 </r>
        <r>   -32.8662     0.0000     0.0000     0.0000     0.0000     0.0000     0.0000     0.0000     0.0000     0.0000 </r>
        <r>   -32.6752     0.0000     0.0000     0.0000     0.0000     0.0000     0.0000     0.0000     0.0000     0.0000 </r>
        <r>   -32.4843     0.0000     0.0000     0.0000     0.0000     0.0000     0.0000     0.0000     0.0000     0.0000 </r>
        <r>   -32.2933     0.0000     0.0000     0.0000     0.0000     0.0000     0.0000     0.0000     0.0000     0.0000 </r>
        <r>   -32.1023     0.0000     0.0000     0.0000     0.0000     0.0000     0.0000     0.0000     0.0000     0.0000 </r>
        <r>   -31.9113     0.0000     0.0000     0.0000     0.0000     0.0000     0.0000     0.0000     0.0000     0.0000 </r>
        <r>   -31.7204     0.0000     0.0000     0.0000     0.0000     0.0000     0.0000     0.0000     0.0000     0.0000 </r>
        <r>   -31.5294     0.0000     0.0000     0.0000     0.0000     0.0000     0.0000     0.0000     0.0000     0.0000 </r>
        <r>   -31.3384     0.0000     0.0000     0.0000     0.0000     0.0000     0.0000     0.0000     0.0000     0.0000 </r>
        <r>   -31.1474     0.0000     0.0000     0.0000     0.0000     0.0000     0.0000     0.0000     0.0000     0.0000 </r>
        <r>   -30.9565     0.0000     0.0000     0.0000     0.0000     0.0000     0.0000     0.0000     0.0000     0.0000 </r>
        <r>   -30.7655     0.0000     0.0000     0.0000     0.0000     0.0000     0.0000     0.0000     0.0000     0.0000 </r>
        <r>   -30.5745     0.0000     0.0000     0.0000     0.0000     0.0000     0.0000     0.0000     0.0000     0.0000 </r>
        <r>   -30.3835     0.0000     0.0000     0.0000     0.0000     0.0000     0.0000     0.0000     0.0000     0.0000 </r>
        <r>   -30.1926     0.0000     0.0000     0.0000     0.0000     0.0000     0.0000     0.0000     0.0000     0.0000 </r>
        <r>   -30.0016     0.0000     0.0000     0.0000     0.0000     0.0000     0.0000     0.0000     0.0000     0.0000 </r>
        <r>   -29.8106     0.0000     0.0000     0.0000     0.0000     0.0000     0.0000     0.0000     0.0000     0.0000 </r>
        <r>   -29.6197     0.0000     0.0000     0.0000     0.0000     0.0000     0.0000     0.0000     0.0000     0.0000 </r>
        <r>   -29.4287     0.0000     0.0000     0.0000     0.0000     0.0000     0.0000     0.0000     0.0000     0.0000 </r>
        <r>   -29.2377     0.0000     0.0000     0.0000     0.0000     0.0000     0.0000     0.0000     0.0000     0.0000 </r>
        <r>   -29.0467     0.0000     0.0000     0.0000     0.0000     0.0000     0.0000     0.0000     0.0000     0.0000 </r>
        <r>   -28.8558     0.0000     0.0000     0.0000     0.0000     0.0000     0.0000     0.0000     0.0000     0.0000 </r>
        <r>   -28.6648     0.0000     0.0000     0.0000     0.0000     0.0000     0.0000     0.0000     0.0000     0.0000 </r>
        <r>   -28.4738     0.0000     0.0000     0.0000     0.0000     0.0000     0.0000     0.0000     0.0000     0.0000 </r>
        <r>   -28.2828     0.0000     0.0000     0.0000     0.0000     0.0000     0.0000     0.0000     0.0000     0.0000 </r>
        <r>   -28.0919     0.0000     0.0000     0.0000     0.0000     0.0000     0.0000     0.0000     0.0000     0.0000 </r>
        <r>   -27.9009     0.0000     0.0055     0.0055     0.0055     0.0000     0.0000     0.0000     0.0000     0.0000 </r>
        <r>   -27.7099     0.0000     4.9979     4.9979     4.9979     0.0000     0.0000     0.0000     0.0000     0.0000 </r>
        <r>   -27.5189     0.0000     0.0495     0.0495     0.0495     0.0000     0.0000     0.0000     0.0000     0.0000 </r>
        <r>   -27.3280     0.0000     0.0000     0.0000     0.0000     0.0000     0.0000     0.0000     0.0000     0.0000 </r>
        <r>   -27.1370     0.0000     0.0000     0.0000     0.0000     0.0000     0.0000     0.0000     0.0000     0.0000 </r>
        <r>   -26.9460     0.0000     0.0000     0.0000     0.0000     0.0000     0.0000     0.0000     0.0000     0.0000 </r>
        <r>   -26.7550     0.0000     0.0000     0.0000     0.0000     0.0000     0.0000     0.0000     0.0000     0.0000 </r>
        <r>   -26.5641     0.0000     0.0000     0.0000     0.0000     0.0000     0.0000     0.0000     0.0000     0.0000 </r>
        <r>   -26.3731     0.0000     0.0000     0.0000     0.0000     0.0000     0.0000     0.0000     0.0000     0.0000 </r>
        <r>   -26.1821     0.0000     0.0000     0.0000     0.0000     0.0000     0.0000     0.0000     0.0000     0.0000 </r>
        <r>   -25.9912     0.0000     0.0000     0.0000     0.0000     0.0000     0.0000     0.0000     0.0000     0.0000 </r>
        <r>   -25.8002     0.0000     0.0000     0.0000     0.0000     0.0000     0.0000     0.0000     0.0000     0.0000 </r>
        <r>   -25.6092     0.0000     0.0000     0.0000     0.0000     0.0000     0.0000     0.0000     0.0000     0.0000 </r>
        <r>   -25.4182     0.0000     0.0000     0.0000     0.0000     0.0000     0.0000     0.0000     0.0000     0.0000 </r>
        <r>   -25.2273     0.0000     0.0000     0.0000     0.0000     0.0000     0.0000     0.0000     0.0000     0.0000 </r>
        <r>   -25.0363     0.0000     0.0000     0.0000     0.0000     0.0000     0.0000     0.0000     0.0000     0.0000 </r>
        <r>   -24.8453     0.0000     0.0000     0.0000     0.0000     0.0000     0.0000     0.0000     0.0000     0.0000 </r>
        <r>   -24.6543     0.0000     0.0000     0.0000     0.0000     0.0000     0.0000     0.0000     0.0000     0.0000 </r>
        <r>   -24.4634     0.0000     0.0000     0.0000     0.0000     0.0000     0.0000     0.0000     0.0000     0.0000 </r>
        <r>   -24.2724     0.0000     0.0000     0.0000     0.0000     0.0000     0.0000     0.0000     0.0000     0.0000 </r>
        <r>   -24.0814     0.0000     0.0000     0.0000     0.0000     0.0000     0.0000     0.0000     0.0000     0.0000 </r>
        <r>   -23.8904     0.0000     0.0000     0.0000     0.0000     0.0000     0.0000     0.0000     0.0000     0.0000 </r>
        <r>   -23.6995     0.0000     0.0000     0.0000     0.0000     0.0000     0.0000     0.0000     0.0000     0.0000 </r>
        <r>   -23.5085     0.0000     0.0000     0.0000     0.0000     0.0000     0.0000     0.0000     0.0000     0.0000 </r>
        <r>   -23.3175     0.0000     0.0000     0.0000     0.0000     0.0000     0.0000     0.0000     0.0000     0.0000 </r>
        <r>   -23.1266     0.0000     0.0000     0.0000     0.0000     0.0000     0.0000     0.0000     0.0000     0.0000 </r>
        <r>   -22.9356     0.0000     0.0000     0.0000     0.0000     0.0000     0.0000     0.0000     0.0000     0.0000 </r>
        <r>   -22.7446     0.0000     0.0000     0.0000     0.0000     0.0000     0.0000     0.0000     0.0000     0.0000 </r>
        <r>   -22.5536     0.0000     0.0000     0.0000     0.0000     0.0000     0.0000     0.0000     0.0000     0.0000 </r>
        <r>   -22.3627     0.0000     0.0000     0.0000     0.0000     0.0000     0.0000     0.0000     0.0000     0.0000 </r>
        <r>   -22.1717     0.0000     0.0000     0.0000     0.0000     0.0000     0.0000     0.0000     0.0000     0.0000 </r>
        <r>   -21.9807     0.0000     0.0000     0.0000     0.0000     0.0000     0.0000     0.0000     0.0000     0.0000 </r>
        <r>   -21.7897     0.0000     0.0000     0.0000     0.0000     0.0000     0.0000     0.0000     0.0000     0.0000 </r>
        <r>   -21.5988     0.0000     0.0000     0.0000     0.0000     0.0000     0.0000     0.0000     0.0000     0.0000 </r>
        <r>   -21.4078     0.0000     0.0000     0.0000     0.0000     0.0000     0.0000     0.0000     0.0000     0.0000 </r>
        <r>   -21.2168     0.0000     0.0000     0.0000     0.0000     0.0000     0.0000     0.0000     0.0000     0.0000 </r>
        <r>   -21.0258     0.0000     0.0000     0.0000     0.0000     0.0000     0.0000     0.0000     0.0000     0.0000 </r>
        <r>   -20.8349     0.0000     0.0000     0.0000     0.0000     0.0000     0.0000     0.0000     0.0000     0.0000 </r>
        <r>   -20.6439     0.0000     0.0000     0.0000     0.0000     0.0000     0.0000     0.0000     0.0000     0.0000 </r>
        <r>   -20.4529     0.0000     0.0000     0.0000     0.0000     0.0000     0.0000     0.0000     0.0000     0.0000 </r>
        <r>   -20.2619     0.0000     0.0000     0.0000     0.0000     0.0000     0.0000     0.0000     0.0000     0.0000 </r>
        <r>   -20.0710     0.0000     0.0000     0.0000     0.0000     0.0000     0.0000     0.0000     0.0000     0.0000 </r>
        <r>   -19.8800     0.0000     0.0000     0.0000     0.0000     0.0000     0.0000     0.0000     0.0000     0.0000 </r>
        <r>   -19.6890     0.0000     0.0000     0.0000     0.0000     0.0000     0.0000     0.0000     0.0000     0.0000 </r>
        <r>   -19.4981     0.0000     0.0000     0.0000     0.0000     0.0000     0.0000     0.0000     0.0000     0.0000 </r>
        <r>   -19.3071     0.0000     0.0000     0.0000     0.0000     0.0000     0.0000     0.0000     0.0000     0.0000 </r>
        <r>   -19.1161     0.0000     0.0000     0.0000     0.0000     0.0000     0.0000     0.0000     0.0000     0.0000 </r>
        <r>   -18.9251     0.0000     0.0000     0.0000     0.0000     0.0000     0.0000     0.0000     0.0000     0.0000 </r>
        <r>   -18.7342     0.0000     0.0000     0.0000     0.0000     0.0000     0.0000     0.0000     0.0000     0.0000 </r>
        <r>   -18.5432     0.0000     0.0000     0.0000     0.0000     0.0000     0.0000     0.0000     0.0000     0.0000 </r>
        <r>   -18.3522     0.0000     0.0000     0.0000     0.0000     0.0000     0.0000     0.0000     0.0000     0.0000 </r>
        <r>   -18.1612     0.0000     0.0000     0.0000     0.0000     0.0000     0.0000     0.0000     0.0000     0.0000 </r>
        <r>   -17.9703     0.0000     0.0000     0.0000     0.0000     0.0000     0.0000     0.0000     0.0000     0.0000 </r>
        <r>   -17.7793     0.0000     0.0000     0.0000     0.0000     0.0000     0.0000     0.0000     0.0000     0.0000 </r>
        <r>   -17.5883     0.0000     0.0000     0.0000     0.0000     0.0000     0.0000     0.0000     0.0000     0.0000 </r>
        <r>   -17.3973     0.0000     0.0000     0.0000     0.0000     0.0000     0.0000     0.0000     0.0000     0.0000 </r>
        <r>   -17.2064     0.0000     0.0000     0.0000     0.0000     0.0000     0.0000     0.0000     0.0000     0.0000 </r>
        <r>   -17.0154     0.0000     0.0000     0.0000     0.0000     0.0000     0.0000     0.0000     0.0000     0.0000 </r>
        <r>   -16.8244     0.0000     0.0000     0.0000     0.0000     0.0000     0.0000     0.0000     0.0000     0.0000 </r>
        <r>   -16.6335     0.0000     0.0000     0.0000     0.0000     0.0000     0.0000     0.0000     0.0000     0.0000 </r>
        <r>   -16.4425     0.0000     0.0000     0.0000     0.0000     0.0000     0.0000     0.0000     0.0000     0.0000 </r>
        <r>   -16.2515     0.0000     0.0000     0.0000     0.0000     0.0000     0.0000     0.0000     0.0000     0.0000 </r>
        <r>   -16.0605     0.0000     0.0000     0.0000     0.0000     0.0000     0.0000     0.0000     0.0000     0.0000 </r>
        <r>   -15.8696     0.0000     0.0000     0.0000     0.0000     0.0000     0.0000     0.0000     0.0000     0.0000 </r>
        <r>   -15.6786     0.0000     0.0000     0.0000     0.0000     0.0000     0.0000     0.0000     0.0000     0.0000 </r>
        <r>   -15.4876     0.0000     0.0000     0.0000     0.0000     0.0000     0.0000     0.0000     0.0000     0.0000 </r>
        <r>   -15.2966     0.0000     0.0000     0.0000     0.0000     0.0000     0.0000     0.0000     0.0000     0.0000 </r>
        <r>   -15.1057     0.0000     0.0000     0.0000     0.0000     0.0000     0.0000     0.0000     0.0000     0.0000 </r>
        <r>   -14.9147     0.0000     0.0000     0.0000     0.0000     0.0000     0.0000     0.0000     0.0000     0.0000 </r>
        <r>   -14.7237     0.0000     0.0000     0.0000     0.0000     0.0000     0.0000     0.0000     0.0000     0.0000 </r>
        <r>   -14.5327     0.0000     0.0000     0.0000     0.0000     0.0000     0.0000     0.0000     0.0000     0.0000 </r>
        <r>   -14.3418     0.0000     0.0000     0.0000     0.0000     0.0000     0.0000     0.0000     0.0000     0.0000 </r>
        <r>   -14.1508     0.0000     0.0000     0.0000     0.0000     0.0000     0.0000     0.0000     0.0000     0.0000 </r>
[...]
        <r>    -0.7826     0.0000     0.0025     0.0023     0.0023     0.0000     0.0001     0.0000     0.0001     0.0000 </r>
        <r>    -0.5917     0.0000     0.0000     0.0000     0.0000     0.0000     0.0000     0.0000     0.0000     0.0000 </r>
        <r>    -0.4007     0.0000     0.0000     0.0000     0.0000     0.0000     0.0000     0.0000     0.0000     0.0000 </r>
        <r>    -0.2097     0.0652     0.0000     0.0000     0.0000     0.0000     0.0000     0.0000     0.0000     0.0000 </r>
        <r>    -0.0188     0.0502     0.0000     0.0000     0.0000     0.0000     0.0000     0.0000     0.0000     0.0000 </r>
        <r>     0.1722     0.0000     0.0000     0.0000     0.0000     0.0000     0.0000     0.0000     0.0000     0.0000 </r>
        <r>     0.3632     0.0000     0.0000     0.0000     0.0000     0.0000     0.0000     0.0000     0.0000     0.0000 </r>
        <r>     0.5542     0.0000     0.0000     0.0000     0.0000     0.0000     0.0000     0.0000     0.0000     0.0000 </r>
        <r>     0.7451     0.0000     0.0000     0.0000     0.0000     0.0001     0.0000     0.3454     0.0000     0.3389 </r>
        <r>     0.9361     0.0000     0.0000     0.0000     0.0000     0.0000     0.0000     0.0166     0.0000     0.0162 </r>
        <r>     1.1271     0.0000     0.0000     0.0000     0.0000     0.0000     0.0000     0.0000     0.0000     0.0000 </r>
        <r>     1.3181     0.0000     0.0000     0.0000     0.0000     0.0000     0.0000     0.0000     0.0000     0.0000 </r>
        <r>     1.5090     0.0017     0.0486     0.0500     0.0457     0.0062     0.0107     0.0001     0.0142     0.0004 </r>
        <r>     1.7000     0.0010     0.0174     0.0124     0.0147     0.0035     0.0050     0.0000     0.0107     0.0001 </r>
        <r>     1.8910     0.1060     0.0017     0.0021     0.0041     0.4487     0.4607     0.0003     0.4533     0.0000 </r>
        <r>     2.0820     0.0004     0.0001     0.0001     0.0002     0.0366     0.0301     0.0005     0.0297     0.0004 </r>
        <r>     2.2729     0.0002     0.0002     0.0003     0.0006     0.0035     0.0033     0.0788     0.0065     0.0832 </r>
        <r>     2.4639     0.0000     0.0000     0.0000     0.0001     0.0003     0.0005     0.0399     0.0011     0.0362 </r>
        <r>     2.6549     0.0000     0.0000     0.0000     0.0000     0.0000     0.0000     0.0000     0.0000     0.0000 </r>
        <r>     2.8459     0.0000     0.0000     0.0000     0.0000     0.0000     0.0000     0.0000     0.0000     0.0000 </r>
        <r>     3.0368     0.0000     0.0000     0.0000     0.0000     0.0000     0.0000     0.0000     0.0000     0.0000 </r>
        <r>     3.2278     0.0000     0.0000     0.0000     0.0000     0.0000     0.0000     0.0000     0.0000     0.0000 </r>
        <r>     3.4188     0.0087     0.0003     0.0125     0.0046     0.0023     0.0003     0.0043     0.0025     0.0007 </r>
        <r>     3.6097     0.0091     0.0167     0.0288     0.0218     0.1326     0.1361     0.0144     0.1366     0.0007 </r>
        <r>     3.8007     0.0543     0.0018     0.0005     0.0010     0.0118     0.0211     0.0004     0.0127     0.0001 </r>
        <r>     3.9917     0.0084     0.0002     0.0000     0.0001     0.0003     0.0000     0.0000     0.0000     0.0000 </r>
        <r>     4.1827     0.0000     0.0000     0.0000     0.0000     0.0000     0.0000     0.0000     0.0000     0.0000 </r>
        <r>     4.3736     0.0383     0.0032     0.0015     0.0066     0.0013     0.0000     0.0081     0.0009     0.2901 </r>
        <r>     4.5646     0.0181     0.0022     0.0010     0.0018     0.0002     0.0000     0.0048     0.0004     0.0562 </r>
        <r>     4.7556     0.0000     0.0000     0.0000     0.0000     0.0000     0.0000     0.0000     0.0000     0.0000 </r>
        <r>     4.9466     0.0000     0.0000     0.0000     0.0000     0.0000     0.0000     0.0000     0.0000     0.0000 </r>
        <r>     5.1375     0.0000     0.0000     0.0000     0.0000     0.0000     0.0000     0.0000     0.0000     0.0000 </r>
        <r>     5.3285     0.0000     0.0000     0.0000     0.0000     0.0000     0.0000     0.0000     0.0000     0.0000 </r>
        <r>     5.5195     0.0000     0.0000     0.0000     0.0000     0.0000     0.0000     0.0000     0.0000     0.0000 </r>
        <r>     5.7105     0.0000     0.0000     0.0000     0.0000     0.0000     0.0000     0.0000     0.0000     0.0000 </r>
        <r>     5.9014     0.0000     0.0000     0.0000     0.0000     0.0000     0.0000     0.0000     0.0000     0.0000 </r>
        <r>     6.0924     0.0000     0.0000     0.0000     0.0000     0.0000     0.0000     0.0000     0.0000     0.0000 </r>
        <r>     6.2834     0.0000     0.0000     0.0000     0.0000     0.0000     0.0000     0.0000     0.0000     0.0000 </r>
        <r>     6.4743     0.0000     0.0000     0.0000     0.0000     0.0000     0.0000     0.0000     0.0000     0.0000 </r>
        <r>     6.6653     0.0000     0.0000     0.0000     0.0000     0.0000     0.0000     0.0000     0.0000     0.0000 </r>
        <r>     6.8563     0.0000     0.0000     0.0000     0.0000     0.0000     0.0000     0.0000     0.0000     0.0000 </r>
        <r>     7.0473     0.0000     0.0000     0.0000     0.0000     0.0000     0.0000     0.0000     0.0000     0.0000 </r>
        <r>     7.2382     0.0000     0.0000     0.0000     0.0000     0.0000     0.0000     0.0000     0.0000     0.0000 </r>
        <r>     7.4292     0.0000     0.0000     0.0000     0.0000     0.0000     0.0000     0.0000     0.0000     0.0000 </r>
        <r>     7.6202     0.0000     0.0000     0.0000     0.0000     0.0000     0.0000     0.0000     0.0000     0.0000 </r>
        <r>     7.8112     0.0000     0.0000     0.0000     0.0000     0.0000     0.0000     0.0000     0.0000     0.0000 </r>
       </set>
      </set>
     </set>
    </array>
   </partial>
  </dos>
  <projected>
   <eigenvalues>
    <array>
     <dimension dim="1">band</dimension>
     <dimension dim="2">kpoint</dimension>
     <dimension dim="3">spin</dimension>
     <field>eigene</field>
     <field>occ</field>
     <set>
      <set comment="spin 1">
       <set comment="kpoint 1">
        <r>  -46.8767    1.0000 </r>
        <r>  -27.7924    1.0000 </r>
        <r>  -27.7924    1.0000 </r>
        <r>  -27.7924    1.0000 </r>
        <r>   -3.5269    1.0000 </r>
        <r>   -1.7280    0.0000 </r>
        <r>   -1.7204    0.0000 </r>
        <r>   -1.7180    0.0000 </r>
        <r>   -1.7133    0.0000 </r>
        <r>   -1.7121    0.0000 </r>
        <r>   -1.0532    0.0000 </r>
        <r>   -1.0532    0.0000 </r>
        <r>   -1.0494    0.0000 </r>
        <r>   -0.2150    0.0000 </r>
        <r>    0.6857    0.0000 </r>
        <r>    0.6858    0.0000 </r>
        <r>    1.4826    0.0000 </r>
        <r>    1.5597    0.0000 </r>
        <r>    1.6376    0.0000 </r>
        <r>    1.7388    0.0000 </r>
        <r>    1.7756    0.0000 </r>
        <r>    1.7833    0.0000 </r>
        <r>    1.8371    0.0000 </r>
        <r>    2.0922    0.0000 </r>
        <r>    2.1209    0.0000 </r>
        <r>    2.1379    0.0000 </r>
        <r>    2.2965    0.0000 </r>
        <r>    2.2986    0.0000 </r>
        <r>    3.4609    0.0000 </r>
        <r>    3.4733    0.0000 </r>
        <r>    3.5458    0.0000 </r>
        <r>    3.5752    0.0000 </r>
        <r>    3.5768    0.0000 </r>
        <r>    3.7173    0.0000 </r>
        <r>    4.4259    0.0000 </r>
        <r>    5.2070    0.0000 </r>
       </set>
      </set>
      <set comment="spin 2">
       <set comment="kpoint 1">
        <r>  -46.8764    1.0000 </r>
        <r>  -27.7922    1.0000 </r>
        <r>  -27.7922    1.0000 </r>
        <r>  -27.7922    1.0000 </r>
        <r>   -3.5268    1.0000 </r>
        <r>   -1.7245    0.0000 </r>
        <r>   -1.7230    0.0000 </r>
        <r>   -1.7159    0.0000 </r>
        <r>   -1.7148    0.0000 </r>
        <r>   -1.7113    0.0000 </r>
        <r>   -1.0538    0.0000 </r>
        <r>   -1.0536    0.0000 </r>
        <r>   -1.0524    0.0000 </r>
        <r>   -0.2155    0.0000 </r>
        <r>    0.6853    0.0000 </r>
        <r>    0.6856    0.0000 </r>
        <r>    1.4655    0.0000 </r>
        <r>    1.4764    0.0000 </r>
        <r>    1.5031    0.0000 </r>
        <r>    1.7883    0.0000 </r>
        <r>    1.8280    0.0000 </r>
        <r>    1.8394    0.0000 </r>
        <r>    1.8434    0.0000 </r>
        <r>    2.1365    0.0000 </r>
        <r>    2.1549    0.0000 </r>
        <r>    2.1590    0.0000 </r>
        <r>    2.2624    0.0000 </r>
        <r>    2.2652    0.0000 </r>
        <r>    3.3978    0.0000 </r>
        <r>    3.5325    0.0000 </r>
        <r>    3.5575    0.0000 </r>
        <r>    3.5613    0.0000 </r>
        <r>    3.5712    0.0000 </r>
        <r>    3.7617    0.0000 </r>
        <r>    4.3332    0.0000 </r>
        <r>    4.3656    0.0000 </r>
       </set>
      </set>
     </set>
    </array>
   </eigenvalues>
   <array>
    <dimension dim="1">ion</dimension>
    <dimension dim="2">band</dimension>
    <dimension dim="3">kpoint</dimension>
    <dimension dim="4">spin</dimension>
    <field>    s</field>
    <field>   py</field>
    <field>   pz</field>
    <field>   px</field>
    <field>  dxy</field>
    <field>  dyz</field>
    <field>  dz2</field>
    <field>  dxz</field>
    <field>x2-y2</field>
    <set>
     <set comment="spin1">
      <set comment="kpoint 1">
       <set comment="band 1">
        <r>  0.9873  0.0000  0.0000  0.0000  0.0000  0.0000  0.0000  0.0000  0.0000 </r>
       </set>
       <set comment="band 2">
        <r>  0.0000  0.7788  0.1231  0.0630  0.0000  0.0000  0.0000  0.0000  0.0000 </r>
       </set>
       <set comment="band 3">
        <r>  0.0000  0.1859  0.5470  0.2321  0.0000  0.0000  0.0000  0.0000  0.0000 </r>
       </set>
       <set comment="band 4">
        <r>  0.0000  0.0003  0.2948  0.6698  0.0000  0.0000  0.0000  0.0000  0.0000 </r>
       </set>
       <set comment="band 5">
        <r>  0.1049  0.0000  0.0000  0.0000  0.0000  0.0000  0.0000  0.0000  0.0000 </r>
       </set>
       <set comment="band 6">
        <r>  0.0000  0.0000  0.0000  0.0000  0.0010  0.0211  0.1070  0.0025  0.4798 </r>
       </set>
       <set comment="band 7">
        <r>  0.0000  0.0000  0.0001  0.0000  0.1379  0.0545  0.2610  0.0790  0.0818 </r>
       </set>
       <set comment="band 8">
        <r>  0.0000  0.0000  0.0000  0.0000  0.1970  0.1819  0.2196  0.0029  0.0142 </r>
       </set>
       <set comment="band 9">
        <r>  0.0000  0.0000  0.0000  0.0000  0.0557  0.0012  0.0179  0.5292  0.0176 </r>
       </set>
       <set comment="band 10">
        <r>  0.0000  0.0000  0.0001  0.0000  0.2291  0.3622  0.0021  0.0086  0.0171 </r>
       </set>
       <set comment="band 11">
        <r>  0.0000  0.0226  0.0115  0.0037  0.0001  0.0001  0.0000  0.0002  0.0000 </r>
       </set>
       <set comment="band 12">
        <r>  0.0000  0.0000  0.0097  0.0279  0.0000  0.0002  0.0002  0.0000  0.0004 </r>
       </set>
       <set comment="band 13">
        <r>  0.0000  0.0146  0.0157  0.0059  0.0003  0.0001  0.0008  0.0003  0.0002 </r>
       </set>
       <set comment="band 14">
        <r>  0.0225  0.0000  0.0000  0.0000  0.0000  0.0000  0.0000  0.0000  0.0000 </r>
       </set>
       <set comment="band 15">
        <r>  0.0000  0.0000  0.0000  0.0000  0.0000  0.0000  0.0663  0.0000  0.0004 </r>
       </set>
       <set comment="band 16">
        <r>  0.0000  0.0000  0.0000  0.0000  0.0000  0.0000  0.0005  0.0000  0.0649 </r>
       </set>
       <set comment="band 17">
        <r>  0.0000  0.0006  0.0046  0.0066  0.0015  0.0012  0.0000  0.0002  0.0000 </r>
       </set>
       <set comment="band 18">
        <r>  0.0010  0.0054  0.0037  0.0003  0.0000  0.0148  0.0000  0.0026  0.0000 </r>
       </set>
       <set comment="band 19">
        <r>  0.0015  0.0033  0.0018  0.0027  0.0045  0.0029  0.0000  0.0227  0.0000 </r>
       </set>
       <set comment="band 20">
        <r>  0.0000  0.0024  0.0012  0.0005  0.0389  0.0000  0.0000  0.0281  0.0000 </r>
       </set>
       <set comment="band 21">
        <r>  0.0006  0.0008  0.0014  0.0009  0.0001  0.0617  0.0000  0.0008  0.0000 </r>
       </set>
       <set comment="band 22">
        <r>  0.0183  0.0000  0.0005  0.0001  0.0005  0.0082  0.0000  0.0006  0.0000 </r>
       </set>
       <set comment="band 23">
        <r>  0.0000  0.0004  0.0000  0.0002  0.0488  0.0006  0.0000  0.0386  0.0000 </r>
       </set>
       <set comment="band 24">
        <r>  0.0000  0.0001  0.0004  0.0010  0.0001  0.0011  0.0002  0.0000  0.0000 </r>
       </set>
       <set comment="band 25">
        <r>  0.0000  0.0000  0.0000  0.0001  0.0003  0.0004  0.0001  0.0001  0.0002 </r>
       </set>
       <set comment="band 26">
        <r>  0.0000  0.0001  0.0000  0.0000  0.0000  0.0018  0.0004  0.0003  0.0000 </r>
       </set>
       <set comment="band 27">
        <r>  0.0000  0.0000  0.0001  0.0000  0.0000  0.0000  0.0216  0.0000  0.0001 </r>
       </set>
       <set comment="band 28">
        <r>  0.0000  0.0001  0.0000  0.0000  0.0000  0.0001  0.0002  0.0000  0.0213 </r>
       </set>
       <set comment="band 29">
        <r>  0.0014  0.0001  0.0003  0.0064  0.0000  0.0000  0.0001  0.0006  0.0002 </r>
       </set>
       <set comment="band 30">
        <r>  0.0058  0.0050  0.0006  0.0015  0.0000  0.0002  0.0005  0.0002  0.0005 </r>
       </set>
       <set comment="band 31">
        <r>  0.0004  0.0003  0.0001  0.0000  0.0027  0.0077  0.0000  0.0188  0.0000 </r>
       </set>
       <set comment="band 32">
        <r>  0.0000  0.0000  0.0000  0.0000  0.0260  0.0029  0.0000  0.0004  0.0000 </r>
       </set>
       <set comment="band 33">
        <r>  0.0003  0.0000  0.0003  0.0000  0.0011  0.0186  0.0000  0.0081  0.0000 </r>
       </set>
       <set comment="band 34">
        <r>  0.0100  0.0000  0.0000  0.0027  0.0000  0.0003  0.0001  0.0003  0.0000 </r>
       </set>
       <set comment="band 35">
        <r>  0.0002  0.0002  0.0066  0.0026  0.0011  0.0000  0.0223  0.0000  0.0305 </r>
       </set>
       <set comment="band 36">
        <r>  0.0061  0.0017  0.0005  0.0004  0.0040  0.0002  0.0026  0.0042  0.0070 </r>
       </set>
      </set>
     </set>
     <set comment="spin2">
      <set comment="kpoint 1">
       <set comment="band 1">
        <r>  0.9873  0.0000  0.0000  0.0000  0.0000  0.0000  0.0000  0.0000  0.0000 </r>
       </set>
       <set comment="band 2">
        <r>  0.0000  0.3817  0.1378  0.4454  0.0000  0.0000  0.0000  0.0000  0.0000 </r>
       </set>
       <set comment="band 3">
        <r>  0.0000  0.5812  0.0621  0.3217  0.0000  0.0000  0.0000  0.0000  0.0000 </r>
       </set>
       <set comment="band 4">
        <r>  0.0000  0.0020  0.7651  0.1979  0.0000  0.0000  0.0000  0.0000  0.0000 </r>
       </set>
       <set comment="band 5">
        <r>  0.1046  0.0000  0.0000  0.0000  0.0000  0.0000  0.0000  0.0000  0.0000 </r>
       </set>
       <set comment="band 6">
        <r>  0.0000  0.0000  0.0000  0.0000  0.1213  0.0015  0.4404  0.0268  0.0194 </r>
       </set>
       <set comment="band 7">
        <r>  0.0000  0.0000  0.0000  0.0000  0.0512  0.1124  0.0001  0.0368  0.4108 </r>
       </set>
       <set comment="band 8">
        <r>  0.0000  0.0000  0.0000  0.0000  0.3792  0.0354  0.0943  0.0430  0.0639 </r>
       </set>
       <set comment="band 9">
        <r>  0.0000  0.0000  0.0000  0.0000  0.0144  0.1438  0.0153  0.3353  0.1048 </r>
       </set>
       <set comment="band 10">
        <r>  0.0000  0.0000  0.0001  0.0000  0.0543  0.3231  0.0543  0.1745  0.0075 </r>
       </set>
       <set comment="band 11">
        <r>  0.0000  0.0009  0.0334  0.0035  0.0000  0.0002  0.0000  0.0002  0.0002 </r>
       </set>
       <set comment="band 12">
        <r>  0.0000  0.0017  0.0026  0.0333  0.0002  0.0003  0.0000  0.0006  0.0000 </r>
       </set>
       <set comment="band 13">
        <r>  0.0000  0.0345  0.0015  0.0010  0.0000  0.0007  0.0003  0.0004  0.0001 </r>
       </set>
       <set comment="band 14">
        <r>  0.0220  0.0000  0.0000  0.0000  0.0000  0.0000  0.0000  0.0000  0.0000 </r>
       </set>
       <set comment="band 15">
        <r>  0.0000  0.0000  0.0000  0.0000  0.0000  0.0000  0.0166  0.0000  0.0518 </r>
       </set>
       <set comment="band 16">
        <r>  0.0000  0.0000  0.0000  0.0000  0.0000  0.0000  0.0525  0.0000  0.0160 </r>
       </set>
       <set comment="band 17">
        <r>  0.0000  0.0008  0.0084  0.0030  0.0001  0.0000  0.0000  0.0001  0.0000 </r>
       </set>
       <set comment="band 18">
        <r>  0.0004  0.0073  0.0002  0.0048  0.0005  0.0013  0.0000  0.0000  0.0001 </r>
       </set>
       <set comment="band 19">
        <r>  0.0000  0.0045  0.0033  0.0038  0.0013  0.0016  0.0000  0.0047  0.0000 </r>
       </set>
       <set comment="band 20">
        <r>  0.0199  0.0001  0.0000  0.0001  0.0025  0.0000  0.0000  0.0006  0.0000 </r>
       </set>
       <set comment="band 21">
        <r>  0.0002  0.0001  0.0003  0.0003  0.0033  0.0422  0.0001  0.0451  0.0000 </r>
       </set>
       <set comment="band 22">
        <r>  0.0003  0.0000  0.0001  0.0004  0.0542  0.0257  0.0000  0.0103  0.0000 </r>
       </set>
       <set comment="band 23">
        <r>  0.0001  0.0001  0.0000  0.0001  0.0326  0.0258  0.0000  0.0363  0.0000 </r>
       </set>
       <set comment="band 24">
        <r>  0.0000  0.0000  0.0000  0.0000  0.0003  0.0003  0.0003  0.0000  0.0001 </r>
       </set>
       <set comment="band 25">
        <r>  0.0000  0.0000  0.0000  0.0000  0.0003  0.0000  0.0038  0.0005  0.0004 </r>
       </set>
       <set comment="band 26">
        <r>  0.0000  0.0000  0.0000  0.0001  0.0000  0.0002  0.0001  0.0004  0.0044 </r>
       </set>
       <set comment="band 27">
        <r>  0.0000  0.0000  0.0000  0.0000  0.0001  0.0002  0.0016  0.0000  0.0168 </r>
       </set>
       <set comment="band 28">
        <r>  0.0000  0.0000  0.0000  0.0000  0.0001  0.0000  0.0169  0.0005  0.0012 </r>
       </set>
       <set comment="band 29">
        <r>  0.0023  0.0001  0.0033  0.0012  0.0006  0.0001  0.0011  0.0007  0.0002 </r>
       </set>
       <set comment="band 30">
        <r>  0.0010  0.0027  0.0045  0.0039  0.0006  0.0002  0.0025  0.0000  0.0000 </r>
       </set>
       <set comment="band 31">
        <r>  0.0001  0.0002  0.0001  0.0000  0.0251  0.0009  0.0000  0.0006  0.0000 </r>
       </set>
       <set comment="band 32">
        <r>  0.0000  0.0001  0.0000  0.0000  0.0001  0.0002  0.0000  0.0276  0.0000 </r>
       </set>
       <set comment="band 33">
        <r>  0.0000  0.0003  0.0000  0.0000  0.0013  0.0286  0.0000  0.0001  0.0001 </r>
       </set>
       <set comment="band 34">
        <r>  0.0119  0.0003  0.0000  0.0001  0.0004  0.0000  0.0000  0.0000  0.0000 </r>
       </set>
       <set comment="band 35">
        <r>  0.0034  0.0000  0.0000  0.0011  0.0003  0.0000  0.0003  0.0001  0.0577 </r>
       </set>
       <set comment="band 36">
        <r>  0.0074  0.0010  0.0005  0.0005  0.0000  0.0000  0.0021  0.0002  0.0084 </r>
       </set>
      </set>
     </set>
    </set>
   </array>
  </projected>
 </calculation>
 <structure name="finalpos" >
  <crystal>
   <varray name="basis" >
    <v>      10.00000000       0.00000000       0.00000000 </v>
    <v>       0.00000000      10.00000000       0.00000000 </v>
    <v>       0.00000000       0.00000000      10.00000000 </v>
   </varray>
   <i name="volume">   1000.00000000 </i>
   <varray name="rec_basis" >
    <v>       0.10000000       0.00000000       0.00000000 </v>
    <v>       0.00000000       0.10000000       0.00000000 </v>
    <v>       0.00000000       0.00000000       0.10000000 </v>
   </varray>
  </crystal>
  <varray name="positions" >
   <v>       0.50000000       0.50000000       0.50000000 </v>
  </varray>
 </structure>
</modeling>
