       N       E                     dE             d eps       ncg     rms          rms(c)
DAV:   1     0.136086174295E+03    0.13609E+03   -0.33763E+03   144   0.185E+02
DAV:   2    -0.994209565574E+00   -0.13708E+03   -0.13464E+03   288   0.405E+01
DAV:   3    -0.609342315750E+01   -0.50992E+01   -0.50895E+01   144   0.148E+01
DAV:   4    -0.611710059944E+01   -0.23677E-01   -0.23677E-01   216   0.133E+00
DAV:   5    -0.611755037531E+01   -0.44978E-03   -0.44978E-03   144   0.125E-01    0.306E+01
DAV:   6    -0.910179096696E+01   -0.29842E+01   -0.26990E+02   252   0.207E+01    0.390E+01
DAV:   7    -0.780250854374E+01    0.12993E+01   -0.10010E+01   252   0.640E+00    0.186E+01
DAV:   8    -0.455059256380E+01    0.32519E+01   -0.19223E+00   252   0.233E+00    0.163E+01
DAV:   9    -0.458986485289E+01   -0.39272E-01   -0.11143E-02   144   0.268E-01    0.163E+01
DAV:  10    -0.446468829848E+01    0.12518E+00   -0.28969E-02   144   0.396E-01    0.163E+01
DAV:  11    -0.585632321098E+01   -0.13916E+01   -0.52034E-01   180   0.149E+00    0.178E+01
DAV:  12    -0.148356489540E+01    0.43728E+01   -0.12721E+01   144   0.500E+00    0.159E+01
DAV:  13    -0.314196171093E+01   -0.16584E+01   -0.37263E+00   216   0.163E+00    0.263E+01
DAV:  14    -0.356055136523E+01   -0.41859E+00   -0.82895E-02   216   0.754E-01    0.195E+01
DAV:  15    -0.385247673698E+01   -0.29193E+00   -0.49720E-02   144   0.817E-01    0.198E+01
DAV:  16    -0.415860259814E+01   -0.30613E+00   -0.87294E-03   144   0.283E-01    0.201E+01
DAV:  17    -0.433933969976E+01   -0.18074E+00   -0.29000E-03   144   0.147E-01    0.202E+01
DAV:  18    -0.607388524218E+01   -0.17345E+01   -0.18216E-01   144   0.125E+00    0.212E+01
DAV:  19    -0.458534464854E+01    0.14885E+01   -0.11635E-01   144   0.997E-01    0.206E+01
DAV:  20    -0.141078365157E+01    0.31746E+01   -0.23158E+00   144   0.256E+00    0.174E+01
DAV:  21    -0.236071194993E+01   -0.94993E+00   -0.15037E-01   144   0.875E-01    0.172E+01
DAV:  22    -0.100859376716E+01    0.13521E+01   -0.54410E-01   144   0.168E+00    0.105E+01
DAV:  23    -0.124850468117E+01   -0.23991E+00   -0.28869E-01   144   0.993E-01    0.724E+00
DAV:  24    -0.142352772598E+01   -0.17502E+00   -0.42146E-02   144   0.535E-01    0.727E+00
DAV:  25    -0.149994422914E+01   -0.76417E-01   -0.84598E-03   144   0.241E-01    0.728E+00
DAV:  26    -0.136024187435E+01    0.13970E+00   -0.50784E-02   144   0.515E-01    0.734E+00
DAV:  27    -0.139908898986E+01   -0.38847E-01   -0.64047E-03   144   0.209E-01    0.738E+00
DAV:  28    -0.118446081872E+01    0.21463E+00   -0.84695E-02   144   0.762E-01    0.753E+00
DAV:  29    -0.257294444910E+01   -0.13885E+01   -0.49175E+00   180   0.196E+00    0.255E+01
DAV:  30    -0.121045855963E+01    0.13625E+01   -0.95246E+00   144   0.241E+00    0.583E+00
DAV:  31    -0.198654120189E+01   -0.77608E+00   -0.48177E-01   144   0.121E+00    0.161E+01
DAV:  32    -0.151682430498E+01    0.46972E+00   -0.51937E-02   144   0.575E-01    0.158E+01
DAV:  33    -0.166831408936E+01   -0.15149E+00   -0.82528E-03   144   0.260E-01    0.151E+01
DAV:  34    -0.186722007091E+01   -0.19891E+00   -0.28624E-02   180   0.499E-01    0.125E+01
DAV:  35    -0.206402463829E+01   -0.19680E+00   -0.83957E-02   144   0.100E+00    0.111E+01
DAV:  36    -0.171733890916E+01    0.34669E+00   -0.33471E-02   144   0.510E-01    0.117E+01
DAV:  37    -0.184406343883E+01   -0.12672E+00   -0.62124E-03   144   0.190E-01    0.116E+01
DAV:  38    -0.170239925442E+01    0.14166E+00   -0.53736E-03   216   0.178E-01    0.116E+01
DAV:  39    -0.266031844775E+01   -0.95792E+00   -0.17043E+00   144   0.889E-01    0.172E+01
DAV:  40    -0.346650083038E+01   -0.80618E+00   -0.82704E-02   144   0.919E-01    0.178E+01
DAV:  41    -0.357266093892E+01   -0.10616E+00   -0.14347E-02   144   0.484E-01    0.179E+01
DAV:  42    -0.310600645054E+01    0.46665E+00   -0.16430E-02   144   0.430E-01    0.175E+01
DAV:  43    -0.773498023554E+00    0.23325E+01   -0.43064E+00   144   0.264E+00    0.105E+01
DAV:  44    -0.744800328054E+00    0.28698E-01   -0.92363E-02   144   0.818E-01    0.100E+01
DAV:  45    -0.870096783940E+00   -0.12530E+00   -0.28485E-02   144   0.383E-01    0.872E+00
DAV:  46    -0.150528157852E+01   -0.63518E+00   -0.57681E+00   144   0.153E+00    0.200E+01
DAV:  47    -0.275507445351E+01   -0.12498E+01   -0.15626E-01   144   0.116E+00    0.172E+01
DAV:  48    -0.268240087979E+01    0.72674E-01   -0.16806E-02   144   0.300E-01    0.174E+01
DAV:  49    -0.239770601891E+01    0.28469E+00   -0.54432E-02   144   0.369E-01    0.166E+01
DAV:  50    -0.125838507203E+01    0.11393E+01   -0.59212E-01   144   0.105E+00    0.153E+01
DAV:  51    -0.110532626338E+01    0.15306E+00   -0.10593E+00   144   0.707E-01    0.428E+00
DAV:  52    -0.348358034342E+01   -0.23783E+01   -0.82728E+00   144   0.256E+00    0.234E+01
DAV:  53    -0.124441854909E+01    0.22392E+01   -0.11177E+01   144   0.309E+00    0.492E+00
DAV:  54    -0.136014973265E+01   -0.11573E+00   -0.41145E-02   144   0.491E-01    0.481E+00
DAV:  55    -0.156613250822E+01   -0.20598E+00   -0.12046E-01   144   0.816E-01    0.546E+00
DAV:  56    -0.148397081522E+01    0.82162E-01   -0.20170E-02   144   0.491E-01    0.689E+00
DAV:  57    -0.148033757981E+01    0.36332E-02   -0.48758E-03   216   0.857E-02    0.719E+00
DAV:  58    -0.149327890050E+01   -0.12941E-01   -0.78179E-04   144   0.649E-02    0.723E+00
DAV:  59    -0.152188969583E+01   -0.28611E-01   -0.23802E-03   144   0.115E-01    0.720E+00
DAV:  60    -0.155405468171E+01   -0.32165E-01   -0.39078E-03   144   0.177E-01    0.703E+00
DAV:  61    -0.346703817414E+01   -0.19130E+01   -0.76103E+00   144   0.169E+00    0.241E+01
DAV:  62    -0.139523367328E+01    0.20718E+01   -0.29765E+00   144   0.212E+00    0.621E+00
DAV:  63    -0.370745794986E+01   -0.23122E+01   -0.89028E+00   144   0.184E+00    0.244E+01
DAV:  64    -0.227198409853E+01    0.14355E+01   -0.13562E-01   144   0.103E+00    0.190E+01
DAV:  65    -0.287127938002E+01   -0.59930E+00   -0.45217E-02   144   0.630E-01    0.241E+01
DAV:  66    -0.422247879120E+01   -0.13512E+01   -0.13971E-01   144   0.113E+00    0.253E+01
DAV:  67    -0.407444544444E+01    0.14803E+00   -0.83748E-03   288   0.165E-01    0.253E+01
DAV:  68    -0.447713526982E+01   -0.40269E+00   -0.13057E-02   144   0.340E-01    0.256E+01
DAV:  69    -0.465824417120E+01   -0.18111E+00   -0.18054E-03   144   0.118E-01    0.256E+01
DAV:  70    -0.473795520332E+01   -0.79711E-01   -0.80882E-04   144   0.881E-02    0.256E+01
DAV:  71    -0.156324316618E+01    0.31747E+01   -0.22885E+00   144   0.323E+00    0.141E+01
DAV:  72    -0.113435229038E+01    0.42889E+00   -0.17072E-01   180   0.112E+00    0.131E+01
DAV:  73    -0.104086928275E+01    0.93483E-01   -0.26919E-01   144   0.938E-01    0.134E+01
DAV:  74    -0.307444410739E+00    0.73342E+00   -0.35875E-01   144   0.137E+00    0.132E+01
DAV:  75     0.297068560388E+00    0.60451E+00   -0.44704E-01   144   0.169E+00    0.160E+01
DAV:  76    -0.172902870996E+01   -0.20261E+01   -0.62038E-01   144   0.138E+00    0.164E+01
DAV:  77     0.451909302472E+01    0.62481E+01   -0.98825E+00   144   0.613E+00    0.166E+01
DAV:  78     0.812206980549E+01    0.36030E+01   -0.21861E+00   288   0.327E+00    0.159E+01
DAV:  79     0.971691111606E+01    0.15948E+01   -0.36920E-01   144   0.156E+00    0.144E+01
DAV:  80     0.104700292591E+02    0.75312E+00   -0.52936E-01   144   0.154E+00    0.127E+01
DAV:  81     0.737065226530E+01   -0.30994E+01   -0.39452E+00   144   0.200E+00    0.425E+00
DAV:  82    -0.180823992544E+01   -0.91789E+01   -0.23820E+01   216   0.499E+00    0.263E+01
DAV:  83    -0.917914204088E+00    0.89033E+00   -0.10563E+01   144   0.599E+00    0.443E+00
DAV:  84    -0.131575299920E+01   -0.39784E+00   -0.21240E-01   144   0.109E+00    0.753E+00
DAV:  85    -0.141020049397E+01   -0.94447E-01   -0.13817E-01   144   0.101E+00    0.611E+00
DAV:  86    -0.136729908116E+01    0.42901E-01   -0.56178E-02   144   0.656E-01    0.574E+00
DAV:  87    -0.137195682516E+01   -0.46577E-02   -0.11613E-02   288   0.132E-01    0.570E+00
DAV:  88    -0.132675984022E+01    0.45197E-01   -0.30911E-03   144   0.150E-01    0.560E+00
DAV:  89    -0.134583690105E+01   -0.19077E-01   -0.14171E-03   144   0.726E-02    0.562E+00
DAV:  90    -0.172464292961E+01   -0.37881E+00   -0.57528E-01   144   0.115E+00    0.131E+01
DAV:  91    -0.170451904260E+01    0.20124E-01   -0.11718E-02   144   0.392E-01    0.143E+01
DAV:  92    -0.143008722046E+01    0.27443E+00   -0.27962E-01   144   0.351E-01    0.788E+00
DAV:  93    -0.298287872195E+01   -0.15528E+01   -0.29414E+00   144   0.108E+00    0.242E+01
DAV:  94    -0.193543405999E+01    0.10474E+01   -0.66411E-02   144   0.602E-01    0.228E+01
DAV:  95    -0.226093619523E+01   -0.32550E+00   -0.86997E-03   144   0.307E-01    0.238E+01
DAV:  96    -0.105999603858E+01    0.12009E+01   -0.81898E+00   144   0.223E+00    0.327E+00
DAV:  97    -0.142344998152E+01   -0.36345E+00   -0.21267E-01   144   0.923E-01    0.613E+00
DAV:  98    -0.154155540394E+01   -0.11811E+00   -0.34734E-02   180   0.425E-01    0.102E+01
DAV:  99    -0.142970927895E+01    0.11185E+00   -0.16629E-02   144   0.212E-01    0.649E+00
DAV: 100    -0.147885225971E+01   -0.49143E-01   -0.20798E-03   144   0.168E-01    0.623E+00
DAV: 101    -0.277791299941E+01   -0.12991E+01   -0.35857E+00   144   0.917E-01    0.237E+01
DAV: 102    -0.132639800825E+01    0.14515E+01   -0.40418E+00   144   0.135E+00    0.566E+00
DAV: 103    -0.229511572267E+01   -0.96872E+00   -0.15962E+00   144   0.820E-01    0.230E+01
DAV: 104    -0.136084548933E+01    0.93427E+00   -0.32543E+00   144   0.831E-01    0.632E+00
DAV: 105    -0.238722233052E+01   -0.10264E+01   -0.13922E+00   144   0.778E-01    0.229E+01
DAV: 106    -0.134369932506E+01    0.10435E+01   -0.37544E+00   144   0.909E-01    0.649E+00
DAV: 107    -0.194782548407E+01   -0.60413E+00   -0.21918E-01   144   0.661E-01    0.179E+01
DAV: 108    -0.195577885352E+01   -0.79534E-02   -0.36451E-02   144   0.550E-01    0.161E+01
DAV: 109    -0.219152994821E+01   -0.23575E+00   -0.15024E-02   144   0.281E-01    0.156E+01
DAV: 110    -0.246782013109E+01   -0.27629E+00   -0.13461E-01   144   0.256E-01    0.212E+01
DAV: 111    -0.104172081213E+01    0.14261E+01   -0.93477E+00   144   0.242E+00    0.323E+00
DAV: 112    -0.210757668479E+01   -0.10659E+01   -0.13426E+00   144   0.148E+00    0.143E+01
DAV: 113    -0.111555569993E+01    0.99202E+00   -0.64068E-01   144   0.175E+00    0.356E+00
DAV: 114    -0.199336533293E+01   -0.87781E+00   -0.22408E+00   144   0.123E+00    0.139E+01
DAV: 115    -0.112556855452E+01    0.86780E+00   -0.21090E+00   144   0.152E+00    0.580E+00
DAV: 116     0.566672053178E+00    0.16922E+01   -0.84911E+01   144   0.513E+00    0.588E+00
DAV: 117     0.948610649174E+00    0.38194E+00   -0.58532E-02   216   0.475E-01    0.299E+00
DAV: 118     0.240336291348E+01    0.14548E+01   -0.23132E-01   180   0.988E-01    0.578E+00
DAV: 119     0.217976290795E+01   -0.22360E+00   -0.56083E-03   144   0.274E-01    0.557E+00
DAV: 120     0.137513366178E+01   -0.80463E+00   -0.31455E-01   144   0.455E-01    0.666E+00
DAV: 121     0.192690317410E+01    0.55177E+00   -0.37160E-01   144   0.165E+00    0.141E+01
DAV: 122     0.344763895960E+01    0.15207E+01   -0.11664E-01   144   0.831E-01    0.140E+01
DAV: 123     0.308302330230E+01   -0.36462E+00   -0.31122E-02   144   0.465E-01    0.139E+01
DAV: 124     0.227825752355E+01   -0.80477E+00   -0.10830E+00   144   0.693E-01    0.234E+00
DAV: 125     0.930801596245E+00   -0.13475E+01   -0.20710E+00   144   0.105E+00    0.141E+01
DAV: 126    -0.417058832120E+00   -0.13479E+01   -0.62585E+00   216   0.188E+00    0.412E+00
DAV: 127    -0.103056363396E+01   -0.61350E+00   -0.79476E-01   180   0.140E+00    0.374E+00
DAV: 128    -0.115513664275E+01   -0.12457E+00   -0.97055E-01   144   0.440E-01    0.113E+01
DAV: 129    -0.106204608765E+01    0.93091E-01   -0.12081E+00   144   0.495E-01    0.350E+00
DAV: 130    -0.110195148754E+01   -0.39905E-01   -0.12675E-02   144   0.483E-01    0.282E+00
DAV: 131    -0.119561598931E+01   -0.93665E-01   -0.27032E-01   180   0.593E-01    0.501E+00
DAV: 132    -0.139389947482E+01   -0.19828E+00   -0.19003E-01   144   0.404E-01    0.127E+01
DAV: 133    -0.135909784023E+01    0.34802E-01   -0.31759E-02   144   0.743E-01    0.128E+01
DAV: 134    -0.138553239783E+01   -0.26435E-01   -0.69715E-03   144   0.141E-01    0.128E+01
DAV: 135    -0.138546631935E+01    0.66078E-04   -0.68698E-04   180   0.285E-02    0.128E+01
DAV: 136    -0.138242104858E+01    0.30453E-02   -0.93674E-03   144   0.141E-01    0.128E+01
DAV: 137    -0.129765025580E+01    0.84771E-01   -0.82585E-03   144   0.130E-01    0.127E+01
DAV: 138    -0.119990441457E+01    0.97746E-01   -0.79634E-03   144   0.118E-01    0.124E+01
DAV: 139    -0.118396972980E+01    0.15935E-01   -0.57344E+00   144   0.729E-01    0.112E+01
DAV: 140    -0.133574994272E+01   -0.15178E+00   -0.26767E-01   144   0.752E-01    0.611E+00
DAV: 141    -0.123709539773E+01    0.98655E-01   -0.17257E+00   144   0.676E-01    0.384E+00
DAV: 142    -0.126589702280E+01   -0.28802E-01   -0.21615E-02   216   0.399E-01    0.416E+00
DAV: 143    -0.126500265358E+01    0.89437E-03   -0.11215E-03   144   0.724E-02    0.407E+00
DAV: 144    -0.126886518668E+01   -0.38625E-02   -0.13799E-04   144   0.258E-02    0.408E+00
DAV: 145    -0.127098733748E+01   -0.21222E-02   -0.49696E-04   144   0.638E-02    0.415E+00
DAV: 146    -0.128176299406E+01   -0.10776E-01   -0.17278E-03   144   0.120E-01    0.414E+00
DAV: 147    -0.130233002117E+01   -0.20567E-01   -0.39059E-03   144   0.130E-01    0.433E+00
DAV: 148    -0.127569320430E+01    0.26637E-01   -0.67714E-03   144   0.175E-01    0.409E+00
DAV: 149    -0.130574328022E+01   -0.30050E-01   -0.46700E-03   144   0.130E-01    0.419E+00
DAV: 150    -0.144186750115E+01   -0.13612E+00   -0.68939E-02   144   0.442E-01    0.793E+00
DAV: 151    -0.123022132642E+01    0.21165E+00   -0.32363E-01   144   0.124E+00    0.221E+00
DAV: 152    -0.139552092489E+01   -0.16530E+00   -0.95984E-02   144   0.592E-01    0.670E+00
DAV: 153    -0.138437706697E+01    0.11144E-01   -0.11396E-02   144   0.544E-01    0.740E+00
DAV: 154    -0.125930032653E+01    0.12508E+00   -0.23302E-02   144   0.405E-01    0.446E+00
DAV: 155    -0.125255684723E+01    0.67435E-02   -0.14149E-02   144   0.218E-01    0.213E+00
DAV: 156    -0.124102289376E+01    0.11534E-01   -0.78506E-03   144   0.224E-01    0.377E+00
DAV: 157    -0.122677504331E+01    0.14248E-01   -0.35285E-03   144   0.230E-01    0.404E+00
DAV: 158    -0.122946531410E+01   -0.26903E-02   -0.17084E-04   144   0.410E-02    0.411E+00
DAV: 159    -0.128715552466E+01   -0.57690E-01   -0.82683E-03   144   0.277E-01    0.447E+00
DAV: 160    -0.146743730467E+01   -0.18028E+00   -0.51418E-01   144   0.381E-01    0.125E+01
DAV: 161    -0.148676116364E+01   -0.19324E-01   -0.43039E-02   144   0.630E-01    0.129E+01
DAV: 162    -0.139696603172E+01    0.89795E-01   -0.20866E-02   144   0.333E-01    0.129E+01
DAV: 163    -0.122004287447E+01    0.17692E+00   -0.14524E-02   252   0.204E-01    0.111E+01
DAV: 164    -0.120850270572E+01    0.11540E-01   -0.13976E+00   144   0.297E-01    0.488E+00
DAV: 165    -0.130307585651E+01   -0.94573E-01   -0.31065E-02   144   0.790E-01    0.523E+00
DAV: 166    -0.132266683332E+01   -0.19591E-01   -0.64326E-01   144   0.590E-01    0.499E+00
DAV: 167    -0.146373800354E+01   -0.14107E+00   -0.25671E-01   180   0.434E-01    0.110E+01
DAV: 168    -0.129015141577E+01    0.17359E+00   -0.37060E-02   144   0.511E-01    0.942E+00
DAV: 169    -0.127227158012E+01    0.17880E-01   -0.13357E-01   144   0.232E-01    0.323E+00
DAV: 170    -0.138106088338E+01   -0.10879E+00   -0.15320E-02   144   0.485E-01    0.521E+00
DAV: 171    -0.142722628620E+01   -0.46165E-01   -0.44221E-03   144   0.203E-01    0.730E+00
DAV: 172    -0.140371264026E+01    0.23514E-01   -0.46247E-03   144   0.216E-01    0.805E+00
DAV: 173    -0.133513884562E+01    0.68574E-01   -0.85266E-03   144   0.218E-01    0.467E+00
DAV: 174    -0.136081479585E+01   -0.25676E-01   -0.44502E-03   144   0.281E-01    0.355E+00
DAV: 175    -0.138060449827E+01   -0.19790E-01   -0.14075E-03   144   0.139E-01    0.449E+00
DAV: 176    -0.120758794552E+01    0.17302E+00   -0.95385E-02   144   0.968E-01    0.360E+00
DAV: 177    -0.129864363532E+01   -0.91056E-01   -0.90168E-01   144   0.499E-01    0.570E+00
DAV: 178    -0.130809991231E+01   -0.94563E-02   -0.71707E-03   144   0.314E-01    0.773E+00
DAV: 179    -0.120483851199E+01    0.10326E+00   -0.22255E-02   144   0.449E-01    0.430E+00
DAV: 180    -0.119928096554E+01    0.55575E-02   -0.30865E-03   144   0.266E-01    0.296E+00
DAV: 181    -0.134773327594E+01   -0.14845E+00   -0.37161E-02   144   0.551E-01    0.124E+01
DAV: 182    -0.118319515664E+01    0.16454E+00   -0.11631E+00   144   0.885E-01    0.420E+00
DAV: 183    -0.121721847791E+01   -0.34023E-01   -0.23040E-02   144   0.588E-01    0.233E+00
DAV: 184    -0.125271298908E+01   -0.35495E-01   -0.60691E-02   144   0.332E-01    0.589E+00
DAV: 185    -0.122379437922E+01    0.28919E-01   -0.41651E-03   144   0.210E-01    0.549E+00
DAV: 186    -0.121266291075E+01    0.11131E-01   -0.30991E-03   144   0.180E-01    0.299E+00
DAV: 187    -0.124097457544E+01   -0.28312E-01   -0.27289E-03   144   0.174E-01    0.528E+00
DAV: 188    -0.124223908324E+01   -0.12645E-02   -0.51787E-04   144   0.111E-01    0.548E+00
DAV: 189    -0.124136371860E+01    0.87536E-03   -0.42025E-05   144   0.203E-02    0.551E+00
DAV: 190    -0.125027347855E+01   -0.89098E-02   -0.85181E-04   144   0.101E-01    0.564E+00
DAV: 191    -0.146894386626E+01   -0.21867E+00   -0.36820E-02   144   0.670E-01    0.146E+01
DAV: 192    -0.118903606796E+01    0.27991E+00   -0.39739E-02   144   0.661E-01    0.409E+00
DAV: 193    -0.130499610963E+01   -0.11596E+00   -0.16942E-02   144   0.575E-01    0.587E+00
DAV: 194    -0.133207113774E+01   -0.27075E-01   -0.46911E-03   144   0.210E-01    0.670E+00
DAV: 195    -0.132026021350E+01    0.11811E-01   -0.30049E-03   144   0.205E-01    0.617E+00
DAV: 196    -0.132575234748E+01   -0.54921E-02   -0.18934E-03   144   0.182E-01    0.587E+00
DAV: 197    -0.132346137674E+01    0.22910E-02   -0.21399E-04   144   0.597E-02    0.581E+00
DAV: 198    -0.133748947199E+01   -0.14028E-01   -0.13938E-03   144   0.129E-01    0.646E+00
DAV: 199    -0.134459163012E+01   -0.71022E-02   -0.10080E-03   144   0.107E-01    0.832E+00
DAV: 200    -0.130209797991E+01    0.42494E-01   -0.15863E-03   144   0.122E-01    0.666E+00
DAV: 201    -0.129241238189E+01    0.96856E-02   -0.18582E-03   144   0.148E-01    0.599E+00
DAV: 202    -0.129557562688E+01   -0.31632E-02   -0.16125E-04   144   0.542E-02    0.596E+00
DAV: 203    -0.129545739689E+01    0.11823E-03   -0.93393E-06   144   0.783E-03    0.596E+00
DAV: 204    -0.128270891453E+01    0.12748E-01   -0.18707E-03   144   0.136E-01    0.575E+00
DAV: 205    -0.129006619493E+01   -0.73573E-02   -0.51985E-03   144   0.255E-01    0.624E+00
DAV: 206    -0.132599620783E+01   -0.35930E-01   -0.49976E-03   144   0.206E-01    0.982E+00
DAV: 207    -0.128076416588E+01    0.45232E-01   -0.24646E-03   144   0.212E-01    0.698E+00
DAV: 208    -0.130740863704E+01   -0.26644E-01   -0.12966E-03   144   0.143E-01    0.674E+00
DAV: 209    -0.128526955893E+01    0.22139E-01   -0.10416E-03   144   0.104E-01    0.629E+00
DAV: 210    -0.128576570107E+01   -0.49614E-03   -0.42179E-05   144   0.267E-02    0.625E+00
DAV: 211    -0.133906661852E+01   -0.53301E-01   -0.44326E-03   144   0.262E-01    0.100E+01
DAV: 212    -0.127996090169E+01    0.59106E-01   -0.29517E-03   144   0.212E-01    0.647E+00
DAV: 213    -0.131493439280E+01   -0.34973E-01   -0.12746E-03   144   0.142E-01    0.617E+00
DAV: 214    -0.133159706632E+01   -0.16663E-01   -0.14698E-03   144   0.149E-01    0.590E+00
DAV: 215    -0.137542721006E+01   -0.43830E-01   -0.48829E-03   144   0.188E-01    0.565E+00
DAV: 216    -0.142710676879E+01   -0.51680E-01   -0.41344E-02   144   0.799E-01    0.512E+00
DAV: 217    -0.144379375544E+01   -0.16687E-01   -0.56661E-03   144   0.217E-01    0.500E+00
DAV: 218    -0.145618153635E+01   -0.12388E-01   -0.17396E-02   144   0.361E-01    0.460E+00
DAV: 219    -0.144406959066E+01    0.12112E-01   -0.23736E-02   144   0.426E-01    0.407E+00
DAV: 220    -0.143626294238E+01    0.78066E-02   -0.58619E-03   144   0.212E-01    0.375E+00
DAV: 221    -0.141432881005E+01    0.21934E-01   -0.89459E-03   144   0.295E-01    0.135E+00
DAV: 222    -0.141831747877E+01   -0.39887E-02   -0.51292E-02   144   0.187E-01    0.181E+00
DAV: 223    -0.142332002662E+01   -0.50025E-02   -0.49754E-02   144   0.296E-01    0.110E+00
DAV: 224    -0.142723194264E+01   -0.39119E-02   -0.11598E-03   144   0.149E-01    0.248E+00
DAV: 225    -0.142361724461E+01    0.36147E-02   -0.13355E-01   144   0.225E-01    0.246E+00
DAV: 226    -0.142549485843E+01   -0.18776E-02   -0.10595E-02   144   0.242E-01    0.246E+00
DAV: 227    -0.141822273914E+01    0.72721E-02   -0.59473E-02   144   0.185E-01    0.973E-01
DAV: 228    -0.142309279582E+01   -0.48701E-02   -0.10015E-02   144   0.245E-01    0.427E-01
DAV: 229    -0.142289746472E+01    0.19533E-03   -0.96319E-04   144   0.743E-02    0.468E-01
DAV: 230    -0.142268756481E+01    0.20990E-03   -0.32615E-04   144   0.264E-02    0.243E-01
DAV: 231    -0.142284044491E+01   -0.15288E-03   -0.67168E-05   144   0.205E-02    0.140E-01
DAV: 232    -0.142296054808E+01   -0.12010E-03   -0.71886E-05   144   0.211E-02    0.843E-02
DAV: 233    -0.142303133424E+01   -0.70786E-04   -0.60875E-05   144   0.174E-02    0.124E-01
DAV: 234    -0.142307035547E+01   -0.39021E-04   -0.10770E-04   144   0.281E-02
   1 F= -.14230704E+01 E0= -.13966396E+01  d E =-.142307E+01  mag=     2.0032
