<?xml version="1.0" encoding="ISO-8859-1"?>
<modeling>
 <generator>
  <i name="program" type="string">vasp </i>
  <i name="version" type="string">5.4.4.18Apr17-6-g9f103f2a35  </i>
  <i name="subversion" type="string">(build Nov 08 2019 15:19:53) gamma-only         parallel </i>
  <i name="platform" type="string">LinuxIFC </i>
  <i name="date" type="string">2020 11 30 </i>
  <i name="time" type="string">09:37:44 </i>
 </generator>
 <incar>
  <i type="string" name="PREC">accurate</i>
  <i type="string" name="ALGO"> N</i>
  <i type="int" name="ISPIN">     2</i>
  <i type="int" name="NELM">   300</i>
  <i type="int" name="IBRION">     2</i>
  <i name="EDIFF">      0.00005000</i>
  <i type="int" name="NSW">    99</i>
  <i type="int" name="ISIF">     2</i>
  <i name="ENCUT">    520.00000000</i>
  <v name="MAGMOM">      0.60000000</v>
  <i type="string" name="LREAL"> Auto</i>
  <i type="int" name="ISMEAR">     0</i>
  <i name="SIGMA">      0.05000000</i>
  <i type="logical" name="LWAVE"> F  </i>
  <i type="int" name="LORBIT">    11</i>
  <i type="logical" name="LASPH"> T  </i>
  <v type="int" name="KPOINT_BSE">    -1     0     0     0</v>
  <i type="int" name="NELM">   300</i>
  <i type="logical" name="LASPH"> T  </i>
 </incar>
 <structure name="primitive_cell" >
  <crystal>
   <varray name="basis" >
    <v>      10.00000000       0.00000000       0.00000000 </v>
    <v>       0.00000000      10.00000000       0.00000000 </v>
    <v>       0.00000000       0.00000000      10.00000000 </v>
   </varray>
   <i name="volume">   1000.00000000 </i>
   <varray name="rec_basis" >
    <v>       0.10000000       0.00000000       0.00000000 </v>
    <v>       0.00000000       0.10000000       0.00000000 </v>
    <v>       0.00000000       0.00000000       0.10000000 </v>
   </varray>
  </crystal>
  <varray name="positions" >
   <v>      -0.50000000      -0.50000000      -0.50000000 </v>
  </varray>
 </structure>
 <varray name="primitive_index" >
  <v type="int" >        1 </v>
 </varray>
 <kpoints>
  <generation param="Gamma">
   <v type="int" name="divisions">       1        1        1 </v>
   <v name="usershift">      0.00000000       0.00000000       0.00000000 </v>
   <v name="genvec1">      1.00000000       0.00000000       0.00000000 </v>
   <v name="genvec2">      0.00000000       1.00000000       0.00000000 </v>
   <v name="genvec3">      0.00000000       0.00000000       1.00000000 </v>
   <v name="shift">      0.00000000       0.00000000       0.00000000 </v>
  </generation>
  <varray name="kpointlist" >
   <v>       0.00000000       0.00000000       0.00000000 </v>
  </varray>
  <varray name="weights" >
   <v>       1.00000000 </v>
  </varray>
 </kpoints>
 <parameters>
  <separator name="general" >
   <i type="string" name="SYSTEM">unknown system</i>
   <i type="logical" name="LCOMPAT"> F  </i>
  </separator>
  <separator name="electronic" >
   <i type="string" name="PREC">accura</i>
   <i name="ENMAX">    520.00000000</i>
   <i name="ENAUG">    580.19600000</i>
   <i name="EDIFF">      0.00005000</i>
   <i type="int" name="IALGO">    38</i>
   <i type="int" name="IWAVPR">    11</i>
   <i type="int" name="NBANDS">    36</i>
   <i name="NELECT">     12.00000000</i>
   <i type="int" name="TURBO">     0</i>
   <i type="int" name="IRESTART">     0</i>
   <i type="int" name="NREBOOT">     0</i>
   <i type="int" name="NMIN">     0</i>
   <i name="EREF">      0.00000000</i>
   <separator name="electronic smearing" >
    <i type="int" name="ISMEAR">     0</i>
    <i name="SIGMA">      0.05000000</i>
    <i name="KSPACING">      0.50000000</i>
    <i type="logical" name="KGAMMA"> T  </i>
   </separator>
   <separator name="electronic projectors" >
    <i type="logical" name="LREAL"> T  </i>
    <v name="ROPT">     -0.00025000</v>
    <i type="int" name="LMAXPAW">  -100</i>
    <i type="int" name="LMAXMIX">     2</i>
    <i type="logical" name="NLSPLINE"> F  </i>
   </separator>
   <separator name="electronic startup" >
    <i type="int" name="ISTART">     0</i>
    <i type="int" name="ICHARG">     2</i>
    <i type="int" name="INIWAV">     1</i>
   </separator>
   <separator name="electronic spin" >
    <i type="int" name="ISPIN">     2</i>
    <i type="logical" name="LNONCOLLINEAR"> F  </i>
    <v name="MAGMOM">      0.60000000</v>
    <i name="NUPDOWN">     -1.00000000</i>
    <i type="logical" name="LSORBIT"> F  </i>
    <v name="SAXIS">      0.00000000      0.00000000      1.00000000</v>
    <i type="logical" name="LSPIRAL"> F  </i>
    <v name="QSPIRAL">      0.00000000      0.00000000      0.00000000</v>
    <i type="logical" name="LZEROZ"> F  </i>
   </separator>
   <separator name="electronic exchange-correlation" >
    <i type="logical" name="LASPH"> T  </i>
    <i type="logical" name="LMETAGGA"> F  </i>
   </separator>
   <separator name="electronic convergence" >
    <i type="int" name="NELM">   300</i>
    <i type="int" name="NELMDL">     0</i>
    <i type="int" name="NELMIN">     2</i>
    <i name="ENINI">    520.00000000</i>
    <separator name="electronic convergence detail" >
     <i type="logical" name="LDIAG"> T  </i>
     <i type="logical" name="LSUBROT"> F  </i>
     <i name="WEIMIN">      0.00100000</i>
     <i name="EBREAK">      0.00000035</i>
     <i name="DEPER">      0.30000000</i>
     <i type="int" name="NRMM">     4</i>
     <i name="TIME">      0.40000000</i>
    </separator>
   </separator>
   <separator name="electronic mixer" >
    <i name="AMIX">      0.40000000</i>
    <i name="BMIX">      1.00000000</i>
    <i name="AMIN">      0.10000000</i>
    <i name="AMIX_MAG">      1.60000000</i>
    <i name="BMIX_MAG">      1.00000000</i>
    <separator name="electronic mixer details" >
     <i type="int" name="IMIX">     4</i>
     <i type="logical" name="MIXFIRST"> F  </i>
     <i type="int" name="MAXMIX">   -45</i>
     <i name="WC">    100.00000000</i>
     <i type="int" name="INIMIX">     1</i>
     <i type="int" name="MIXPRE">     1</i>
     <i type="int" name="MREMOVE">     5</i>
    </separator>
   </separator>
   <separator name="electronic dipolcorrection" >
    <i type="logical" name="LDIPOL"> F  </i>
    <i type="logical" name="LMONO"> F  </i>
    <i type="int" name="IDIPOL">     0</i>
    <i name="EPSILON">      1.00000000</i>
    <v name="DIPOL">   -100.00000000   -100.00000000   -100.00000000</v>
    <i name="EFIELD">      0.00000000</i>
   </separator>
  </separator>
  <separator name="grids" >
   <i type="int" name="NGX">    80</i>
   <i type="int" name="NGY">    80</i>
   <i type="int" name="NGZ">    80</i>
   <i type="int" name="NGXF">   160</i>
   <i type="int" name="NGYF">   160</i>
   <i type="int" name="NGZF">   160</i>
   <i type="logical" name="ADDGRID"> F  </i>
  </separator>
  <separator name="ionic" >
   <i type="int" name="NSW">    99</i>
   <i type="int" name="IBRION">     2</i>
   <i type="int" name="MDALGO">     0</i>
   <i type="int" name="ISIF">     2</i>
   <i name="PSTRESS">      0.00000000</i>
   <i name="EDIFFG">      0.00050000</i>
   <i type="int" name="NFREE">     1</i>
   <i name="POTIM">      0.50000000</i>
   <i name="SMASS">     -3.00000000</i>
   <i name="SCALEE">      1.00000000</i>
  </separator>
  <separator name="ionic md" >
   <i name="TEBEG">      0.00010000</i>
   <i name="TEEND">      0.00010000</i>
   <i type="int" name="NBLOCK">     1</i>
   <i type="int" name="KBLOCK">    99</i>
   <i type="int" name="NPACO">   256</i>
   <i name="APACO">     16.00000000</i>
  </separator>
  <separator name="symmetry" >
   <i type="int" name="ISYM">     2</i>
   <i name="SYMPREC">      0.00001000</i>
  </separator>
  <separator name="dos" >
   <i type="int" name="LORBIT">    11</i>
   <v name="RWIGS">     -1.00000000</v>
   <i type="int" name="NEDOS">   301</i>
   <i name="EMIN">     10.00000000</i>
   <i name="EMAX">    -10.00000000</i>
   <i name="EFERMI">      0.00000000</i>
  </separator>
  <separator name="writing" >
   <i type="int" name="NWRITE">     2</i>
   <i type="logical" name="LWAVE"> F  </i>
   <i type="logical" name="LDOWNSAMPLE"> F  </i>
   <i type="logical" name="LCHARG"> T  </i>
   <i type="logical" name="LPARD"> F  </i>
   <i type="logical" name="LVTOT"> F  </i>
   <i type="logical" name="LVHAR"> F  </i>
   <i type="logical" name="LELF"> F  </i>
   <i type="logical" name="LOPTICS"> F  </i>
   <v name="STM">      0.00000000      0.00000000      0.00000000      0.00000000      0.00000000      0.00000000      0.00000000</v>
  </separator>
  <separator name="performance" >
   <i type="int" name="NPAR">    36</i>
   <i type="int" name="NSIM">     4</i>
   <i type="int" name="NBLK">    -1</i>
   <i type="logical" name="LPLANE"> T  </i>
   <i type="logical" name="LSCALAPACK"> T  </i>
   <i type="logical" name="LSCAAWARE"> F  </i>
   <i type="logical" name="LSCALU"> F  </i>
   <i type="logical" name="LASYNC"> F  </i>
   <i type="logical" name="LORBITALREAL"> F  </i>
  </separator>
  <separator name="miscellaneous" >
   <i type="int" name="IDIOT">     3</i>
   <i type="int" name="ISPECIAL">     0</i>
   <i type="logical" name="LMUSIC"> F  </i>
   <v name="POMASS">    140.11500000</v>
   <v name="DARWINR">      0.00000000</v>
   <v name="DARWINV">      1.00000000</v>
   <i type="logical" name="LCORR"> T  </i>
  </separator>
  <i type="logical" name="GGA_COMPAT"> T  </i>
  <i type="logical" name="LBERRY"> F  </i>
  <i type="int" name="ICORELEVEL">     0</i>
  <i type="logical" name="LDAU"> F  </i>
  <i type="int" name="I_CONSTRAINED_M">     0</i>
  <separator name="electronic exchange-correlation" >
   <i type="string" name="GGA">--</i>
   <i type="int" name="VOSKOWN">     0</i>
   <i type="logical" name="LHFCALC"> F  </i>
   <i type="string" name="PRECFOCK"></i>
   <i type="logical" name="LSYMGRAD"> F  </i>
   <i type="logical" name="LHFONE"> F  </i>
   <i type="logical" name="LRHFCALC"> F  </i>
   <i type="logical" name="LTHOMAS"> F  </i>
   <i type="logical" name="LMODELHF"> F  </i>
   <i name="ENCUT4O">     -1.00000000</i>
   <i type="int" name="EXXOEP">     0</i>
   <i type="int" name="FOURORBIT">     0</i>
   <i name="AEXX">      0.00000000</i>
   <i name="HFALPHA">      0.00000000</i>
   <i name="MCALPHA">      0.00000000</i>
   <i name="ALDAX">      1.00000000</i>
   <i name="AGGAX">      1.00000000</i>
   <i name="ALDAC">      1.00000000</i>
   <i name="AGGAC">      1.00000000</i>
   <i type="int" name="NKREDX">     1</i>
   <i type="int" name="NKREDY">     1</i>
   <i type="int" name="NKREDZ">     1</i>
   <i type="logical" name="SHIFTRED"> F  </i>
   <i type="logical" name="ODDONLY"> F  </i>
   <i type="logical" name="EVENONLY"> F  </i>
   <i type="int" name="LMAXFOCK">     0</i>
   <i type="int" name="NMAXFOCKAE">     0</i>
   <i type="logical" name="LFOCKAEDFT"> F  </i>
   <i name="HFSCREEN">      0.00000000</i>
   <i name="HFSCREENC">      0.00000000</i>
   <i type="int" name="NBANDSGWLOW">     0</i>
  </separator>
  <separator name="vdW DFT" >
   <i type="logical" name="LUSE_VDW"> F  </i>
   <i name="Zab_VDW">     -0.84910000</i>
   <i name="PARAM1">      0.12340000</i>
   <i name="PARAM2">      1.00000000</i>
   <i name="PARAM3">      0.00000000</i>
  </separator>
  <separator name="model GW" >
   <i type="int" name="MODEL_GW">     0</i>
   <i name="MODEL_EPS0">    600.00000000</i>
   <i name="MODEL_ALPHA">      1.00000000</i>
  </separator>
  <separator name="linear response parameters" >
   <i type="logical" name="LEPSILON"> F  </i>
   <i type="logical" name="LRPA"> F  </i>
   <i type="logical" name="LNABLA"> F  </i>
   <i type="logical" name="LVEL"> F  </i>
   <i type="int" name="KINTER">     0</i>
   <i name="CSHIFT">      0.10000000</i>
   <i name="OMEGAMAX">     -1.00000000</i>
   <i name="DEG_THRESHOLD">      0.00200000</i>
   <i name="RTIME">     -0.10000000</i>
   <i name="WPLASMAI">      0.00000000</i>
   <v name="DFIELD">      0.00000000      0.00000000      0.00000000</v>
   <v name="WPLASMA">      0.00000000      0.00000000      0.00000000      0.00000000      0.00000000      0.00000000      0.00000000      0.00000000      0.00000000</v>
  </separator>
  <separator name="orbital magnetization" >
   <i type="logical" name="NUCIND"> F  </i>
   <v name="MAGPOS">      0.00000000      0.00000000      0.00000000</v>
   <i type="logical" name="LNICSALL"> T  </i>
   <i type="logical" name="ORBITALMAG"> F  </i>
   <i type="logical" name="LMAGBLOCH"> F  </i>
   <i type="logical" name="LCHIMAG"> F  </i>
   <i type="logical" name="LGAUGE"> T  </i>
   <i type="int" name="MAGATOM">     0</i>
   <v name="MAGDIPOL">      0.00000000      0.00000000      0.00000000</v>
   <v name="AVECCONST">      0.00000000      0.00000000      0.00000000</v>
  </separator>
  <separator name="response functions" >
   <i type="logical" name="LADDER"> F  </i>
   <i type="logical" name="LRPAFORCE"> F  </i>
   <i type="logical" name="LFXC"> F  </i>
   <i type="logical" name="LHARTREE"> T  </i>
   <i type="int" name="IBSE">     0</i>
   <v type="int" name="KPOINT">    -1     0     0     0</v>
   <i type="logical" name="LTCTE"> F  </i>
   <i type="logical" name="LTETE"> F  </i>
   <i type="logical" name="LTRIPLET"> F  </i>
   <i type="logical" name="LFXCEPS"> F  </i>
   <i type="logical" name="LFXHEG"> F  </i>
   <i type="int" name="NATURALO">     2</i>
   <i type="logical" name="L2ORDER"> F  </i>
   <i type="logical" name="LMP2LT"> F  </i>
   <i type="logical" name="LUSEW"> F  </i>
   <i name="ENCUTGW">     -2.00000000</i>
   <i name="ENCUTGWSOFT">     -2.00000000</i>
   <i name="ENCUTLF">     -1.00000000</i>
   <i type="int" name="LMAXMP2">    -1</i>
   <i name="SCISSOR">      0.00000000</i>
   <i type="int" name="NOMEGA">     0</i>
   <i type="int" name="NOMEGAR">     0</i>
   <i type="int" name="NBANDSGW">    -1</i>
   <i type="int" name="NBANDSO">    -1</i>
   <i type="int" name="NBANDSV">    -1</i>
   <i type="int" name="NELM">   300</i>
   <i type="int" name="NELMHF">     1</i>
   <i type="int" name="DIM">     3</i>
   <i type="int" name="ANTIRES">     0</i>
   <i name="OMEGAMAX">    -30.00000000</i>
   <i name="OMEGAMIN">    -30.00000000</i>
   <i name="OMEGATL">   -200.00000000</i>
   <i type="int" name="OMEGAGRID">   140</i>
   <i name="CSHIFT">     -0.10000000</i>
   <i type="logical" name="SELFENERGY"> F  </i>
   <i type="logical" name="LSPECTRAL"> F  </i>
   <i type="logical" name="LSPECTRALGW"> F  </i>
   <i type="logical" name="LSINGLES"> F  </i>
   <i type="logical" name="LFERMIGW"> F  </i>
   <i type="logical" name="ODDONLYGW"> F  </i>
   <i type="logical" name="EVENONLYGW"> F  </i>
   <i type="int" name="NKREDLFX">     1</i>
   <i type="int" name="NKREDLFY">     1</i>
   <i type="int" name="NKREDLFZ">     1</i>
   <i type="int" name="MAXMEM">  2800</i>
   <i type="int" name="TELESCOPE">     0</i>
   <i type="int" name="TAUPAR">     1</i>
   <i type="int" name="OMEGAPAR">    -1</i>
   <i name="LAMBDA">      1.00000000</i>
  </separator>
  <separator name="External order field" >
   <i name="OFIELD_KAPPA">      0.00000000</i>
   <v name="OFIELD_K">      0.00000000      0.00000000      0.00000000</v>
   <i name="OFIELD_Q6_NEAR">      0.00000000</i>
   <i name="OFIELD_Q6_FAR">      0.00000000</i>
   <i name="OFIELD_A">      0.00000000</i>
  </separator>
 </parameters>
 <atominfo>
  <atoms>       1 </atoms>
  <types>       1 </types>
  <array name="atoms" >
   <dimension dim="1">ion</dimension>
   <field type="string">element</field>
   <field type="int">atomtype</field>
   <set>
    <rc><c>Ce</c><c>   1</c></rc>
   </set>
  </array>
  <array name="atomtypes" >
   <dimension dim="1">type</dimension>
   <field type="int">atomspertype</field>
   <field type="string">element</field>
   <field>mass</field>
   <field>valence</field>
   <field type="string">pseudopotential</field>
   <set>
    <rc><c>   1</c><c>Ce</c><c>    140.11500000</c><c>     12.00000000</c><c>  PAW_PBE Ce 23Dec2003                  </c></rc>
   </set>
  </array>
 </atominfo>
 <structure name="initialpos" >
  <crystal>
   <varray name="basis" >
    <v>      10.00000000       0.00000000       0.00000000 </v>
    <v>       0.00000000      10.00000000       0.00000000 </v>
    <v>       0.00000000       0.00000000      10.00000000 </v>
   </varray>
   <i name="volume">   1000.00000000 </i>
   <varray name="rec_basis" >
    <v>       0.10000000       0.00000000       0.00000000 </v>
    <v>       0.00000000       0.10000000       0.00000000 </v>
    <v>       0.00000000       0.00000000       0.10000000 </v>
   </varray>
  </crystal>
  <varray name="positions" >
   <v>       0.50000000       0.50000000       0.50000000 </v>
  </varray>
 </structure>
 <calculation>
  <scstep>
   <time name="dav">    0.19    0.19</time>
   <time name="total">    1.23    1.25</time>
   <energy>
    <i name="alphaZ">      2.10468792 </i>
    <i name="ewald">   -294.16665608 </i>
    <i name="hartreedc">   -567.31770282 </i>
    <i name="XCdc">      2.33392993 </i>
    <i name="pawpsdc">    850.82114465 </i>
    <i name="pawaedc">   -826.57606301 </i>
    <i name="eentropy">     -0.04219836 </i>
    <i name="bandstr">    -94.14377229 </i>
    <i name="atom">   1063.07280435 </i>
    <i name="e_fr_energy">    136.08617430 </i>
    <i name="e_wo_entrp">    136.12837266 </i>
    <i name="e_0_energy">    136.10727348 </i>
   </energy>
  </scstep>
  <scstep>
   <time name="dav">    0.35    0.35</time>
   <time name="total">    0.35    0.35</time>
   <energy>
    <i name="e_fr_energy">     -0.99420957 </i>
    <i name="e_wo_entrp">     -0.90697972 </i>
    <i name="e_0_energy">     -0.95059464 </i>
   </energy>
  </scstep>
  <scstep>
   <time name="dav">    0.18    0.18</time>
   <time name="total">    0.18    0.18</time>
   <energy>
    <i name="e_fr_energy">     -6.09342316 </i>
    <i name="e_wo_entrp">     -5.99627737 </i>
    <i name="e_0_energy">     -6.04485027 </i>
   </energy>
  </scstep>
  <scstep>
   <time name="dav">    0.26    0.26</time>
   <time name="total">    0.26    0.26</time>
   <energy>
    <i name="e_fr_energy">     -6.11710060 </i>
    <i name="e_wo_entrp">     -6.01995419 </i>
    <i name="e_0_energy">     -6.06852740 </i>
   </energy>
  </scstep>
  <scstep>
   <time name="dav">    0.18    0.18</time>
   <time name="total">    0.40    0.40</time>
   <energy>
    <i name="e_fr_energy">     -6.11755038 </i>
    <i name="e_wo_entrp">     -6.02040397 </i>
    <i name="e_0_energy">     -6.06897717 </i>
   </energy>
  </scstep>
  <scstep>
   <time name="dav">    0.31    0.31</time>
   <time name="total">    1.53    1.53</time>
   <energy>
    <i name="e_fr_energy">     -9.10179097 </i>
    <i name="e_wo_entrp">     -9.04617438 </i>
    <i name="e_0_energy">     -9.07398267 </i>
   </energy>
  </scstep>
  <scstep>
   <time name="dav">    0.32    0.32</time>
   <time name="total">    1.52    1.52</time>
   <energy>
    <i name="e_fr_energy">     -7.80250854 </i>
    <i name="e_wo_entrp">     -7.80191291 </i>
    <i name="e_0_energy">     -7.80221073 </i>
   </energy>
  </scstep>
  <scstep>
   <time name="dav">    0.29    0.29</time>
   <time name="total">    1.51    1.51</time>
   <energy>
    <i name="e_fr_energy">     -4.55059256 </i>
    <i name="e_wo_entrp">     -4.55059253 </i>
    <i name="e_0_energy">     -4.55059255 </i>
   </energy>
  </scstep>
  <scstep>
   <time name="dav">    0.19    0.19</time>
   <time name="total">    1.40    1.40</time>
   <energy>
    <i name="e_fr_energy">     -4.58986485 </i>
    <i name="e_wo_entrp">     -4.58986482 </i>
    <i name="e_0_energy">     -4.58986483 </i>
   </energy>
  </scstep>
  <scstep>
   <time name="dav">    0.19    0.19</time>
   <time name="total">    1.39    1.39</time>
   <energy>
    <i name="e_fr_energy">     -4.46468830 </i>
    <i name="e_wo_entrp">     -4.46468828 </i>
    <i name="e_0_energy">     -4.46468829 </i>
   </energy>
  </scstep>
  <scstep>
   <time name="dav">    0.22    0.22</time>
   <time name="total">    1.42    1.42</time>
   <energy>
    <i name="e_fr_energy">     -5.85632321 </i>
    <i name="e_wo_entrp">     -5.85632243 </i>
    <i name="e_0_energy">     -5.85632282 </i>
   </energy>
  </scstep>
  <scstep>
   <time name="dav">    0.19    0.19</time>
   <time name="total">    1.38    1.38</time>
   <energy>
    <i name="e_fr_energy">     -1.48356490 </i>
    <i name="e_wo_entrp">     -1.43755111 </i>
    <i name="e_0_energy">     -1.46055800 </i>
   </energy>
  </scstep>
  <scstep>
   <time name="dav">    0.26    0.26</time>
   <time name="total">    1.46    1.46</time>
   <energy>
    <i name="e_fr_energy">     -3.14196171 </i>
    <i name="e_wo_entrp">     -3.13902537 </i>
    <i name="e_0_energy">     -3.14049354 </i>
   </energy>
  </scstep>
  <scstep>
   <time name="dav">    0.26    0.26</time>
   <time name="total">    1.47    1.47</time>
   <energy>
    <i name="e_fr_energy">     -3.56055137 </i>
    <i name="e_wo_entrp">     -3.52173071 </i>
    <i name="e_0_energy">     -3.54114104 </i>
   </energy>
  </scstep>
  <scstep>
   <time name="dav">    0.19    0.19</time>
   <time name="total">    1.39    1.39</time>
   <energy>
    <i name="e_fr_energy">     -3.85247674 </i>
    <i name="e_wo_entrp">     -3.81391110 </i>
    <i name="e_0_energy">     -3.83319392 </i>
   </energy>
  </scstep>
  <scstep>
   <time name="dav">    0.19    0.19</time>
   <time name="total">    1.38    1.38</time>
   <energy>
    <i name="e_fr_energy">     -4.15860260 </i>
    <i name="e_wo_entrp">     -4.12003697 </i>
    <i name="e_0_energy">     -4.13931978 </i>
   </energy>
  </scstep>
  <scstep>
   <time name="dav">    0.19    0.19</time>
   <time name="total">    1.39    1.39</time>
   <energy>
    <i name="e_fr_energy">     -4.33933970 </i>
    <i name="e_wo_entrp">     -4.30077405 </i>
    <i name="e_0_energy">     -4.32005687 </i>
   </energy>
  </scstep>
  <scstep>
   <time name="dav">    0.19    0.19</time>
   <time name="total">    1.38    1.38</time>
   <energy>
    <i name="e_fr_energy">     -6.07388524 </i>
    <i name="e_wo_entrp">     -6.03531938 </i>
    <i name="e_0_energy">     -6.05460231 </i>
   </energy>
  </scstep>
  <scstep>
   <time name="dav">    0.19    0.19</time>
   <time name="total">    1.38    1.38</time>
   <energy>
    <i name="e_fr_energy">     -4.58534465 </i>
    <i name="e_wo_entrp">     -4.54677904 </i>
    <i name="e_0_energy">     -4.56606184 </i>
   </energy>
  </scstep>
  <scstep>
   <time name="dav">    0.19    0.19</time>
   <time name="total">    1.38    1.38</time>
   <energy>
    <i name="e_fr_energy">     -1.41078365 </i>
    <i name="e_wo_entrp">     -1.41075096 </i>
    <i name="e_0_energy">     -1.41076730 </i>
   </energy>
  </scstep>
  <scstep>
   <time name="dav">    0.19    0.19</time>
   <time name="total">    1.38    1.39</time>
   <energy>
    <i name="e_fr_energy">     -2.36071195 </i>
    <i name="e_wo_entrp">     -2.35067745 </i>
    <i name="e_0_energy">     -2.35569470 </i>
   </energy>
  </scstep>
  <scstep>
   <time name="dav">    0.19    0.19</time>
   <time name="total">    1.38    1.38</time>
   <energy>
    <i name="e_fr_energy">     -1.00859377 </i>
    <i name="e_wo_entrp">     -0.96366494 </i>
    <i name="e_0_energy">     -0.98612935 </i>
   </energy>
  </scstep>
  <scstep>
   <time name="dav">    0.19    0.19</time>
   <time name="total">    1.39    1.39</time>
   <energy>
    <i name="e_fr_energy">     -1.24850468 </i>
    <i name="e_wo_entrp">     -1.20993919 </i>
    <i name="e_0_energy">     -1.22922193 </i>
   </energy>
  </scstep>
  <scstep>
   <time name="dav">    0.19    0.19</time>
   <time name="total">    1.40    1.40</time>
   <energy>
    <i name="e_fr_energy">     -1.42352773 </i>
    <i name="e_wo_entrp">     -1.38496219 </i>
    <i name="e_0_energy">     -1.40424496 </i>
   </energy>
  </scstep>
  <scstep>
   <time name="dav">    0.19    0.19</time>
   <time name="total">    1.38    1.38</time>
   <energy>
    <i name="e_fr_energy">     -1.49994423 </i>
    <i name="e_wo_entrp">     -1.46137117 </i>
    <i name="e_0_energy">     -1.48065770 </i>
   </energy>
  </scstep>
  <scstep>
   <time name="dav">    0.19    0.19</time>
   <time name="total">    1.39    1.39</time>
   <energy>
    <i name="e_fr_energy">     -1.36024187 </i>
    <i name="e_wo_entrp">     -1.32167634 </i>
    <i name="e_0_energy">     -1.34095911 </i>
   </energy>
  </scstep>
  <scstep>
   <time name="dav">    0.19    0.19</time>
   <time name="total">    1.38    1.38</time>
   <energy>
    <i name="e_fr_energy">     -1.39908899 </i>
    <i name="e_wo_entrp">     -1.36052345 </i>
    <i name="e_0_energy">     -1.37980622 </i>
   </energy>
  </scstep>
  <scstep>
   <time name="dav">    0.19    0.19</time>
   <time name="total">    1.39    1.39</time>
   <energy>
    <i name="e_fr_energy">     -1.18446082 </i>
    <i name="e_wo_entrp">     -1.14582964 </i>
    <i name="e_0_energy">     -1.16514523 </i>
   </energy>
  </scstep>
  <scstep>
   <time name="dav">    0.23    0.23</time>
   <time name="total">    1.41    1.41</time>
   <energy>
    <i name="e_fr_energy">     -2.57294445 </i>
    <i name="e_wo_entrp">     -2.52702875 </i>
    <i name="e_0_energy">     -2.54998660 </i>
   </energy>
  </scstep>
  <scstep>
   <time name="dav">    0.19    0.19</time>
   <time name="total">    1.38    1.38</time>
   <energy>
    <i name="e_fr_energy">     -1.21045856 </i>
    <i name="e_wo_entrp">     -1.17189306 </i>
    <i name="e_0_energy">     -1.19117581 </i>
   </energy>
  </scstep>
  <scstep>
   <time name="dav">    0.19    0.19</time>
   <time name="total">    1.39    1.39</time>
   <energy>
    <i name="e_fr_energy">     -1.98654120 </i>
    <i name="e_wo_entrp">     -1.98654120 </i>
    <i name="e_0_energy">     -1.98654120 </i>
   </energy>
  </scstep>
  <scstep>
   <time name="dav">    0.19    0.19</time>
   <time name="total">    1.38    1.38</time>
   <energy>
    <i name="e_fr_energy">     -1.51682430 </i>
    <i name="e_wo_entrp">     -1.51682427 </i>
    <i name="e_0_energy">     -1.51682429 </i>
   </energy>
  </scstep>
  <scstep>
   <time name="dav">    0.19    0.19</time>
   <time name="total">    1.38    1.38</time>
   <energy>
    <i name="e_fr_energy">     -1.66831409 </i>
    <i name="e_wo_entrp">     -1.66831409 </i>
    <i name="e_0_energy">     -1.66831409 </i>
   </energy>
  </scstep>
  <scstep>
   <time name="dav">    0.22    0.22</time>
   <time name="total">    1.41    1.41</time>
   <energy>
    <i name="e_fr_energy">     -1.86722007 </i>
    <i name="e_wo_entrp">     -1.86722007 </i>
    <i name="e_0_energy">     -1.86722007 </i>
   </energy>
  </scstep>
  <scstep>
   <time name="dav">    0.19    0.19</time>
   <time name="total">    1.38    1.38</time>
   <energy>
    <i name="e_fr_energy">     -2.06402464 </i>
    <i name="e_wo_entrp">     -2.06401654 </i>
    <i name="e_0_energy">     -2.06402059 </i>
   </energy>
  </scstep>
  <scstep>
   <time name="dav">    0.19    0.19</time>
   <time name="total">    1.38    1.38</time>
   <energy>
    <i name="e_fr_energy">     -1.71733891 </i>
    <i name="e_wo_entrp">     -1.71733885 </i>
    <i name="e_0_energy">     -1.71733888 </i>
   </energy>
  </scstep>
  <scstep>
   <time name="dav">    0.19    0.19</time>
   <time name="total">    1.38    1.38</time>
   <energy>
    <i name="e_fr_energy">     -1.84406344 </i>
    <i name="e_wo_entrp">     -1.84405612 </i>
    <i name="e_0_energy">     -1.84405978 </i>
   </energy>
  </scstep>
  <scstep>
   <time name="dav">    0.26    0.26</time>
   <time name="total">    1.45    1.45</time>
   <energy>
    <i name="e_fr_energy">     -1.70239925 </i>
    <i name="e_wo_entrp">     -1.70239920 </i>
    <i name="e_0_energy">     -1.70239923 </i>
   </energy>
  </scstep>
  <scstep>
   <time name="dav">    0.19    0.19</time>
   <time name="total">    1.38    1.38</time>
   <energy>
    <i name="e_fr_energy">     -2.66031845 </i>
    <i name="e_wo_entrp">     -2.62175566 </i>
    <i name="e_0_energy">     -2.64103705 </i>
   </energy>
  </scstep>
  <scstep>
   <time name="dav">    0.19    0.19</time>
   <time name="total">    1.38    1.38</time>
   <energy>
    <i name="e_fr_energy">     -3.46650083 </i>
    <i name="e_wo_entrp">     -3.42793611 </i>
    <i name="e_0_energy">     -3.44721847 </i>
   </energy>
  </scstep>
  <scstep>
   <time name="dav">    0.19    0.19</time>
   <time name="total">    1.38    1.38</time>
   <energy>
    <i name="e_fr_energy">     -3.57266094 </i>
    <i name="e_wo_entrp">     -3.53409630 </i>
    <i name="e_0_energy">     -3.55337862 </i>
   </energy>
  </scstep>
  <scstep>
   <time name="dav">    0.19    0.19</time>
   <time name="total">    1.38    1.38</time>
   <energy>
    <i name="e_fr_energy">     -3.10600645 </i>
    <i name="e_wo_entrp">     -3.06744179 </i>
    <i name="e_0_energy">     -3.08672412 </i>
   </energy>
  </scstep>
  <scstep>
   <time name="dav">    0.19    0.19</time>
   <time name="total">    1.44    1.45</time>
   <energy>
    <i name="e_fr_energy">     -0.77349802 </i>
    <i name="e_wo_entrp">     -0.73493250 </i>
    <i name="e_0_energy">     -0.75421526 </i>
   </energy>
  </scstep>
  <scstep>
   <time name="dav">    0.19    0.19</time>
   <time name="total">    1.38    1.38</time>
   <energy>
    <i name="e_fr_energy">     -0.74480033 </i>
    <i name="e_wo_entrp">     -0.70623478 </i>
    <i name="e_0_energy">     -0.72551755 </i>
   </energy>
  </scstep>
  <scstep>
   <time name="dav">    0.19    0.19</time>
   <time name="total">    1.38    1.38</time>
   <energy>
    <i name="e_fr_energy">     -0.87009678 </i>
    <i name="e_wo_entrp">     -0.83153123 </i>
    <i name="e_0_energy">     -0.85081401 </i>
   </energy>
  </scstep>
  <scstep>
   <time name="dav">    0.20    0.20</time>
   <time name="total">    1.39    1.40</time>
   <energy>
    <i name="e_fr_energy">     -1.50528158 </i>
    <i name="e_wo_entrp">     -1.42740448 </i>
    <i name="e_0_energy">     -1.46634303 </i>
   </energy>
  </scstep>
  <scstep>
   <time name="dav">    0.19    0.19</time>
   <time name="total">    1.39    1.39</time>
   <energy>
    <i name="e_fr_energy">     -2.75507445 </i>
    <i name="e_wo_entrp">     -2.70291754 </i>
    <i name="e_0_energy">     -2.72899600 </i>
   </energy>
  </scstep>
  <scstep>
   <time name="dav">    0.19    0.19</time>
   <time name="total">    1.39    1.39</time>
   <energy>
    <i name="e_fr_energy">     -2.68240088 </i>
    <i name="e_wo_entrp">     -2.63681037 </i>
    <i name="e_0_energy">     -2.65960562 </i>
   </energy>
  </scstep>
  <scstep>
   <time name="dav">    0.19    0.19</time>
   <time name="total">    1.37    1.37</time>
   <energy>
    <i name="e_fr_energy">     -2.39770602 </i>
    <i name="e_wo_entrp">     -2.33916253 </i>
    <i name="e_0_energy">     -2.36843427 </i>
   </energy>
  </scstep>
  <scstep>
   <time name="dav">    0.19    0.19</time>
   <time name="total">    1.39    1.39</time>
   <energy>
    <i name="e_fr_energy">     -1.25838507 </i>
    <i name="e_wo_entrp">     -1.19342929 </i>
    <i name="e_0_energy">     -1.22590718 </i>
   </energy>
  </scstep>
  <scstep>
   <time name="dav">    0.20    0.20</time>
   <time name="total">    1.40    1.40</time>
   <energy>
    <i name="e_fr_energy">     -1.10532626 </i>
    <i name="e_wo_entrp">     -1.01559546 </i>
    <i name="e_0_energy">     -1.06046086 </i>
   </energy>
  </scstep>
  <scstep>
   <time name="dav">    0.19    0.19</time>
   <time name="total">    1.40    1.40</time>
   <energy>
    <i name="e_fr_energy">     -3.48358034 </i>
    <i name="e_wo_entrp">     -3.44217406 </i>
    <i name="e_0_energy">     -3.46287720 </i>
   </energy>
  </scstep>
  <scstep>
   <time name="dav">    0.19    0.19</time>
   <time name="total">    1.38    1.38</time>
   <energy>
    <i name="e_fr_energy">     -1.24441855 </i>
    <i name="e_wo_entrp">     -1.20585304 </i>
    <i name="e_0_energy">     -1.22513579 </i>
   </energy>
  </scstep>
  <scstep>
   <time name="dav">    0.19    0.19</time>
   <time name="total">    1.38    1.38</time>
   <energy>
    <i name="e_fr_energy">     -1.36014973 </i>
    <i name="e_wo_entrp">     -1.32158419 </i>
    <i name="e_0_energy">     -1.34086696 </i>
   </energy>
  </scstep>
  <scstep>
   <time name="dav">    0.19    0.19</time>
   <time name="total">    1.38    1.38</time>
   <energy>
    <i name="e_fr_energy">     -1.56613251 </i>
    <i name="e_wo_entrp">     -1.52756653 </i>
    <i name="e_0_energy">     -1.54684952 </i>
   </energy>
  </scstep>
  <scstep>
   <time name="dav">    0.19    0.19</time>
   <time name="total">    1.38    1.38</time>
   <energy>
    <i name="e_fr_energy">     -1.48397082 </i>
    <i name="e_wo_entrp">     -1.44540528 </i>
    <i name="e_0_energy">     -1.46468805 </i>
   </energy>
  </scstep>
  <scstep>
   <time name="dav">    0.26    0.26</time>
   <time name="total">    1.46    1.46</time>
   <energy>
    <i name="e_fr_energy">     -1.48033758 </i>
    <i name="e_wo_entrp">     -1.44177204 </i>
    <i name="e_0_energy">     -1.46105481 </i>
   </energy>
  </scstep>
  <scstep>
   <time name="dav">    0.19    0.19</time>
   <time name="total">    1.39    1.39</time>
   <energy>
    <i name="e_fr_energy">     -1.49327890 </i>
    <i name="e_wo_entrp">     -1.45471336 </i>
    <i name="e_0_energy">     -1.47399613 </i>
   </energy>
  </scstep>
  <scstep>
   <time name="dav">    0.19    0.19</time>
   <time name="total">    1.39    1.39</time>
   <energy>
    <i name="e_fr_energy">     -1.52188970 </i>
    <i name="e_wo_entrp">     -1.48332147 </i>
    <i name="e_0_energy">     -1.50260558 </i>
   </energy>
  </scstep>
  <scstep>
   <time name="dav">    0.19    0.19</time>
   <time name="total">    1.38    1.38</time>
   <energy>
    <i name="e_fr_energy">     -1.55405468 </i>
    <i name="e_wo_entrp">     -1.51484594 </i>
    <i name="e_0_energy">     -1.53445031 </i>
   </energy>
  </scstep>
  <scstep>
   <time name="dav">    0.19    0.19</time>
   <time name="total">    1.38    1.38</time>
   <energy>
    <i name="e_fr_energy">     -3.46703817 </i>
    <i name="e_wo_entrp">     -3.42847295 </i>
    <i name="e_0_energy">     -3.44775556 </i>
   </energy>
  </scstep>
  <scstep>
   <time name="dav">    0.19    0.19</time>
   <time name="total">    1.39    1.39</time>
   <energy>
    <i name="e_fr_energy">     -1.39523367 </i>
    <i name="e_wo_entrp">     -1.35621128 </i>
    <i name="e_0_energy">     -1.37572248 </i>
   </energy>
  </scstep>
  <scstep>
   <time name="dav">    0.19    0.19</time>
   <time name="total">    1.39    1.39</time>
   <energy>
    <i name="e_fr_energy">     -3.70745795 </i>
    <i name="e_wo_entrp">     -3.66889274 </i>
    <i name="e_0_energy">     -3.68817534 </i>
   </energy>
  </scstep>
  <scstep>
   <time name="dav">    0.19    0.19</time>
   <time name="total">    1.39    1.39</time>
   <energy>
    <i name="e_fr_energy">     -2.27198410 </i>
    <i name="e_wo_entrp">     -2.23231774 </i>
    <i name="e_0_energy">     -2.25215092 </i>
   </energy>
  </scstep>
  <scstep>
   <time name="dav">    0.19    0.19</time>
   <time name="total">    1.41    1.41</time>
   <energy>
    <i name="e_fr_energy">     -2.87127938 </i>
    <i name="e_wo_entrp">     -2.83271593 </i>
    <i name="e_0_energy">     -2.85199765 </i>
   </energy>
  </scstep>
  <scstep>
   <time name="dav">    0.19    0.19</time>
   <time name="total">    1.39    1.39</time>
   <energy>
    <i name="e_fr_energy">     -4.22247879 </i>
    <i name="e_wo_entrp">     -4.18391467 </i>
    <i name="e_0_energy">     -4.20319673 </i>
   </energy>
  </scstep>
  <scstep>
   <time name="dav">    0.33    0.33</time>
   <time name="total">    1.52    1.52</time>
   <energy>
    <i name="e_fr_energy">     -4.07444544 </i>
    <i name="e_wo_entrp">     -4.03588141 </i>
    <i name="e_0_energy">     -4.05516343 </i>
   </energy>
  </scstep>
  <scstep>
   <time name="dav">    0.19    0.19</time>
   <time name="total">    1.38    1.38</time>
   <energy>
    <i name="e_fr_energy">     -4.47713527 </i>
    <i name="e_wo_entrp">     -4.43857124 </i>
    <i name="e_0_energy">     -4.45785325 </i>
   </energy>
  </scstep>
  <scstep>
   <time name="dav">    0.19    0.19</time>
   <time name="total">    1.40    1.40</time>
   <energy>
    <i name="e_fr_energy">     -4.65824417 </i>
    <i name="e_wo_entrp">     -4.61968018 </i>
    <i name="e_0_energy">     -4.63896217 </i>
   </energy>
  </scstep>
  <scstep>
   <time name="dav">    0.19    0.19</time>
   <time name="total">    1.39    1.39</time>
   <energy>
    <i name="e_fr_energy">     -4.73795520 </i>
    <i name="e_wo_entrp">     -4.69939121 </i>
    <i name="e_0_energy">     -4.71867321 </i>
   </energy>
  </scstep>
  <scstep>
   <time name="dav">    0.19    0.19</time>
   <time name="total">    1.38    1.38</time>
   <energy>
    <i name="e_fr_energy">     -1.56324317 </i>
    <i name="e_wo_entrp">     -1.56237638 </i>
    <i name="e_0_energy">     -1.56280977 </i>
   </energy>
  </scstep>
  <scstep>
   <time name="dav">    0.23    0.23</time>
   <time name="total">    1.43    1.43</time>
   <energy>
    <i name="e_fr_energy">     -1.13435229 </i>
    <i name="e_wo_entrp">     -1.12951418 </i>
    <i name="e_0_energy">     -1.13193323 </i>
   </energy>
  </scstep>
  <scstep>
   <time name="dav">    0.19    0.19</time>
   <time name="total">    1.39    1.39</time>
   <energy>
    <i name="e_fr_energy">     -1.04086928 </i>
    <i name="e_wo_entrp">     -1.04086928 </i>
    <i name="e_0_energy">     -1.04086928 </i>
   </energy>
  </scstep>
  <scstep>
   <time name="dav">    0.19    0.19</time>
   <time name="total">    1.39    1.39</time>
   <energy>
    <i name="e_fr_energy">     -0.30744441 </i>
    <i name="e_wo_entrp">     -0.30729343 </i>
    <i name="e_0_energy">     -0.30736892 </i>
   </energy>
  </scstep>
  <scstep>
   <time name="dav">    0.19    0.19</time>
   <time name="total">    1.38    1.38</time>
   <energy>
    <i name="e_fr_energy">      0.29706856 </i>
    <i name="e_wo_entrp">      0.36399447 </i>
    <i name="e_0_energy">      0.33053151 </i>
   </energy>
  </scstep>
  <scstep>
   <time name="dav">    0.19    0.19</time>
   <time name="total">    1.38    1.38</time>
   <energy>
    <i name="e_fr_energy">     -1.72902871 </i>
    <i name="e_wo_entrp">     -1.68893259 </i>
    <i name="e_0_energy">     -1.70898065 </i>
   </energy>
  </scstep>
  <scstep>
   <time name="dav">    0.19    0.19</time>
   <time name="total">    1.39    1.39</time>
   <energy>
    <i name="e_fr_energy">      4.51909302 </i>
    <i name="e_wo_entrp">      4.55765860 </i>
    <i name="e_0_energy">      4.53837581 </i>
   </energy>
  </scstep>
  <scstep>
   <time name="dav">    0.33    0.33</time>
   <time name="total">    1.53    1.53</time>
   <energy>
    <i name="e_fr_energy">      8.12206981 </i>
    <i name="e_wo_entrp">      8.16063539 </i>
    <i name="e_0_energy">      8.14135260 </i>
   </energy>
  </scstep>
  <scstep>
   <time name="dav">    0.19    0.19</time>
   <time name="total">    1.38    1.38</time>
   <energy>
    <i name="e_fr_energy">      9.71691112 </i>
    <i name="e_wo_entrp">      9.75547670 </i>
    <i name="e_0_energy">      9.73619391 </i>
   </energy>
  </scstep>
  <scstep>
   <time name="dav">    0.19    0.19</time>
   <time name="total">    1.39    1.39</time>
   <energy>
    <i name="e_fr_energy">     10.47002926 </i>
    <i name="e_wo_entrp">     10.50859484 </i>
    <i name="e_0_energy">     10.48931205 </i>
   </energy>
  </scstep>
  <scstep>
   <time name="dav">    0.19    0.19</time>
   <time name="total">    1.38    1.38</time>
   <energy>
    <i name="e_fr_energy">      7.37065227 </i>
    <i name="e_wo_entrp">      7.37065378 </i>
    <i name="e_0_energy">      7.37065302 </i>
   </energy>
  </scstep>
  <scstep>
   <time name="dav">    0.26    0.26</time>
   <time name="total">    1.45    1.45</time>
   <energy>
    <i name="e_fr_energy">     -1.80823993 </i>
    <i name="e_wo_entrp">     -1.74172017 </i>
    <i name="e_0_energy">     -1.77498005 </i>
   </energy>
  </scstep>
  <scstep>
   <time name="dav">    0.19    0.19</time>
   <time name="total">    1.41    1.41</time>
   <energy>
    <i name="e_fr_energy">     -0.91791420 </i>
    <i name="e_wo_entrp">     -0.88912665 </i>
    <i name="e_0_energy">     -0.90352043 </i>
   </energy>
  </scstep>
  <scstep>
   <time name="dav">    0.19    0.19</time>
   <time name="total">    1.39    1.39</time>
   <energy>
    <i name="e_fr_energy">     -1.31575300 </i>
    <i name="e_wo_entrp">     -1.27718663 </i>
    <i name="e_0_energy">     -1.29646981 </i>
   </energy>
  </scstep>
  <scstep>
   <time name="dav">    0.19    0.19</time>
   <time name="total">    1.39    1.39</time>
   <energy>
    <i name="e_fr_energy">     -1.41020049 </i>
    <i name="e_wo_entrp">     -1.37163513 </i>
    <i name="e_0_energy">     -1.39091781 </i>
   </energy>
  </scstep>
  <scstep>
   <time name="dav">    0.19    0.19</time>
   <time name="total">    1.40    1.40</time>
   <energy>
    <i name="e_fr_energy">     -1.36729908 </i>
    <i name="e_wo_entrp">     -1.32873370 </i>
    <i name="e_0_energy">     -1.34801639 </i>
   </energy>
  </scstep>
  <scstep>
   <time name="dav">    0.33    0.33</time>
   <time name="total">    1.53    1.53</time>
   <energy>
    <i name="e_fr_energy">     -1.37195683 </i>
    <i name="e_wo_entrp">     -1.33339143 </i>
    <i name="e_0_energy">     -1.35267413 </i>
   </energy>
  </scstep>
  <scstep>
   <time name="dav">    0.19    0.19</time>
   <time name="total">    1.38    1.38</time>
   <energy>
    <i name="e_fr_energy">     -1.32675984 </i>
    <i name="e_wo_entrp">     -1.28819444 </i>
    <i name="e_0_energy">     -1.30747714 </i>
   </energy>
  </scstep>
  <scstep>
   <time name="dav">    0.19    0.19</time>
   <time name="total">    1.38    1.38</time>
   <energy>
    <i name="e_fr_energy">     -1.34583690 </i>
    <i name="e_wo_entrp">     -1.30727150 </i>
    <i name="e_0_energy">     -1.32655420 </i>
   </energy>
  </scstep>
  <scstep>
   <time name="dav">    0.19    0.19</time>
   <time name="total">    1.38    1.38</time>
   <energy>
    <i name="e_fr_energy">     -1.72464293 </i>
    <i name="e_wo_entrp">     -1.67588956 </i>
    <i name="e_0_energy">     -1.70026624 </i>
   </energy>
  </scstep>
  <scstep>
   <time name="dav">    0.19    0.19</time>
   <time name="total">    1.38    1.38</time>
   <energy>
    <i name="e_fr_energy">     -1.70451904 </i>
    <i name="e_wo_entrp">     -1.66581140 </i>
    <i name="e_0_energy">     -1.68516522 </i>
   </energy>
  </scstep>
  <scstep>
   <time name="dav">    0.19    0.19</time>
   <time name="total">    1.38    1.38</time>
   <energy>
    <i name="e_fr_energy">     -1.43008722 </i>
    <i name="e_wo_entrp">     -1.37926426 </i>
    <i name="e_0_energy">     -1.40467574 </i>
   </energy>
  </scstep>
  <scstep>
   <time name="dav">    0.19    0.19</time>
   <time name="total">    1.39    1.39</time>
   <energy>
    <i name="e_fr_energy">     -2.98287872 </i>
    <i name="e_wo_entrp">     -2.98287872 </i>
    <i name="e_0_energy">     -2.98287872 </i>
   </energy>
  </scstep>
  <scstep>
   <time name="dav">    0.19    0.19</time>
   <time name="total">    1.39    1.39</time>
   <energy>
    <i name="e_fr_energy">     -1.93543406 </i>
    <i name="e_wo_entrp">     -1.92162478 </i>
    <i name="e_0_energy">     -1.92852942 </i>
   </energy>
  </scstep>
  <scstep>
   <time name="dav">    0.19    0.19</time>
   <time name="total">    1.38    1.38</time>
   <energy>
    <i name="e_fr_energy">     -2.26093620 </i>
    <i name="e_wo_entrp">     -2.26061678 </i>
    <i name="e_0_energy">     -2.26077649 </i>
   </energy>
  </scstep>
  <scstep>
   <time name="dav">    0.19    0.19</time>
   <time name="total">    1.39    1.39</time>
   <energy>
    <i name="e_fr_energy">     -1.05999604 </i>
    <i name="e_wo_entrp">     -1.01083049 </i>
    <i name="e_0_energy">     -1.03541326 </i>
   </energy>
  </scstep>
  <scstep>
   <time name="dav">    0.19    0.19</time>
   <time name="total">    1.39    1.39</time>
   <energy>
    <i name="e_fr_energy">     -1.42344998 </i>
    <i name="e_wo_entrp">     -1.38488450 </i>
    <i name="e_0_energy">     -1.40416724 </i>
   </energy>
  </scstep>
  <scstep>
   <time name="dav">    0.22    0.22</time>
   <time name="total">    1.42    1.42</time>
   <energy>
    <i name="e_fr_energy">     -1.54155540 </i>
    <i name="e_wo_entrp">     -1.48514117 </i>
    <i name="e_0_energy">     -1.51334829 </i>
   </energy>
  </scstep>
  <scstep>
   <time name="dav">    0.19    0.19</time>
   <time name="total">    1.40    1.40</time>
   <energy>
    <i name="e_fr_energy">     -1.42970928 </i>
    <i name="e_wo_entrp">     -1.38786153 </i>
    <i name="e_0_energy">     -1.40878540 </i>
   </energy>
  </scstep>
  <scstep>
   <time name="dav">    0.19    0.19</time>
   <time name="total">    1.39    1.39</time>
   <energy>
    <i name="e_fr_energy">     -1.47885226 </i>
    <i name="e_wo_entrp">     -1.43950326 </i>
    <i name="e_0_energy">     -1.45917776 </i>
   </energy>
  </scstep>
  <scstep>
   <time name="dav">    0.19    0.19</time>
   <time name="total">    1.38    1.38</time>
   <energy>
    <i name="e_fr_energy">     -2.77791300 </i>
    <i name="e_wo_entrp">     -2.77791289 </i>
    <i name="e_0_energy">     -2.77791295 </i>
   </energy>
  </scstep>
  <scstep>
   <time name="dav">    0.19    0.19</time>
   <time name="total">    1.39    1.39</time>
   <energy>
    <i name="e_fr_energy">     -1.32639801 </i>
    <i name="e_wo_entrp">     -1.28777602 </i>
    <i name="e_0_energy">     -1.30708701 </i>
   </energy>
  </scstep>
  <scstep>
   <time name="dav">    0.19    0.19</time>
   <time name="total">    1.40    1.40</time>
   <energy>
    <i name="e_fr_energy">     -2.29511572 </i>
    <i name="e_wo_entrp">     -2.29452055 </i>
    <i name="e_0_energy">     -2.29481814 </i>
   </energy>
  </scstep>
  <scstep>
   <time name="dav">    0.19    0.19</time>
   <time name="total">    1.39    1.39</time>
   <energy>
    <i name="e_fr_energy">     -1.36084549 </i>
    <i name="e_wo_entrp">     -1.31445247 </i>
    <i name="e_0_energy">     -1.33764898 </i>
   </energy>
  </scstep>
  <scstep>
   <time name="dav">    0.19    0.19</time>
   <time name="total">    1.38    1.38</time>
   <energy>
    <i name="e_fr_energy">     -2.38722233 </i>
    <i name="e_wo_entrp">     -2.38617720 </i>
    <i name="e_0_energy">     -2.38669976 </i>
   </energy>
  </scstep>
  <scstep>
   <time name="dav">    0.18    0.18</time>
   <time name="total">    1.38    1.38</time>
   <energy>
    <i name="e_fr_energy">     -1.34369933 </i>
    <i name="e_wo_entrp">     -1.29553042 </i>
    <i name="e_0_energy">     -1.31961487 </i>
   </energy>
  </scstep>
  <scstep>
   <time name="dav">    0.19    0.19</time>
   <time name="total">    1.38    1.38</time>
   <energy>
    <i name="e_fr_energy">     -1.94782548 </i>
    <i name="e_wo_entrp">     -1.90477583 </i>
    <i name="e_0_energy">     -1.92630066 </i>
   </energy>
  </scstep>
  <scstep>
   <time name="dav">    0.19    0.19</time>
   <time name="total">    1.38    1.38</time>
   <energy>
    <i name="e_fr_energy">     -1.95577885 </i>
    <i name="e_wo_entrp">     -1.91109295 </i>
    <i name="e_0_energy">     -1.93343590 </i>
   </energy>
  </scstep>
  <scstep>
   <time name="dav">    0.19    0.19</time>
   <time name="total">    1.38    1.38</time>
   <energy>
    <i name="e_fr_energy">     -2.19152995 </i>
    <i name="e_wo_entrp">     -2.14745701 </i>
    <i name="e_0_energy">     -2.16949348 </i>
   </energy>
  </scstep>
  <scstep>
   <time name="dav">    0.19    0.19</time>
   <time name="total">    1.38    1.38</time>
   <energy>
    <i name="e_fr_energy">     -2.46782013 </i>
    <i name="e_wo_entrp">     -2.44581503 </i>
    <i name="e_0_energy">     -2.45681758 </i>
   </energy>
  </scstep>
  <scstep>
   <time name="dav">    0.19    0.19</time>
   <time name="total">    1.38    1.38</time>
   <energy>
    <i name="e_fr_energy">     -1.04172081 </i>
    <i name="e_wo_entrp">     -0.99060898 </i>
    <i name="e_0_energy">     -1.01616490 </i>
   </energy>
  </scstep>
  <scstep>
   <time name="dav">    0.19    0.19</time>
   <time name="total">    1.38    1.38</time>
   <energy>
    <i name="e_fr_energy">     -2.10757668 </i>
    <i name="e_wo_entrp">     -2.06896324 </i>
    <i name="e_0_energy">     -2.08826996 </i>
   </energy>
  </scstep>
  <scstep>
   <time name="dav">    0.19    0.19</time>
   <time name="total">    1.38    1.38</time>
   <energy>
    <i name="e_fr_energy">     -1.11555570 </i>
    <i name="e_wo_entrp">     -1.06009839 </i>
    <i name="e_0_energy">     -1.08782704 </i>
   </energy>
  </scstep>
  <scstep>
   <time name="dav">    0.19    0.19</time>
   <time name="total">    1.38    1.38</time>
   <energy>
    <i name="e_fr_energy">     -1.99336533 </i>
    <i name="e_wo_entrp">     -1.95479979 </i>
    <i name="e_0_energy">     -1.97408256 </i>
   </energy>
  </scstep>
  <scstep>
   <time name="dav">    0.19    0.19</time>
   <time name="total">    1.38    1.38</time>
   <energy>
    <i name="e_fr_energy">     -1.12556855 </i>
    <i name="e_wo_entrp">     -1.08301684 </i>
    <i name="e_0_energy">     -1.10429269 </i>
   </energy>
  </scstep>
  <scstep>
   <time name="dav">    0.19    0.19</time>
   <time name="total">    1.38    1.38</time>
   <energy>
    <i name="e_fr_energy">      0.56667205 </i>
    <i name="e_wo_entrp">      0.60823128 </i>
    <i name="e_0_energy">      0.58745166 </i>
   </energy>
  </scstep>
  <scstep>
   <time name="dav">    0.26    0.26</time>
   <time name="total">    1.46    1.46</time>
   <energy>
    <i name="e_fr_energy">      0.94861065 </i>
    <i name="e_wo_entrp">      1.02216045 </i>
    <i name="e_0_energy">      0.98538555 </i>
   </energy>
  </scstep>
  <scstep>
   <time name="dav">    0.22    0.22</time>
   <time name="total">    1.42    1.42</time>
   <energy>
    <i name="e_fr_energy">      2.40336291 </i>
    <i name="e_wo_entrp">      2.44503126 </i>
    <i name="e_0_energy">      2.42419709 </i>
   </energy>
  </scstep>
  <scstep>
   <time name="dav">    0.19    0.19</time>
   <time name="total">    1.38    1.38</time>
   <energy>
    <i name="e_fr_energy">      2.17976291 </i>
    <i name="e_wo_entrp">      2.22339219 </i>
    <i name="e_0_energy">      2.20157755 </i>
   </energy>
  </scstep>
  <scstep>
   <time name="dav">    0.19    0.19</time>
   <time name="total">    1.39    1.39</time>
   <energy>
    <i name="e_fr_energy">      1.37513366 </i>
    <i name="e_wo_entrp">      1.45064912 </i>
    <i name="e_0_energy">      1.41289139 </i>
   </energy>
  </scstep>
  <scstep>
   <time name="dav">    0.19    0.19</time>
   <time name="total">    1.38    1.38</time>
   <energy>
    <i name="e_fr_energy">      1.92690317 </i>
    <i name="e_wo_entrp">      1.96546853 </i>
    <i name="e_0_energy">      1.94618585 </i>
   </energy>
  </scstep>
  <scstep>
   <time name="dav">    0.19    0.19</time>
   <time name="total">    1.38    1.38</time>
   <energy>
    <i name="e_fr_energy">      3.44763896 </i>
    <i name="e_wo_entrp">      3.48620373 </i>
    <i name="e_0_energy">      3.46692135 </i>
   </energy>
  </scstep>
  <scstep>
   <time name="dav">    0.19    0.19</time>
   <time name="total">    1.38    1.38</time>
   <energy>
    <i name="e_fr_energy">      3.08302330 </i>
    <i name="e_wo_entrp">      3.12159040 </i>
    <i name="e_0_energy">      3.10230685 </i>
   </energy>
  </scstep>
  <scstep>
   <time name="dav">    0.19    0.19</time>
   <time name="total">    1.38    1.38</time>
   <energy>
    <i name="e_fr_energy">      2.27825752 </i>
    <i name="e_wo_entrp">      2.33923743 </i>
    <i name="e_0_energy">      2.30874748 </i>
   </energy>
  </scstep>
  <scstep>
   <time name="dav">    0.19    0.19</time>
   <time name="total">    1.39    1.39</time>
   <energy>
    <i name="e_fr_energy">      0.93080160 </i>
    <i name="e_wo_entrp">      0.96948938 </i>
    <i name="e_0_energy">      0.95014549 </i>
   </energy>
  </scstep>
  <scstep>
   <time name="dav">    0.26    0.26</time>
   <time name="total">    1.46    1.46</time>
   <energy>
    <i name="e_fr_energy">     -0.41705883 </i>
    <i name="e_wo_entrp">     -0.37849326 </i>
    <i name="e_0_energy">     -0.39777605 </i>
   </energy>
  </scstep>
  <scstep>
   <time name="dav">    0.22    0.22</time>
   <time name="total">    1.42    1.42</time>
   <energy>
    <i name="e_fr_energy">     -1.03056363 </i>
    <i name="e_wo_entrp">     -0.99018557 </i>
    <i name="e_0_energy">     -1.01037460 </i>
   </energy>
  </scstep>
  <scstep>
   <time name="dav">    0.19    0.19</time>
   <time name="total">    1.33    1.33</time>
   <energy>
    <i name="e_fr_energy">     -1.15513664 </i>
    <i name="e_wo_entrp">     -1.09225424 </i>
    <i name="e_0_energy">     -1.12369544 </i>
   </energy>
  </scstep>
  <scstep>
   <time name="dav">    0.19    0.19</time>
   <time name="total">    1.37    1.37</time>
   <energy>
    <i name="e_fr_energy">     -1.06204609 </i>
    <i name="e_wo_entrp">     -1.01910996 </i>
    <i name="e_0_energy">     -1.04057802 </i>
   </energy>
  </scstep>
  <scstep>
   <time name="dav">    0.19    0.19</time>
   <time name="total">    1.41    1.42</time>
   <energy>
    <i name="e_fr_energy">     -1.10195149 </i>
    <i name="e_wo_entrp">     -1.02761766 </i>
    <i name="e_0_energy">     -1.06478458 </i>
   </energy>
  </scstep>
  <scstep>
   <time name="dav">    0.22    0.22</time>
   <time name="total">    1.42    1.42</time>
   <energy>
    <i name="e_fr_energy">     -1.19561599 </i>
    <i name="e_wo_entrp">     -1.15214952 </i>
    <i name="e_0_energy">     -1.17388275 </i>
   </energy>
  </scstep>
  <scstep>
   <time name="dav">    0.19    0.19</time>
   <time name="total">    1.38    1.38</time>
   <energy>
    <i name="e_fr_energy">     -1.39389947 </i>
    <i name="e_wo_entrp">     -1.35409253 </i>
    <i name="e_0_energy">     -1.37399600 </i>
   </energy>
  </scstep>
  <scstep>
   <time name="dav">    0.19    0.19</time>
   <time name="total">    1.38    1.38</time>
   <energy>
    <i name="e_fr_energy">     -1.35909784 </i>
    <i name="e_wo_entrp">     -1.31788202 </i>
    <i name="e_0_energy">     -1.33848993 </i>
   </energy>
  </scstep>
  <scstep>
   <time name="dav">    0.19    0.19</time>
   <time name="total">    1.38    1.38</time>
   <energy>
    <i name="e_fr_energy">     -1.38553240 </i>
    <i name="e_wo_entrp">     -1.34464995 </i>
    <i name="e_0_energy">     -1.36509117 </i>
   </energy>
  </scstep>
  <scstep>
   <time name="dav">    0.22    0.22</time>
   <time name="total">    1.41    1.41</time>
   <energy>
    <i name="e_fr_energy">     -1.38546632 </i>
    <i name="e_wo_entrp">     -1.34456725 </i>
    <i name="e_0_energy">     -1.36501679 </i>
   </energy>
  </scstep>
  <scstep>
   <time name="dav">    0.19    0.19</time>
   <time name="total">    1.38    1.38</time>
   <energy>
    <i name="e_fr_energy">     -1.38242105 </i>
    <i name="e_wo_entrp">     -1.34385451 </i>
    <i name="e_0_energy">     -1.36313778 </i>
   </energy>
  </scstep>
  <scstep>
   <time name="dav">    0.19    0.19</time>
   <time name="total">    1.39    1.39</time>
   <energy>
    <i name="e_fr_energy">     -1.29765026 </i>
    <i name="e_wo_entrp">     -1.25907433 </i>
    <i name="e_0_energy">     -1.27836229 </i>
   </energy>
  </scstep>
  <scstep>
   <time name="dav">    0.19    0.19</time>
   <time name="total">    1.38    1.38</time>
   <energy>
    <i name="e_fr_energy">     -1.19990441 </i>
    <i name="e_wo_entrp">     -1.15888736 </i>
    <i name="e_0_energy">     -1.17939589 </i>
   </energy>
  </scstep>
  <scstep>
   <time name="dav">    0.19    0.19</time>
   <time name="total">    1.38    1.38</time>
   <energy>
    <i name="e_fr_energy">     -1.18396973 </i>
    <i name="e_wo_entrp">     -1.12237596 </i>
    <i name="e_0_energy">     -1.15317285 </i>
   </energy>
  </scstep>
  <scstep>
   <time name="dav">    0.19    0.19</time>
   <time name="total">    1.38    1.38</time>
   <energy>
    <i name="e_fr_energy">     -1.33574994 </i>
    <i name="e_wo_entrp">     -1.29711593 </i>
    <i name="e_0_energy">     -1.31643293 </i>
   </energy>
  </scstep>
  <scstep>
   <time name="dav">    0.19    0.19</time>
   <time name="total">    1.37    1.37</time>
   <energy>
    <i name="e_fr_energy">     -1.23709540 </i>
    <i name="e_wo_entrp">     -1.19852972 </i>
    <i name="e_0_energy">     -1.21781256 </i>
   </energy>
  </scstep>
  <scstep>
   <time name="dav">    0.26    0.26</time>
   <time name="total">    1.45    1.45</time>
   <energy>
    <i name="e_fr_energy">     -1.26589702 </i>
    <i name="e_wo_entrp">     -1.22535911 </i>
    <i name="e_0_energy">     -1.24562807 </i>
   </energy>
  </scstep>
  <scstep>
   <time name="dav">    0.19    0.19</time>
   <time name="total">    1.38    1.38</time>
   <energy>
    <i name="e_fr_energy">     -1.26500265 </i>
    <i name="e_wo_entrp">     -1.22538670 </i>
    <i name="e_0_energy">     -1.24519468 </i>
   </energy>
  </scstep>
  <scstep>
   <time name="dav">    0.19    0.19</time>
   <time name="total">    1.39    1.39</time>
   <energy>
    <i name="e_fr_energy">     -1.26886519 </i>
    <i name="e_wo_entrp">     -1.22910698 </i>
    <i name="e_0_energy">     -1.24898608 </i>
   </energy>
  </scstep>
  <scstep>
   <time name="dav">    0.19    0.19</time>
   <time name="total">    1.39    1.39</time>
   <energy>
    <i name="e_fr_energy">     -1.27098734 </i>
    <i name="e_wo_entrp">     -1.23055359 </i>
    <i name="e_0_energy">     -1.25077047 </i>
   </energy>
  </scstep>
  <scstep>
   <time name="dav">    0.19    0.19</time>
   <time name="total">    1.39    1.39</time>
   <energy>
    <i name="e_fr_energy">     -1.28176299 </i>
    <i name="e_wo_entrp">     -1.24121508 </i>
    <i name="e_0_energy">     -1.26148904 </i>
   </energy>
  </scstep>
  <scstep>
   <time name="dav">    0.19    0.19</time>
   <time name="total">    1.38    1.38</time>
   <energy>
    <i name="e_fr_energy">     -1.30233002 </i>
    <i name="e_wo_entrp">     -1.25986584 </i>
    <i name="e_0_energy">     -1.28109793 </i>
   </energy>
  </scstep>
  <scstep>
   <time name="dav">    0.19    0.19</time>
   <time name="total">    1.37    1.37</time>
   <energy>
    <i name="e_fr_energy">     -1.27569320 </i>
    <i name="e_wo_entrp">     -1.23560229 </i>
    <i name="e_0_energy">     -1.25564775 </i>
   </energy>
  </scstep>
  <scstep>
   <time name="dav">    0.19    0.19</time>
   <time name="total">    1.37    1.37</time>
   <energy>
    <i name="e_fr_energy">     -1.30574328 </i>
    <i name="e_wo_entrp">     -1.26459341 </i>
    <i name="e_0_energy">     -1.28516835 </i>
   </energy>
  </scstep>
  <scstep>
   <time name="dav">    0.19    0.19</time>
   <time name="total">    1.39    1.39</time>
   <energy>
    <i name="e_fr_energy">     -1.44186750 </i>
    <i name="e_wo_entrp">     -1.38548722 </i>
    <i name="e_0_energy">     -1.41367736 </i>
   </energy>
  </scstep>
  <scstep>
   <time name="dav">    0.19    0.19</time>
   <time name="total">    1.39    1.39</time>
   <energy>
    <i name="e_fr_energy">     -1.23022133 </i>
    <i name="e_wo_entrp">     -1.17722452 </i>
    <i name="e_0_energy">     -1.20372292 </i>
   </energy>
  </scstep>
  <scstep>
   <time name="dav">    0.19    0.19</time>
   <time name="total">    1.38    1.38</time>
   <energy>
    <i name="e_fr_energy">     -1.39552092 </i>
    <i name="e_wo_entrp">     -1.34921000 </i>
    <i name="e_0_energy">     -1.37236546 </i>
   </energy>
  </scstep>
  <scstep>
   <time name="dav">    0.19    0.19</time>
   <time name="total">    1.41    1.42</time>
   <energy>
    <i name="e_fr_energy">     -1.38437707 </i>
    <i name="e_wo_entrp">     -1.33416262 </i>
    <i name="e_0_energy">     -1.35926984 </i>
   </energy>
  </scstep>
  <scstep>
   <time name="dav">    0.19    0.19</time>
   <time name="total">    1.38    1.38</time>
   <energy>
    <i name="e_fr_energy">     -1.25930033 </i>
    <i name="e_wo_entrp">     -1.21230978 </i>
    <i name="e_0_energy">     -1.23580505 </i>
   </energy>
  </scstep>
  <scstep>
   <time name="dav">    0.19    0.19</time>
   <time name="total">    1.38    1.38</time>
   <energy>
    <i name="e_fr_energy">     -1.25255685 </i>
    <i name="e_wo_entrp">     -1.19956959 </i>
    <i name="e_0_energy">     -1.22606322 </i>
   </energy>
  </scstep>
  <scstep>
   <time name="dav">    0.19    0.19</time>
   <time name="total">    1.38    1.38</time>
   <energy>
    <i name="e_fr_energy">     -1.24102289 </i>
    <i name="e_wo_entrp">     -1.19880369 </i>
    <i name="e_0_energy">     -1.21991329 </i>
   </energy>
  </scstep>
  <scstep>
   <time name="dav">    0.19    0.19</time>
   <time name="total">    1.37    1.38</time>
   <energy>
    <i name="e_fr_energy">     -1.22677504 </i>
    <i name="e_wo_entrp">     -1.18656374 </i>
    <i name="e_0_energy">     -1.20666939 </i>
   </energy>
  </scstep>
  <scstep>
   <time name="dav">    0.18    0.18</time>
   <time name="total">    1.37    1.37</time>
   <energy>
    <i name="e_fr_energy">     -1.22946531 </i>
    <i name="e_wo_entrp">     -1.18978370 </i>
    <i name="e_0_energy">     -1.20962451 </i>
   </energy>
  </scstep>
  <scstep>
   <time name="dav">    0.19    0.19</time>
   <time name="total">    1.38    1.38</time>
   <energy>
    <i name="e_fr_energy">     -1.28715552 </i>
    <i name="e_wo_entrp">     -1.24773452 </i>
    <i name="e_0_energy">     -1.26744502 </i>
   </energy>
  </scstep>
  <scstep>
   <time name="dav">    0.19    0.19</time>
   <time name="total">    1.38    1.38</time>
   <energy>
    <i name="e_fr_energy">     -1.46743730 </i>
    <i name="e_wo_entrp">     -1.42514988 </i>
    <i name="e_0_energy">     -1.44629359 </i>
   </energy>
  </scstep>
  <scstep>
   <time name="dav">    0.19    0.19</time>
   <time name="total">    1.38    1.38</time>
   <energy>
    <i name="e_fr_energy">     -1.48676116 </i>
    <i name="e_wo_entrp">     -1.44819558 </i>
    <i name="e_0_energy">     -1.46747837 </i>
   </energy>
  </scstep>
  <scstep>
   <time name="dav">    0.19    0.19</time>
   <time name="total">    1.39    1.39</time>
   <energy>
    <i name="e_fr_energy">     -1.39696603 </i>
    <i name="e_wo_entrp">     -1.35839936 </i>
    <i name="e_0_energy">     -1.37768270 </i>
   </energy>
  </scstep>
  <scstep>
   <time name="dav">    0.29    0.29</time>
   <time name="total">    1.49    1.49</time>
   <energy>
    <i name="e_fr_energy">     -1.22004287 </i>
    <i name="e_wo_entrp">     -1.16796223 </i>
    <i name="e_0_energy">     -1.19400255 </i>
   </energy>
  </scstep>
  <scstep>
   <time name="dav">    0.19    0.19</time>
   <time name="total">    1.38    1.38</time>
   <energy>
    <i name="e_fr_energy">     -1.20850271 </i>
    <i name="e_wo_entrp">     -1.16098437 </i>
    <i name="e_0_energy">     -1.18474354 </i>
   </energy>
  </scstep>
  <scstep>
   <time name="dav">    0.19    0.19</time>
   <time name="total">    1.38    1.38</time>
   <energy>
    <i name="e_fr_energy">     -1.30307586 </i>
    <i name="e_wo_entrp">     -1.26407816 </i>
    <i name="e_0_energy">     -1.28357701 </i>
   </energy>
  </scstep>
  <scstep>
   <time name="dav">    0.19    0.19</time>
   <time name="total">    1.38    1.38</time>
   <energy>
    <i name="e_fr_energy">     -1.32266683 </i>
    <i name="e_wo_entrp">     -1.28116580 </i>
    <i name="e_0_energy">     -1.30191631 </i>
   </energy>
  </scstep>
  <scstep>
   <time name="dav">    0.22    0.22</time>
   <time name="total">    1.42    1.42</time>
   <energy>
    <i name="e_fr_energy">     -1.46373800 </i>
    <i name="e_wo_entrp">     -1.41124323 </i>
    <i name="e_0_energy">     -1.43749062 </i>
   </energy>
  </scstep>
  <scstep>
   <time name="dav">    0.19    0.19</time>
   <time name="total">    1.38    1.38</time>
   <energy>
    <i name="e_fr_energy">     -1.29015142 </i>
    <i name="e_wo_entrp">     -1.23379419 </i>
    <i name="e_0_energy">     -1.26197281 </i>
   </energy>
  </scstep>
  <scstep>
   <time name="dav">    0.19    0.19</time>
   <time name="total">    1.38    1.38</time>
   <energy>
    <i name="e_fr_energy">     -1.27227158 </i>
    <i name="e_wo_entrp">     -1.22189748 </i>
    <i name="e_0_energy">     -1.24708453 </i>
   </energy>
  </scstep>
  <scstep>
   <time name="dav">    0.19    0.19</time>
   <time name="total">    1.38    1.38</time>
   <energy>
    <i name="e_fr_energy">     -1.38106088 </i>
    <i name="e_wo_entrp">     -1.33988565 </i>
    <i name="e_0_energy">     -1.36047327 </i>
   </energy>
  </scstep>
  <scstep>
   <time name="dav">    0.19    0.19</time>
   <time name="total">    1.38    1.38</time>
   <energy>
    <i name="e_fr_energy">     -1.42722629 </i>
    <i name="e_wo_entrp">     -1.37284276 </i>
    <i name="e_0_energy">     -1.40003452 </i>
   </energy>
  </scstep>
  <scstep>
   <time name="dav">    0.19    0.19</time>
   <time name="total">    1.38    1.38</time>
   <energy>
    <i name="e_fr_energy">     -1.40371264 </i>
    <i name="e_wo_entrp">     -1.34777154 </i>
    <i name="e_0_energy">     -1.37574209 </i>
   </energy>
  </scstep>
  <scstep>
   <time name="dav">    0.19    0.19</time>
   <time name="total">    1.38    1.38</time>
   <energy>
    <i name="e_fr_energy">     -1.33513885 </i>
    <i name="e_wo_entrp">     -1.29340122 </i>
    <i name="e_0_energy">     -1.31427003 </i>
   </energy>
  </scstep>
  <scstep>
   <time name="dav">    0.19    0.19</time>
   <time name="total">    1.42    1.42</time>
   <energy>
    <i name="e_fr_energy">     -1.36081480 </i>
    <i name="e_wo_entrp">     -1.31395215 </i>
    <i name="e_0_energy">     -1.33738347 </i>
   </energy>
  </scstep>
  <scstep>
   <time name="dav">    0.19    0.19</time>
   <time name="total">    1.42    1.42</time>
   <energy>
    <i name="e_fr_energy">     -1.38060450 </i>
    <i name="e_wo_entrp">     -1.33925321 </i>
    <i name="e_0_energy">     -1.35992886 </i>
   </energy>
  </scstep>
  <scstep>
   <time name="dav">    0.19    0.19</time>
   <time name="total">    1.38    1.38</time>
   <energy>
    <i name="e_fr_energy">     -1.20758795 </i>
    <i name="e_wo_entrp">     -1.15802191 </i>
    <i name="e_0_energy">     -1.18280493 </i>
   </energy>
  </scstep>
  <scstep>
   <time name="dav">    0.19    0.19</time>
   <time name="total">    1.38    1.38</time>
   <energy>
    <i name="e_fr_energy">     -1.29864364 </i>
    <i name="e_wo_entrp">     -1.25815198 </i>
    <i name="e_0_energy">     -1.27839781 </i>
   </energy>
  </scstep>
  <scstep>
   <time name="dav">    0.19    0.19</time>
   <time name="total">    1.38    1.38</time>
   <energy>
    <i name="e_fr_energy">     -1.30809991 </i>
    <i name="e_wo_entrp">     -1.25489494 </i>
    <i name="e_0_energy">     -1.28149743 </i>
   </energy>
  </scstep>
  <scstep>
   <time name="dav">    0.19    0.19</time>
   <time name="total">    1.38    1.38</time>
   <energy>
    <i name="e_fr_energy">     -1.20483851 </i>
    <i name="e_wo_entrp">     -1.15751592 </i>
    <i name="e_0_energy">     -1.18117721 </i>
   </energy>
  </scstep>
  <scstep>
   <time name="dav">    0.19    0.19</time>
   <time name="total">    1.38    1.38</time>
   <energy>
    <i name="e_fr_energy">     -1.19928097 </i>
    <i name="e_wo_entrp">     -1.14670312 </i>
    <i name="e_0_energy">     -1.17299204 </i>
   </energy>
  </scstep>
  <scstep>
   <time name="dav">    0.19    0.19</time>
   <time name="total">    1.38    1.38</time>
   <energy>
    <i name="e_fr_energy">     -1.34773328 </i>
    <i name="e_wo_entrp">     -1.29619491 </i>
    <i name="e_0_energy">     -1.32196409 </i>
   </energy>
  </scstep>
  <scstep>
   <time name="dav">    0.19    0.19</time>
   <time name="total">    1.39    1.39</time>
   <energy>
    <i name="e_fr_energy">     -1.18319516 </i>
    <i name="e_wo_entrp">     -1.14166357 </i>
    <i name="e_0_energy">     -1.16242936 </i>
   </energy>
  </scstep>
  <scstep>
   <time name="dav">    0.19    0.19</time>
   <time name="total">    1.38    1.39</time>
   <energy>
    <i name="e_fr_energy">     -1.21721848 </i>
    <i name="e_wo_entrp">     -1.16424408 </i>
    <i name="e_0_energy">     -1.19073128 </i>
   </energy>
  </scstep>
  <scstep>
   <time name="dav">    0.19    0.19</time>
   <time name="total">    1.39    1.39</time>
   <energy>
    <i name="e_fr_energy">     -1.25271299 </i>
    <i name="e_wo_entrp">     -1.21270659 </i>
    <i name="e_0_energy">     -1.23270979 </i>
   </energy>
  </scstep>
  <scstep>
   <time name="dav">    0.19    0.19</time>
   <time name="total">    1.38    1.38</time>
   <energy>
    <i name="e_fr_energy">     -1.22379438 </i>
    <i name="e_wo_entrp">     -1.18233522 </i>
    <i name="e_0_energy">     -1.20306480 </i>
   </energy>
  </scstep>
  <scstep>
   <time name="dav">    0.19    0.19</time>
   <time name="total">    1.38    1.38</time>
   <energy>
    <i name="e_fr_energy">     -1.21266291 </i>
    <i name="e_wo_entrp">     -1.16037981 </i>
    <i name="e_0_energy">     -1.18652136 </i>
   </energy>
  </scstep>
  <scstep>
   <time name="dav">    0.19    0.19</time>
   <time name="total">    1.38    1.38</time>
   <energy>
    <i name="e_fr_energy">     -1.24097458 </i>
    <i name="e_wo_entrp">     -1.19812251 </i>
    <i name="e_0_energy">     -1.21954854 </i>
   </energy>
  </scstep>
  <scstep>
   <time name="dav">    0.19    0.19</time>
   <time name="total">    1.38    1.38</time>
   <energy>
    <i name="e_fr_energy">     -1.24223908 </i>
    <i name="e_wo_entrp">     -1.20081102 </i>
    <i name="e_0_energy">     -1.22152505 </i>
   </energy>
  </scstep>
  <scstep>
   <time name="dav">    0.19    0.19</time>
   <time name="total">    1.38    1.38</time>
   <energy>
    <i name="e_fr_energy">     -1.24136372 </i>
    <i name="e_wo_entrp">     -1.20016022 </i>
    <i name="e_0_energy">     -1.22076197 </i>
   </energy>
  </scstep>
  <scstep>
   <time name="dav">    0.19    0.19</time>
   <time name="total">    1.40    1.40</time>
   <energy>
    <i name="e_fr_energy">     -1.25027348 </i>
    <i name="e_wo_entrp">     -1.21000845 </i>
    <i name="e_0_energy">     -1.23014096 </i>
   </energy>
  </scstep>
  <scstep>
   <time name="dav">    0.19    0.19</time>
   <time name="total">    1.38    1.38</time>
   <energy>
    <i name="e_fr_energy">     -1.46894387 </i>
    <i name="e_wo_entrp">     -1.42892855 </i>
    <i name="e_0_energy">     -1.44893621 </i>
   </energy>
  </scstep>
  <scstep>
   <time name="dav">    0.19    0.19</time>
   <time name="total">    1.38    1.38</time>
   <energy>
    <i name="e_fr_energy">     -1.18903607 </i>
    <i name="e_wo_entrp">     -1.13994833 </i>
    <i name="e_0_energy">     -1.16449220 </i>
   </energy>
  </scstep>
  <scstep>
   <time name="dav">    0.19    0.19</time>
   <time name="total">    1.39    1.39</time>
   <energy>
    <i name="e_fr_energy">     -1.30499611 </i>
    <i name="e_wo_entrp">     -1.26610782 </i>
    <i name="e_0_energy">     -1.28555196 </i>
   </energy>
  </scstep>
  <scstep>
   <time name="dav">    0.19    0.19</time>
   <time name="total">    1.38    1.38</time>
   <energy>
    <i name="e_fr_energy">     -1.33207114 </i>
    <i name="e_wo_entrp">     -1.28593895 </i>
    <i name="e_0_energy">     -1.30900504 </i>
   </energy>
  </scstep>
  <scstep>
   <time name="dav">    0.19    0.19</time>
   <time name="total">    1.38    1.38</time>
   <energy>
    <i name="e_fr_energy">     -1.32026021 </i>
    <i name="e_wo_entrp">     -1.27802228 </i>
    <i name="e_0_energy">     -1.29914125 </i>
   </energy>
  </scstep>
  <scstep>
   <time name="dav">    0.19    0.19</time>
   <time name="total">    1.41    1.41</time>
   <energy>
    <i name="e_fr_energy">     -1.32575235 </i>
    <i name="e_wo_entrp">     -1.28614451 </i>
    <i name="e_0_energy">     -1.30594843 </i>
   </energy>
  </scstep>
  <scstep>
   <time name="dav">    0.19    0.19</time>
   <time name="total">    1.39    1.41</time>
   <energy>
    <i name="e_fr_energy">     -1.32346138 </i>
    <i name="e_wo_entrp">     -1.28434542 </i>
    <i name="e_0_energy">     -1.30390340 </i>
   </energy>
  </scstep>
  <scstep>
   <time name="dav">    0.19    0.19</time>
   <time name="total">    1.37    1.37</time>
   <energy>
    <i name="e_fr_energy">     -1.33748947 </i>
    <i name="e_wo_entrp">     -1.29270979 </i>
    <i name="e_0_energy">     -1.31509963 </i>
   </energy>
  </scstep>
  <scstep>
   <time name="dav">    0.18    0.18</time>
   <time name="total">    1.37    1.37</time>
   <energy>
    <i name="e_fr_energy">     -1.34459163 </i>
    <i name="e_wo_entrp">     -1.29065105 </i>
    <i name="e_0_energy">     -1.31762134 </i>
   </energy>
  </scstep>
  <scstep>
   <time name="dav">    0.19    0.19</time>
   <time name="total">    1.37    1.37</time>
   <energy>
    <i name="e_fr_energy">     -1.30209798 </i>
    <i name="e_wo_entrp">     -1.25632822 </i>
    <i name="e_0_energy">     -1.27921310 </i>
   </energy>
  </scstep>
  <scstep>
   <time name="dav">    0.18    0.18</time>
   <time name="total">    1.38    1.38</time>
   <energy>
    <i name="e_fr_energy">     -1.29241238 </i>
    <i name="e_wo_entrp">     -1.25260950 </i>
    <i name="e_0_energy">     -1.27251094 </i>
   </energy>
  </scstep>
  <scstep>
   <time name="dav">    0.19    0.19</time>
   <time name="total">    1.37    1.37</time>
   <energy>
    <i name="e_fr_energy">     -1.29557563 </i>
    <i name="e_wo_entrp">     -1.25600309 </i>
    <i name="e_0_energy">     -1.27578936 </i>
   </energy>
  </scstep>
  <scstep>
   <time name="dav">    0.19    0.19</time>
   <time name="total">    1.39    1.39</time>
   <energy>
    <i name="e_fr_energy">     -1.29545740 </i>
    <i name="e_wo_entrp">     -1.25591383 </i>
    <i name="e_0_energy">     -1.27568561 </i>
   </energy>
  </scstep>
  <scstep>
   <time name="dav">    0.19    0.19</time>
   <time name="total">    1.39    1.39</time>
   <energy>
    <i name="e_fr_energy">     -1.28270891 </i>
    <i name="e_wo_entrp">     -1.24367015 </i>
    <i name="e_0_energy">     -1.26318953 </i>
   </energy>
  </scstep>
  <scstep>
   <time name="dav">    0.19    0.19</time>
   <time name="total">    1.38    1.38</time>
   <energy>
    <i name="e_fr_energy">     -1.29006619 </i>
    <i name="e_wo_entrp">     -1.24777308 </i>
    <i name="e_0_energy">     -1.26891964 </i>
   </energy>
  </scstep>
  <scstep>
   <time name="dav">    0.19    0.19</time>
   <time name="total">    1.38    1.38</time>
   <energy>
    <i name="e_fr_energy">     -1.32599621 </i>
    <i name="e_wo_entrp">     -1.26964878 </i>
    <i name="e_0_energy">     -1.29782249 </i>
   </energy>
  </scstep>
  <scstep>
   <time name="dav">    0.19    0.19</time>
   <time name="total">    1.38    1.38</time>
   <energy>
    <i name="e_fr_energy">     -1.28076417 </i>
    <i name="e_wo_entrp">     -1.23285735 </i>
    <i name="e_0_energy">     -1.25681076 </i>
   </energy>
  </scstep>
  <scstep>
   <time name="dav">    0.19    0.19</time>
   <time name="total">    1.38    1.38</time>
   <energy>
    <i name="e_fr_energy">     -1.30740864 </i>
    <i name="e_wo_entrp">     -1.26082309 </i>
    <i name="e_0_energy">     -1.28411586 </i>
   </energy>
  </scstep>
  <scstep>
   <time name="dav">    0.19    0.19</time>
   <time name="total">    1.39    1.39</time>
   <energy>
    <i name="e_fr_energy">     -1.28526956 </i>
    <i name="e_wo_entrp">     -1.24246854 </i>
    <i name="e_0_energy">     -1.26386905 </i>
   </energy>
  </scstep>
  <scstep>
   <time name="dav">    0.19    0.19</time>
   <time name="total">    1.39    1.39</time>
   <energy>
    <i name="e_fr_energy">     -1.28576570 </i>
    <i name="e_wo_entrp">     -1.24333796 </i>
    <i name="e_0_energy">     -1.26455183 </i>
   </energy>
  </scstep>
  <scstep>
   <time name="dav">    0.19    0.19</time>
   <time name="total">    1.37    1.37</time>
   <energy>
    <i name="e_fr_energy">     -1.33906662 </i>
    <i name="e_wo_entrp">     -1.28265283 </i>
    <i name="e_0_energy">     -1.31085973 </i>
   </energy>
  </scstep>
  <scstep>
   <time name="dav">    0.19    0.19</time>
   <time name="total">    1.39    1.39</time>
   <energy>
    <i name="e_fr_energy">     -1.27996090 </i>
    <i name="e_wo_entrp">     -1.23575808 </i>
    <i name="e_0_energy">     -1.25785949 </i>
   </energy>
  </scstep>
  <scstep>
   <time name="dav">    0.18    0.18</time>
   <time name="total">    1.38    1.38</time>
   <energy>
    <i name="e_fr_energy">     -1.31493439 </i>
    <i name="e_wo_entrp">     -1.27286011 </i>
    <i name="e_0_energy">     -1.29389725 </i>
   </energy>
  </scstep>
  <scstep>
   <time name="dav">    0.19    0.19</time>
   <time name="total">    1.38    1.38</time>
   <energy>
    <i name="e_fr_energy">     -1.33159707 </i>
    <i name="e_wo_entrp">     -1.29158767 </i>
    <i name="e_0_energy">     -1.31159237 </i>
   </energy>
  </scstep>
  <scstep>
   <time name="dav">    0.19    0.19</time>
   <time name="total">    1.39    1.39</time>
   <energy>
    <i name="e_fr_energy">     -1.37542721 </i>
    <i name="e_wo_entrp">     -1.33650959 </i>
    <i name="e_0_energy">     -1.35596840 </i>
   </energy>
  </scstep>
  <scstep>
   <time name="dav">    0.19    0.19</time>
   <time name="total">    1.39    1.39</time>
   <energy>
    <i name="e_fr_energy">     -1.42710677 </i>
    <i name="e_wo_entrp">     -1.38853777 </i>
    <i name="e_0_energy">     -1.40782227 </i>
   </energy>
  </scstep>
  <scstep>
   <time name="dav">    0.19    0.19</time>
   <time name="total">    1.38    1.38</time>
   <energy>
    <i name="e_fr_energy">     -1.44379376 </i>
    <i name="e_wo_entrp">     -1.40522738 </i>
    <i name="e_0_energy">     -1.42451057 </i>
   </energy>
  </scstep>
  <scstep>
   <time name="dav">    0.19    0.19</time>
   <time name="total">    1.38    1.39</time>
   <energy>
    <i name="e_fr_energy">     -1.45618154 </i>
    <i name="e_wo_entrp">     -1.41760848 </i>
    <i name="e_0_energy">     -1.43689501 </i>
   </energy>
  </scstep>
  <scstep>
   <time name="dav">    0.19    0.19</time>
   <time name="total">    1.39    1.40</time>
   <energy>
    <i name="e_fr_energy">     -1.44406959 </i>
    <i name="e_wo_entrp">     -1.40503367 </i>
    <i name="e_0_energy">     -1.42455163 </i>
   </energy>
  </scstep>
  <scstep>
   <time name="dav">    0.19    0.19</time>
   <time name="total">    1.38    1.38</time>
   <energy>
    <i name="e_fr_energy">     -1.43626294 </i>
    <i name="e_wo_entrp">     -1.39623566 </i>
    <i name="e_0_energy">     -1.41624930 </i>
   </energy>
  </scstep>
  <scstep>
   <time name="dav">    0.19    0.19</time>
   <time name="total">    1.39    1.39</time>
   <energy>
    <i name="e_fr_energy">     -1.41432881 </i>
    <i name="e_wo_entrp">     -1.36402385 </i>
    <i name="e_0_energy">     -1.38917633 </i>
   </energy>
  </scstep>
  <scstep>
   <time name="dav">    0.19    0.19</time>
   <time name="total">    1.38    1.38</time>
   <energy>
    <i name="e_fr_energy">     -1.41831748 </i>
    <i name="e_wo_entrp">     -1.36584074 </i>
    <i name="e_0_energy">     -1.39207911 </i>
   </energy>
  </scstep>
  <scstep>
   <time name="dav">    0.19    0.19</time>
   <time name="total">    1.39    1.39</time>
   <energy>
    <i name="e_fr_energy">     -1.42332003 </i>
    <i name="e_wo_entrp">     -1.37173242 </i>
    <i name="e_0_energy">     -1.39752622 </i>
   </energy>
  </scstep>
  <scstep>
   <time name="dav">    0.19    0.19</time>
   <time name="total">    1.39    1.39</time>
   <energy>
    <i name="e_fr_energy">     -1.42723194 </i>
    <i name="e_wo_entrp">     -1.37957333 </i>
    <i name="e_0_energy">     -1.40340263 </i>
   </energy>
  </scstep>
  <scstep>
   <time name="dav">    0.19    0.19</time>
   <time name="total">    1.38    1.38</time>
   <energy>
    <i name="e_fr_energy">     -1.42361724 </i>
    <i name="e_wo_entrp">     -1.37252364 </i>
    <i name="e_0_energy">     -1.39807044 </i>
   </energy>
  </scstep>
[...]
        <r>     4.2375     0.0000     0.0000     0.0000     0.0000     0.0000     0.0000     0.0000     0.0000     0.0000     0.0000     0.0000     0.0000     0.0000     0.0000     0.0000     0.0000 </r>
        <r>     4.3911     0.0000     0.0000     0.0000     0.0000     0.0000     0.0000     0.0000     0.0000     0.0000     0.0000     0.0000     0.0000     0.0000     0.0000     0.0000     0.0000 </r>
        <r>     4.5447     0.0000     0.0000     0.0000     0.0000     0.0000     0.0000     0.0000     0.0000     0.0000     0.0000     0.0000     0.0000     0.0000     0.0000     0.0000     0.0000 </r>
        <r>     4.6983     0.0000     0.0000     0.0000     0.0000     0.0000     0.0000     0.0000     0.0000     0.0000     0.0000     0.0000     0.0000     0.0000     0.0000     0.0000     0.0000 </r>
        <r>     4.8519     0.0000     0.0000     0.0000     0.0000     0.0000     0.0000     0.0000     0.0000     0.0000     0.0000     0.0000     0.0000     0.0000     0.0000     0.0000     0.0000 </r>
        <r>     5.0055     0.0000     0.0000     0.0000     0.0000     0.0000     0.0000     0.0000     0.0000     0.0000     0.0000     0.0000     0.0000     0.0000     0.0000     0.0000     0.0000 </r>
        <r>     5.1591     0.0000     0.0000     0.0000     0.0000     0.0000     0.0000     0.0000     0.0000     0.0000     0.0000     0.0000     0.0000     0.0000     0.0000     0.0000     0.0000 </r>
        <r>     5.3127     0.0000     0.0000     0.0000     0.0000     0.0000     0.0000     0.0000     0.0000     0.0000     0.0000     0.0000     0.0000     0.0000     0.0000     0.0000     0.0000 </r>
       </set>
      </set>
     </set>
    </array>
   </partial>
  </dos>
  <projected>
   <eigenvalues>
    <array>
     <dimension dim="1">band</dimension>
     <dimension dim="2">kpoint</dimension>
     <dimension dim="3">spin</dimension>
     <field>eigene</field>
     <field>occ</field>
     <set>
      <set comment="spin 1">
       <set comment="kpoint 1">
        <r>  -38.6747    1.0000 </r>
        <r>  -21.6735    1.0000 </r>
        <r>  -21.6735    1.0000 </r>
        <r>  -21.6735    1.0000 </r>
        <r>   -3.2449    1.0000 </r>
        <r>   -2.6687    1.0000 </r>
        <r>   -2.3365    0.1855 </r>
        <r>   -2.3363    0.1845 </r>
        <r>   -2.3363    0.1845 </r>
        <r>   -2.3312    0.1486 </r>
        <r>   -2.3312    0.1485 </r>
        <r>   -2.3312    0.1485 </r>
        <r>   -2.1700    0.0000 </r>
        <r>   -2.1700    0.0000 </r>
        <r>   -1.9009    0.0000 </r>
        <r>   -1.9007    0.0000 </r>
        <r>   -1.9007    0.0000 </r>
        <r>   -0.7738    0.0000 </r>
        <r>   -0.7738    0.0000 </r>
        <r>   -0.7738    0.0000 </r>
        <r>   -0.0189    0.0000 </r>
        <r>    0.8415    0.0000 </r>
        <r>    0.8415    0.0000 </r>
        <r>    1.6623    0.0000 </r>
        <r>    1.6623    0.0000 </r>
        <r>    1.6623    0.0000 </r>
        <r>    2.0045    0.0000 </r>
        <r>    2.0860    0.0000 </r>
        <r>    2.0860    0.0000 </r>
        <r>    2.0860    0.0000 </r>
        <r>    2.1160    0.0000 </r>
        <r>    2.1160    0.0000 </r>
        <r>    2.1160    0.0000 </r>
        <r>    2.4362    0.0000 </r>
        <r>    2.4362    0.0000 </r>
        <r>    3.1046    0.0000 </r>
       </set>
      </set>
      <set comment="spin 2">
       <set comment="kpoint 1">
        <r>  -37.8547    1.0000 </r>
        <r>  -20.9656    1.0000 </r>
        <r>  -20.9656    1.0000 </r>
        <r>  -20.9656    1.0000 </r>
        <r>   -3.0207    1.0000 </r>
        <r>   -1.9714    0.0000 </r>
        <r>   -1.9714    0.0000 </r>
        <r>   -1.7644    0.0000 </r>
        <r>   -1.7644    0.0000 </r>
        <r>   -1.7644    0.0000 </r>
        <r>   -1.3467    0.0000 </r>
        <r>   -1.3467    0.0000 </r>
        <r>   -1.3467    0.0000 </r>
        <r>   -1.2972    0.0000 </r>
        <r>   -1.2972    0.0000 </r>
        <r>   -1.2972    0.0000 </r>
        <r>   -0.6382    0.0000 </r>
        <r>   -0.6382    0.0000 </r>
        <r>   -0.6382    0.0000 </r>
        <r>   -0.5839    0.0000 </r>
        <r>    0.0204    0.0000 </r>
        <r>    0.8711    0.0000 </r>
        <r>    0.8711    0.0000 </r>
        <r>    1.6831    0.0000 </r>
        <r>    1.6831    0.0000 </r>
        <r>    1.6831    0.0000 </r>
        <r>    2.0220    0.0000 </r>
        <r>    2.1403    0.0000 </r>
        <r>    2.1403    0.0000 </r>
        <r>    2.1403    0.0000 </r>
        <r>    2.2071    0.0000 </r>
        <r>    2.2071    0.0000 </r>
        <r>    2.2071    0.0000 </r>
        <r>    2.4380    0.0000 </r>
        <r>    2.4380    0.0000 </r>
        <r>    3.2181    0.0000 </r>
       </set>
      </set>
     </set>
    </array>
   </eigenvalues>
   <array>
    <dimension dim="1">ion</dimension>
    <dimension dim="2">band</dimension>
    <dimension dim="3">kpoint</dimension>
    <dimension dim="4">spin</dimension>
    <field>    s</field>
    <field>   py</field>
    <field>   pz</field>
    <field>   px</field>
    <field>  dxy</field>
    <field>  dyz</field>
    <field>  dz2</field>
    <field>  dxz</field>
    <field>x2-y2</field>
    <field>fy3x2</field>
    <field> fxyz</field>
    <field> fyz2</field>
    <field>  fz3</field>
    <field> fxz2</field>
    <field> fzx2</field>
    <field>  fx3</field>
    <set>
     <set comment="spin1">
      <set comment="kpoint 1">
       <set comment="band 1">
        <r>  1.0079  0.0000  0.0000  0.0000  0.0000  0.0000  0.0000  0.0000  0.0000  0.0000  0.0000  0.0000  0.0000  0.0000  0.0000  0.0000 </r>
       </set>
       <set comment="band 2">
        <r>  0.0000  0.0188  0.0000  0.9182  0.0000  0.0000  0.0000  0.0000  0.0000  0.0000  0.0000  0.0000  0.0000  0.0000  0.0000  0.0000 </r>
       </set>
       <set comment="band 3">
        <r>  0.0000  0.9182  0.0000  0.0188  0.0000  0.0000  0.0000  0.0000  0.0000  0.0000  0.0000  0.0000  0.0000  0.0000  0.0000  0.0000 </r>
       </set>
       <set comment="band 4">
        <r>  0.0000  0.0000  0.9370  0.0000  0.0000  0.0000  0.0000  0.0000  0.0000  0.0000  0.0000  0.0000  0.0000  0.0000  0.0000  0.0000 </r>
       </set>
       <set comment="band 5">
        <r>  0.1023  0.0000  0.0000  0.0000  0.0000  0.0000  0.0000  0.0000  0.0000  0.0000  0.0000  0.0000  0.0000  0.0000  0.0000  0.0000 </r>
       </set>
       <set comment="band 6">
        <r>  0.0000  0.0000  0.0000  0.0000  0.0000  0.0000  0.0000  0.0000  0.0000  0.0000  0.9695  0.0000  0.0000  0.0000  0.0000  0.0000 </r>
       </set>
       <set comment="band 7">
        <r>  0.0000  0.0000  0.0000  0.0000  0.0000  0.0000  0.0000  0.0000  0.0000  0.0000  0.0000  0.0000  0.9688  0.0000  0.0000  0.0000 </r>
       </set>
       <set comment="band 8">
        <r>  0.0000  0.0000  0.0000  0.0000  0.0000  0.0000  0.0000  0.0000  0.0000  0.0000  0.0000  0.0000  0.0000  0.3632  0.0000  0.6055 </r>
       </set>
       <set comment="band 9">
        <r>  0.0000  0.0000  0.0000  0.0000  0.0000  0.0000  0.0000  0.0000  0.0000  0.6055  0.0000  0.3632  0.0000  0.0000  0.0000  0.0000 </r>
       </set>
       <set comment="band 10">
        <r>  0.0000  0.0000  0.0000  0.0000  0.5062  0.0000  0.0000  0.0000  0.0000  0.0000  0.0000  0.0000  0.0000  0.0000  0.0000  0.0000 </r>
       </set>
       <set comment="band 11">
        <r>  0.0000  0.0000  0.0000  0.0000  0.0000  0.0041  0.0000  0.5022  0.0000  0.0000  0.0000  0.0000  0.0000  0.0000  0.0000  0.0000 </r>
       </set>
       <set comment="band 12">
        <r>  0.0000  0.0000  0.0000  0.0000  0.0000  0.5022  0.0000  0.0041  0.0000  0.0000  0.0000  0.0000  0.0000  0.0000  0.0000  0.0000 </r>
       </set>
       <set comment="band 13">
        <r>  0.0000  0.0000  0.0000  0.0000  0.0000  0.0000  0.4917  0.0000  0.0000  0.0000  0.0000  0.0000  0.0000  0.0000  0.0000  0.0000 </r>
       </set>
       <set comment="band 14">
        <r>  0.0000  0.0000  0.0000  0.0000  0.0000  0.0000  0.0000  0.0000  0.4917  0.0000  0.0000  0.0000  0.0000  0.0000  0.0000  0.0000 </r>
       </set>
       <set comment="band 15">
        <r>  0.0000  0.0000  0.0000  0.0000  0.0000  0.0000  0.0000  0.0000  0.0000  0.0000  0.0000  0.0000  0.0000  0.0000  0.9653  0.0000 </r>
       </set>
       <set comment="band 16">
        <r>  0.0000  0.0000  0.0000  0.0000  0.0000  0.0000  0.0000  0.0000  0.0000  0.0211  0.0000  0.0351  0.0000  0.5682  0.0000  0.3409 </r>
       </set>
       <set comment="band 17">
        <r>  0.0000  0.0000  0.0000  0.0000  0.0000  0.0000  0.0000  0.0000  0.0000  0.3409  0.0000  0.5682  0.0000  0.0351  0.0000  0.0211 </r>
       </set>
       <set comment="band 18">
        <r>  0.0000  0.0000  0.0346  0.0000  0.0000  0.0000  0.0000  0.0000  0.0000  0.0000  0.0000  0.0000  0.0001  0.0000  0.0000  0.0000 </r>
       </set>
       <set comment="band 19">
        <r>  0.0000  0.0025  0.0000  0.0321  0.0000  0.0000  0.0000  0.0000  0.0000  0.0000  0.0000  0.0000  0.0000  0.0001  0.0000  0.0001 </r>
       </set>
       <set comment="band 20">
        <r>  0.0000  0.0321  0.0000  0.0025  0.0000  0.0000  0.0000  0.0000  0.0000  0.0001  0.0000  0.0001  0.0000  0.0000  0.0000  0.0000 </r>
       </set>
       <set comment="band 21">
        <r>  0.0277  0.0000  0.0000  0.0000  0.0000  0.0000  0.0000  0.0000  0.0000  0.0000  0.0000  0.0000  0.0000  0.0000  0.0000  0.0000 </r>
       </set>
       <set comment="band 22">
        <r>  0.0000  0.0000  0.0000  0.0000  0.0000  0.0000  0.0643  0.0000  0.0000  0.0000  0.0000  0.0000  0.0000  0.0000  0.0000  0.0000 </r>
       </set>
       <set comment="band 23">
        <r>  0.0000  0.0000  0.0000  0.0000  0.0000  0.0000  0.0000  0.0000  0.0644  0.0000  0.0000  0.0000  0.0000  0.0000  0.0000  0.0000 </r>
       </set>
       <set comment="band 24">
        <r>  0.0000  0.0000  0.0101  0.0000  0.0000  0.0000  0.0000  0.0000  0.0000  0.0000  0.0000  0.0000  0.0012  0.0000  0.0000  0.0000 </r>
       </set>
       <set comment="band 25">
        <r>  0.0000  0.0094  0.0000  0.0007  0.0000  0.0000  0.0000  0.0000  0.0000  0.0007  0.0000  0.0004  0.0000  0.0000  0.0000  0.0001 </r>
       </set>
       <set comment="band 26">
        <r>  0.0000  0.0007  0.0000  0.0094  0.0000  0.0000  0.0000  0.0000  0.0000  0.0001  0.0000  0.0000  0.0000  0.0004  0.0000  0.0007 </r>
       </set>
       <set comment="band 27">
        <r>  0.0254  0.0000  0.0000  0.0000  0.0000  0.0000  0.0000  0.0000  0.0000  0.0000  0.0000  0.0000  0.0000  0.0000  0.0000  0.0000 </r>
       </set>
       <set comment="band 28">
        <r>  0.0000  0.0000  0.0000  0.0000  0.0891  0.0000  0.0000  0.0000  0.0000  0.0000  0.0000  0.0000  0.0000  0.0000  0.0000  0.0000 </r>
       </set>
       <set comment="band 29">
        <r>  0.0000  0.0000  0.0000  0.0000  0.0000  0.0375  0.0000  0.0515  0.0000  0.0000  0.0000  0.0000  0.0000  0.0000  0.0000  0.0000 </r>
       </set>
       <set comment="band 30">
        <r>  0.0000  0.0000  0.0000  0.0000  0.0000  0.0515  0.0000  0.0375  0.0000  0.0000  0.0000  0.0000  0.0000  0.0000  0.0000  0.0000 </r>
       </set>
       <set comment="band 31">
        <r>  0.0000  0.0000  0.0000  0.0000  0.0000  0.0000  0.0000  0.0000  0.0000  0.0000  0.0000  0.0000  0.0000  0.0000  0.0054  0.0000 </r>
       </set>
       <set comment="band 32">
        <r>  0.0000  0.0000  0.0000  0.0000  0.0000  0.0000  0.0000  0.0000  0.0000  0.0005  0.0000  0.0008  0.0000  0.0026  0.0000  0.0015 </r>
       </set>
       <set comment="band 33">
        <r>  0.0000  0.0000  0.0000  0.0000  0.0000  0.0000  0.0000  0.0000  0.0000  0.0015  0.0000  0.0026  0.0000  0.0008  0.0000  0.0005 </r>
       </set>
       <set comment="band 34">
        <r>  0.0000  0.0000  0.0000  0.0000  0.0000  0.0000  0.0207  0.0000  0.0000  0.0000  0.0000  0.0000  0.0000  0.0000  0.0000  0.0000 </r>
       </set>
       <set comment="band 35">
        <r>  0.0000  0.0000  0.0000  0.0000  0.0000  0.0000  0.0000  0.0000  0.0207  0.0000  0.0000  0.0000  0.0000  0.0000  0.0000  0.0000 </r>
       </set>
       <set comment="band 36">
        <r>  0.0000  0.0000  0.0000  0.0000  0.0000  0.0000  0.0000  0.0000  0.0000  0.0000  0.0104  0.0000  0.0000  0.0000  0.0000  0.0000 </r>
       </set>
      </set>
     </set>
     <set comment="spin2">
      <set comment="kpoint 1">
       <set comment="band 1">
        <r>  1.0137  0.0000  0.0000  0.0000  0.0000  0.0000  0.0000  0.0000  0.0000  0.0000  0.0000  0.0000  0.0000  0.0000  0.0000  0.0000 </r>
       </set>
       <set comment="band 2">
        <r>  0.0000  0.0000  0.9386  0.0000  0.0000  0.0000  0.0000  0.0000  0.0000  0.0000  0.0000  0.0000  0.0000  0.0000  0.0000  0.0000 </r>
       </set>
       <set comment="band 3">
        <r>  0.0000  0.0564  0.0000  0.8822  0.0000  0.0000  0.0000  0.0000  0.0000  0.0000  0.0000  0.0000  0.0000  0.0000  0.0000  0.0000 </r>
       </set>
       <set comment="band 4">
        <r>  0.0000  0.8822  0.0000  0.0564  0.0000  0.0000  0.0000  0.0000  0.0000  0.0000  0.0000  0.0000  0.0000  0.0000  0.0000  0.0000 </r>
       </set>
       <set comment="band 5">
        <r>  0.0854  0.0000  0.0000  0.0000  0.0000  0.0000  0.0000  0.0000  0.0000  0.0000  0.0000  0.0000  0.0000  0.0000  0.0000  0.0000 </r>
       </set>
       <set comment="band 6">
        <r>  0.0000  0.0000  0.0000  0.0000  0.0000  0.0000  0.0000  0.0000  0.4724  0.0000  0.0000  0.0000  0.0000  0.0000  0.0000  0.0000 </r>
       </set>
       <set comment="band 7">
        <r>  0.0000  0.0000  0.0000  0.0000  0.0000  0.0000  0.4724  0.0000  0.0000  0.0000  0.0000  0.0000  0.0000  0.0000  0.0000  0.0000 </r>
       </set>
       <set comment="band 8">
        <r>  0.0000  0.0000  0.0000  0.0000  0.0000  0.0001  0.0000  0.4729  0.0000  0.0000  0.0000  0.0000  0.0000  0.0000  0.0000  0.0000 </r>
       </set>
       <set comment="band 9">
        <r>  0.0000  0.0000  0.0000  0.0000  0.0000  0.4729  0.0000  0.0001  0.0000  0.0000  0.0000  0.0000  0.0000  0.0000  0.0000  0.0000 </r>
       </set>
       <set comment="band 10">
        <r>  0.0000  0.0000  0.0000  0.0000  0.4731  0.0000  0.0000  0.0000  0.0000  0.0000  0.0000  0.0000  0.0000  0.0000  0.0000  0.0000 </r>
       </set>
       <set comment="band 11">
        <r>  0.0000  0.0000  0.0000  0.0000  0.0000  0.0000  0.0000  0.0000  0.0000  0.2622  0.0000  0.4371  0.0000  0.1646  0.0000  0.0987 </r>
       </set>
       <set comment="band 12">
        <r>  0.0000  0.0000  0.0000  0.0000  0.0000  0.0000  0.0000  0.0000  0.0000  0.0987  0.0000  0.1646  0.0000  0.4371  0.0000  0.2622 </r>
       </set>
       <set comment="band 13">
        <r>  0.0000  0.0000  0.0000  0.0000  0.0000  0.0000  0.0000  0.0000  0.0000  0.0000  0.0000  0.0000  0.0000  0.0000  0.9625  0.0000 </r>
       </set>
       <set comment="band 14">
        <r>  0.0000  0.0000  0.0000  0.0000  0.0000  0.0000  0.0000  0.0000  0.0000  0.4014  0.0000  0.2408  0.0000  0.1196  0.0000  0.1993 </r>
       </set>
       <set comment="band 15">
        <r>  0.0000  0.0000  0.0000  0.0000  0.0000  0.0000  0.0000  0.0000  0.0000  0.1993  0.0000  0.1196  0.0000  0.2408  0.0000  0.4014 </r>
       </set>
       <set comment="band 16">
        <r>  0.0000  0.0000  0.0000  0.0000  0.0000  0.0000  0.0000  0.0000  0.0000  0.0000  0.0000  0.0000  0.9611  0.0000  0.0000  0.0000 </r>
       </set>
       <set comment="band 17">
        <r>  0.0000  0.0000  0.0333  0.0000  0.0000  0.0000  0.0000  0.0000  0.0000  0.0000  0.0000  0.0000  0.0012  0.0000  0.0000  0.0000 </r>
       </set>
       <set comment="band 18">
        <r>  0.0000  0.0156  0.0000  0.0177  0.0000  0.0000  0.0000  0.0000  0.0000  0.0004  0.0000  0.0002  0.0000  0.0002  0.0000  0.0004 </r>
       </set>
       <set comment="band 19">
        <r>  0.0000  0.0177  0.0000  0.0156  0.0000  0.0000  0.0000  0.0000  0.0000  0.0004  0.0000  0.0002  0.0000  0.0002  0.0000  0.0004 </r>
       </set>
       <set comment="band 20">
        <r>  0.0000  0.0000  0.0000  0.0000  0.0000  0.0000  0.0000  0.0000  0.0000  0.0000  0.9551  0.0000  0.0000  0.0000  0.0000  0.0000 </r>
       </set>
       <set comment="band 21">
        <r>  0.0244  0.0000  0.0000  0.0000  0.0000  0.0000  0.0000  0.0000  0.0000  0.0000  0.0000  0.0000  0.0000  0.0000  0.0000  0.0000 </r>
       </set>
       <set comment="band 22">
        <r>  0.0000  0.0000  0.0000  0.0000  0.0000  0.0000  0.0000  0.0000  0.0697  0.0000  0.0000  0.0000  0.0000  0.0000  0.0000  0.0000 </r>
       </set>
       <set comment="band 23">
        <r>  0.0000  0.0000  0.0000  0.0000  0.0000  0.0000  0.0697  0.0000  0.0000  0.0000  0.0000  0.0000  0.0000  0.0000  0.0000  0.0000 </r>
       </set>
       <set comment="band 24">
        <r>  0.0000  0.0017  0.0000  0.0083  0.0000  0.0000  0.0000  0.0000  0.0000  0.0002  0.0000  0.0001  0.0000  0.0006  0.0000  0.0010 </r>
       </set>
       <set comment="band 25">
        <r>  0.0000  0.0083  0.0000  0.0017  0.0000  0.0000  0.0000  0.0000  0.0000  0.0010  0.0000  0.0006  0.0000  0.0001  0.0000  0.0002 </r>
       </set>
       <set comment="band 26">
        <r>  0.0000  0.0000  0.0100  0.0000  0.0000  0.0000  0.0000  0.0000  0.0000  0.0000  0.0000  0.0000  0.0020  0.0000  0.0000  0.0000 </r>
       </set>
       <set comment="band 27">
        <r>  0.0225  0.0000  0.0000  0.0000  0.0000  0.0000  0.0000  0.0000  0.0000  0.0000  0.0000  0.0000  0.0000  0.0000  0.0000  0.0000 </r>
       </set>
       <set comment="band 28">
        <r>  0.0000  0.0000  0.0000  0.0000  0.0000  0.0000  0.0000  0.0000  0.0000  0.0002  0.0000  0.0003  0.0000  0.0036  0.0000  0.0021 </r>
       </set>
       <set comment="band 29">
        <r>  0.0000  0.0000  0.0000  0.0000  0.0000  0.0000  0.0000  0.0000  0.0000  0.0021  0.0000  0.0036  0.0000  0.0003  0.0000  0.0002 </r>
       </set>
       <set comment="band 30">
        <r>  0.0000  0.0000  0.0000  0.0000  0.0000  0.0000  0.0000  0.0000  0.0000  0.0000  0.0000  0.0000  0.0000  0.0000  0.0062  0.0000 </r>
       </set>
       <set comment="band 31">
        <r>  0.0000  0.0000  0.0000  0.0000  0.0000  0.0599  0.0000  0.0354  0.0000  0.0000  0.0000  0.0000  0.0000  0.0000  0.0000  0.0000 </r>
       </set>
       <set comment="band 32">
        <r>  0.0000  0.0000  0.0000  0.0000  0.0000  0.0354  0.0000  0.0599  0.0000  0.0000  0.0000  0.0000  0.0000  0.0000  0.0000  0.0000 </r>
       </set>
       <set comment="band 33">
        <r>  0.0000  0.0000  0.0000  0.0000  0.0953  0.0000  0.0000  0.0000  0.0000  0.0000  0.0000  0.0000  0.0000  0.0000  0.0000  0.0000 </r>
       </set>
       <set comment="band 34">
        <r>  0.0000  0.0000  0.0000  0.0000  0.0000  0.0000  0.0000  0.0000  0.0226  0.0000  0.0000  0.0000  0.0000  0.0000  0.0000  0.0000 </r>
       </set>
       <set comment="band 35">
        <r>  0.0000  0.0000  0.0000  0.0000  0.0000  0.0000  0.0226  0.0000  0.0000  0.0000  0.0000  0.0000  0.0000  0.0000  0.0000  0.0000 </r>
       </set>
       <set comment="band 36">
        <r>  0.0000  0.0000  0.0000  0.0000  0.0000  0.0000  0.0000  0.0000  0.0000  0.0000  0.0157  0.0000  0.0000  0.0000  0.0000  0.0000 </r>
       </set>
      </set>
     </set>
    </set>
   </array>
  </projected>
 </calculation>
 <structure name="finalpos" >
  <crystal>
   <varray name="basis" >
    <v>      10.00000000       0.00000000       0.00000000 </v>
    <v>       0.00000000      10.00000000       0.00000000 </v>
    <v>       0.00000000       0.00000000      10.00000000 </v>
   </varray>
   <i name="volume">   1000.00000000 </i>
   <varray name="rec_basis" >
    <v>       0.10000000       0.00000000       0.00000000 </v>
    <v>       0.00000000       0.10000000       0.00000000 </v>
    <v>       0.00000000       0.00000000       0.10000000 </v>
   </varray>
  </crystal>
  <varray name="positions" >
   <v>       0.50000000       0.50000000       0.50000000 </v>
  </varray>
 </structure>
</modeling>
