       N       E                     dE             d eps       ncg     rms          ort
DAV:   1     0.886210017794E+02    0.88621E+02   -0.34713E+03    36   0.238E+02
DAV:   2     0.143687712499E+02   -0.74252E+02   -0.74113E+02    36   0.310E+01
DAV:   3     0.139755675694E+01   -0.12971E+02   -0.12971E+02    36   0.272E+01
DAV:   4     0.174964867815E+00   -0.12226E+01   -0.12226E+01    36   0.975E+00
DAV:   5    -0.381816927802E-02   -0.17878E+00   -0.17878E+00    36   0.363E+00
SDA:   6    -0.133622198580E+00   -0.12980E+00   -0.11231E+00    36   0.281E+00 0.000E+00
DMP:   7    -0.188394388005E+00   -0.54772E-01   -0.15861E-01    36   0.366E-01 0.795E-02
DMP:   8    -0.195989754865E+00   -0.75954E-02   -0.10089E-01    36   0.262E-01-0.243E-02
DMP:   9    -0.200602879371E+00   -0.46131E-02   -0.18078E-02    36   0.550E-02-0.256E-02
DMP:  10    -0.201446016792E+00   -0.84314E-03   -0.15999E-02    36   0.410E-02-0.268E-03
DMP:  11    -0.202325582490E+00   -0.87957E-03   -0.46864E-03    36   0.999E-03 0.453E-03
DMP:  12    -0.202612063475E+00   -0.28648E-03   -0.31882E-03    36   0.691E-03 0.278E-03
DMP:  13    -0.202818013195E+00   -0.20595E-03   -0.77283E-04    36   0.109E-03 0.221E-03
DMP:  14    -0.202857887996E+00   -0.39875E-04   -0.32889E-04    36   0.833E-04-0.285E-05
   1 F= -.20285789E+00 E0= -.20285789E+00  d E =-.202858E+00  mag=     1.0000
