<?xml version="1.0" encoding="ISO-8859-1"?>
<modeling>
 <generator>
  <i name="program" type="string">vasp </i>
  <i name="version" type="string">5.4.4.18Apr17-6-g9f103f2a35  </i>
  <i name="subversion" type="string">(build Nov 08 2019 15:19:53) gamma-only         parallel </i>
  <i name="platform" type="string">LinuxIFC </i>
  <i name="date" type="string">2020 11 30 </i>
  <i name="time" type="string">09:31:57 </i>
 </generator>
 <incar>
  <i type="string" name="PREC">accurate</i>
  <i type="string" name="ALGO"> D</i>
  <i type="int" name="ISPIN">     2</i>
  <i type="int" name="NELM">   300</i>
  <i type="int" name="IBRION">     2</i>
  <i name="EDIFF">      0.00005000</i>
  <i type="int" name="NSW">    99</i>
  <i type="int" name="ISIF">     2</i>
  <i name="ENCUT">    520.00000000</i>
  <v name="MAGMOM">      0.60000000</v>
  <i type="string" name="LREAL"> Auto</i>
  <i type="int" name="ISMEAR">     0</i>
  <i name="SIGMA">      0.05000000</i>
  <i type="logical" name="LWAVE"> F  </i>
  <i type="int" name="LORBIT">    11</i>
  <i type="logical" name="LASPH"> T  </i>
  <v type="int" name="KPOINT_BSE">    -1     0     0     0</v>
  <i type="int" name="NELM">   300</i>
  <i type="logical" name="LASPH"> T  </i>
 </incar>
 <structure name="primitive_cell" >
  <crystal>
   <varray name="basis" >
    <v>      10.00000000       0.00000000       0.00000000 </v>
    <v>       0.00000000      10.00000000       0.00000000 </v>
    <v>       0.00000000       0.00000000      10.00000000 </v>
   </varray>
   <i name="volume">   1000.00000000 </i>
   <varray name="rec_basis" >
    <v>       0.10000000       0.00000000       0.00000000 </v>
    <v>       0.00000000       0.10000000       0.00000000 </v>
    <v>       0.00000000       0.00000000       0.10000000 </v>
   </varray>
  </crystal>
  <varray name="positions" >
   <v>      -0.50000000      -0.50000000      -0.50000000 </v>
  </varray>
 </structure>
 <varray name="primitive_index" >
  <v type="int" >        1 </v>
 </varray>
 <kpoints>
  <generation param="Gamma">
   <v type="int" name="divisions">       1        1        1 </v>
   <v name="usershift">      0.00000000       0.00000000       0.00000000 </v>
   <v name="genvec1">      1.00000000       0.00000000       0.00000000 </v>
   <v name="genvec2">      0.00000000       1.00000000       0.00000000 </v>
   <v name="genvec3">      0.00000000       0.00000000       1.00000000 </v>
   <v name="shift">      0.00000000       0.00000000       0.00000000 </v>
  </generation>
  <varray name="kpointlist" >
   <v>       0.00000000       0.00000000       0.00000000 </v>
  </varray>
  <varray name="weights" >
   <v>       1.00000000 </v>
  </varray>
 </kpoints>
 <parameters>
  <separator name="general" >
   <i type="string" name="SYSTEM">unknown system</i>
   <i type="logical" name="LCOMPAT"> F  </i>
  </separator>
  <separator name="electronic" >
   <i type="string" name="PREC">accura</i>
   <i name="ENMAX">    520.00000000</i>
   <i name="ENAUG">    412.49600000</i>
   <i name="EDIFF">      0.00005000</i>
   <i type="int" name="IALGO">    53</i>
   <i type="int" name="IWAVPR">    11</i>
   <i type="int" name="NBANDS">    36</i>
   <i name="NELECT">     11.00000000</i>
   <i type="int" name="TURBO">     0</i>
   <i type="int" name="IRESTART">     0</i>
   <i type="int" name="NREBOOT">     0</i>
   <i type="int" name="NMIN">     0</i>
   <i name="EREF">      0.00000000</i>
   <separator name="electronic smearing" >
    <i type="int" name="ISMEAR">     0</i>
    <i name="SIGMA">      0.05000000</i>
    <i name="KSPACING">      0.50000000</i>
    <i type="logical" name="KGAMMA"> T  </i>
   </separator>
   <separator name="electronic projectors" >
    <i type="logical" name="LREAL"> T  </i>
    <v name="ROPT">     -0.00025000</v>
    <i type="int" name="LMAXPAW">  -100</i>
    <i type="int" name="LMAXMIX">     2</i>
    <i type="logical" name="NLSPLINE"> F  </i>
   </separator>
   <separator name="electronic startup" >
    <i type="int" name="ISTART">     0</i>
    <i type="int" name="ICHARG">     2</i>
    <i type="int" name="INIWAV">     1</i>
   </separator>
   <separator name="electronic spin" >
    <i type="int" name="ISPIN">     2</i>
    <i type="logical" name="LNONCOLLINEAR"> F  </i>
    <v name="MAGMOM">      0.60000000</v>
    <i name="NUPDOWN">     -1.00000000</i>
    <i type="logical" name="LSORBIT"> F  </i>
    <v name="SAXIS">      0.00000000      0.00000000      1.00000000</v>
    <i type="logical" name="LSPIRAL"> F  </i>
    <v name="QSPIRAL">      0.00000000      0.00000000      0.00000000</v>
    <i type="logical" name="LZEROZ"> F  </i>
   </separator>
   <separator name="electronic exchange-correlation" >
    <i type="logical" name="LASPH"> T  </i>
    <i type="logical" name="LMETAGGA"> F  </i>
   </separator>
   <separator name="electronic convergence" >
    <i type="int" name="NELM">   300</i>
    <i type="int" name="NELMDL">    -5</i>
    <i type="int" name="NELMIN">     2</i>
    <i name="ENINI">    520.00000000</i>
    <separator name="electronic convergence detail" >
     <i type="logical" name="LDIAG"> T  </i>
     <i type="logical" name="LSUBROT"> F  </i>
     <i name="WEIMIN">      0.00100000</i>
     <i name="EBREAK">      0.00000035</i>
     <i name="DEPER">      0.30000000</i>
     <i type="int" name="NRMM">     4</i>
     <i name="TIME">      0.40000000</i>
    </separator>
   </separator>
   <separator name="electronic mixer" >
    <i name="AMIX">      0.40000000</i>
    <i name="BMIX">      1.00000000</i>
    <i name="AMIN">      0.10000000</i>
    <i name="AMIX_MAG">      1.60000000</i>
    <i name="BMIX_MAG">      1.00000000</i>
    <separator name="electronic mixer details" >
     <i type="int" name="IMIX">     4</i>
     <i type="logical" name="MIXFIRST"> F  </i>
     <i type="int" name="MAXMIX">   -45</i>
     <i name="WC">    100.00000000</i>
     <i type="int" name="INIMIX">     1</i>
     <i type="int" name="MIXPRE">     1</i>
     <i type="int" name="MREMOVE">     5</i>
    </separator>
   </separator>
   <separator name="electronic dipolcorrection" >
    <i type="logical" name="LDIPOL"> F  </i>
    <i type="logical" name="LMONO"> F  </i>
    <i type="int" name="IDIPOL">     0</i>
    <i name="EPSILON">      1.00000000</i>
    <v name="DIPOL">   -100.00000000   -100.00000000   -100.00000000</v>
    <i name="EFIELD">      0.00000000</i>
   </separator>
  </separator>
  <separator name="grids" >
   <i type="int" name="NGX">    80</i>
   <i type="int" name="NGY">    80</i>
   <i type="int" name="NGZ">    80</i>
   <i type="int" name="NGXF">   160</i>
   <i type="int" name="NGYF">   160</i>
   <i type="int" name="NGZF">   160</i>
   <i type="logical" name="ADDGRID"> F  </i>
  </separator>
  <separator name="ionic" >
   <i type="int" name="NSW">    99</i>
   <i type="int" name="IBRION">     2</i>
   <i type="int" name="MDALGO">     0</i>
   <i type="int" name="ISIF">     2</i>
   <i name="PSTRESS">      0.00000000</i>
   <i name="EDIFFG">      0.00050000</i>
   <i type="int" name="NFREE">     1</i>
   <i name="POTIM">      0.50000000</i>
   <i name="SMASS">     -3.00000000</i>
   <i name="SCALEE">      1.00000000</i>
  </separator>
  <separator name="ionic md" >
   <i name="TEBEG">      0.00010000</i>
   <i name="TEEND">      0.00010000</i>
   <i type="int" name="NBLOCK">     1</i>
   <i type="int" name="KBLOCK">    99</i>
   <i type="int" name="NPACO">   256</i>
   <i name="APACO">     16.00000000</i>
  </separator>
  <separator name="symmetry" >
   <i type="int" name="ISYM">     2</i>
   <i name="SYMPREC">      0.00001000</i>
  </separator>
  <separator name="dos" >
   <i type="int" name="LORBIT">    11</i>
   <v name="RWIGS">     -1.00000000</v>
   <i type="int" name="NEDOS">   301</i>
   <i name="EMIN">     10.00000000</i>
   <i name="EMAX">    -10.00000000</i>
   <i name="EFERMI">      0.00000000</i>
  </separator>
  <separator name="writing" >
   <i type="int" name="NWRITE">     2</i>
   <i type="logical" name="LWAVE"> F  </i>
   <i type="logical" name="LDOWNSAMPLE"> F  </i>
   <i type="logical" name="LCHARG"> T  </i>
   <i type="logical" name="LPARD"> F  </i>
   <i type="logical" name="LVTOT"> F  </i>
   <i type="logical" name="LVHAR"> F  </i>
   <i type="logical" name="LELF"> F  </i>
   <i type="logical" name="LOPTICS"> F  </i>
   <v name="STM">      0.00000000      0.00000000      0.00000000      0.00000000      0.00000000      0.00000000      0.00000000</v>
  </separator>
  <separator name="performance" >
   <i type="int" name="NPAR">    36</i>
   <i type="int" name="NSIM">     4</i>
   <i type="int" name="NBLK">    -1</i>
   <i type="logical" name="LPLANE"> T  </i>
   <i type="logical" name="LSCALAPACK"> T  </i>
   <i type="logical" name="LSCAAWARE"> F  </i>
   <i type="logical" name="LSCALU"> F  </i>
   <i type="logical" name="LASYNC"> F  </i>
   <i type="logical" name="LORBITALREAL"> F  </i>
  </separator>
  <separator name="miscellaneous" >
   <i type="int" name="IDIOT">     3</i>
   <i type="int" name="ISPECIAL">     0</i>
   <i type="logical" name="LMUSIC"> F  </i>
   <v name="POMASS">    107.86800000</v>
   <v name="DARWINR">      0.00000000</v>
   <v name="DARWINV">      1.00000000</v>
   <i type="logical" name="LCORR"> T  </i>
  </separator>
  <i type="logical" name="GGA_COMPAT"> T  </i>
  <i type="logical" name="LBERRY"> F  </i>
  <i type="int" name="ICORELEVEL">     0</i>
  <i type="logical" name="LDAU"> F  </i>
  <i type="int" name="I_CONSTRAINED_M">     0</i>
  <separator name="electronic exchange-correlation" >
   <i type="string" name="GGA">--</i>
   <i type="int" name="VOSKOWN">     0</i>
   <i type="logical" name="LHFCALC"> F  </i>
   <i type="string" name="PRECFOCK"></i>
   <i type="logical" name="LSYMGRAD"> F  </i>
   <i type="logical" name="LHFONE"> F  </i>
   <i type="logical" name="LRHFCALC"> F  </i>
   <i type="logical" name="LTHOMAS"> F  </i>
   <i type="logical" name="LMODELHF"> F  </i>
   <i name="ENCUT4O">     -1.00000000</i>
   <i type="int" name="EXXOEP">     0</i>
   <i type="int" name="FOURORBIT">     0</i>
   <i name="AEXX">      0.00000000</i>
   <i name="HFALPHA">      0.00000000</i>
   <i name="MCALPHA">      0.00000000</i>
   <i name="ALDAX">      1.00000000</i>
   <i name="AGGAX">      1.00000000</i>
   <i name="ALDAC">      1.00000000</i>
   <i name="AGGAC">      1.00000000</i>
   <i type="int" name="NKREDX">     1</i>
   <i type="int" name="NKREDY">     1</i>
   <i type="int" name="NKREDZ">     1</i>
   <i type="logical" name="SHIFTRED"> F  </i>
   <i type="logical" name="ODDONLY"> F  </i>
   <i type="logical" name="EVENONLY"> F  </i>
   <i type="int" name="LMAXFOCK">     0</i>
   <i type="int" name="NMAXFOCKAE">     0</i>
   <i type="logical" name="LFOCKAEDFT"> F  </i>
   <i name="HFSCREEN">      0.00000000</i>
   <i name="HFSCREENC">      0.00000000</i>
   <i type="int" name="NBANDSGWLOW">     0</i>
  </separator>
  <separator name="vdW DFT" >
   <i type="logical" name="LUSE_VDW"> F  </i>
   <i name="Zab_VDW">     -0.84910000</i>
   <i name="PARAM1">      0.12340000</i>
   <i name="PARAM2">      1.00000000</i>
   <i name="PARAM3">      0.00000000</i>
  </separator>
  <separator name="model GW" >
   <i type="int" name="MODEL_GW">     0</i>
   <i name="MODEL_EPS0">    600.00000000</i>
   <i name="MODEL_ALPHA">      1.00000000</i>
  </separator>
  <separator name="linear response parameters" >
   <i type="logical" name="LEPSILON"> F  </i>
   <i type="logical" name="LRPA"> F  </i>
   <i type="logical" name="LNABLA"> F  </i>
   <i type="logical" name="LVEL"> F  </i>
   <i type="int" name="KINTER">     0</i>
   <i name="CSHIFT">      0.10000000</i>
   <i name="OMEGAMAX">     -1.00000000</i>
   <i name="DEG_THRESHOLD">      0.00200000</i>
   <i name="RTIME">     -0.10000000</i>
   <i name="WPLASMAI">      0.00000000</i>
   <v name="DFIELD">      0.00000000      0.00000000      0.00000000</v>
   <v name="WPLASMA">      0.00000000      0.00000000      0.00000000      0.00000000      0.00000000      0.00000000      0.00000000      0.00000000      0.00000000</v>
  </separator>
  <separator name="orbital magnetization" >
   <i type="logical" name="NUCIND"> F  </i>
   <v name="MAGPOS">      0.00000000      0.00000000      0.00000000</v>
   <i type="logical" name="LNICSALL"> T  </i>
   <i type="logical" name="ORBITALMAG"> F  </i>
   <i type="logical" name="LMAGBLOCH"> F  </i>
   <i type="logical" name="LCHIMAG"> F  </i>
   <i type="logical" name="LGAUGE"> T  </i>
   <i type="int" name="MAGATOM">     0</i>
   <v name="MAGDIPOL">      0.00000000      0.00000000      0.00000000</v>
   <v name="AVECCONST">      0.00000000      0.00000000      0.00000000</v>
  </separator>
  <separator name="response functions" >
   <i type="logical" name="LADDER"> F  </i>
   <i type="logical" name="LRPAFORCE"> F  </i>
   <i type="logical" name="LFXC"> F  </i>
   <i type="logical" name="LHARTREE"> T  </i>
   <i type="int" name="IBSE">     0</i>
   <v type="int" name="KPOINT">    -1     0     0     0</v>
   <i type="logical" name="LTCTE"> F  </i>
   <i type="logical" name="LTETE"> F  </i>
   <i type="logical" name="LTRIPLET"> F  </i>
   <i type="logical" name="LFXCEPS"> F  </i>
   <i type="logical" name="LFXHEG"> F  </i>
   <i type="int" name="NATURALO">     2</i>
   <i type="logical" name="L2ORDER"> F  </i>
   <i type="logical" name="LMP2LT"> F  </i>
   <i type="logical" name="LUSEW"> F  </i>
   <i name="ENCUTGW">     -2.00000000</i>
   <i name="ENCUTGWSOFT">     -2.00000000</i>
   <i name="ENCUTLF">     -1.00000000</i>
   <i type="int" name="LMAXMP2">    -1</i>
   <i name="SCISSOR">      0.00000000</i>
   <i type="int" name="NOMEGA">     0</i>
   <i type="int" name="NOMEGAR">     0</i>
   <i type="int" name="NBANDSGW">    -1</i>
   <i type="int" name="NBANDSO">    -1</i>
   <i type="int" name="NBANDSV">    -1</i>
   <i type="int" name="NELM">   300</i>
   <i type="int" name="NELMHF">     1</i>
   <i type="int" name="DIM">     3</i>
   <i type="int" name="ANTIRES">     0</i>
   <i name="OMEGAMAX">    -30.00000000</i>
   <i name="OMEGAMIN">    -30.00000000</i>
   <i name="OMEGATL">   -200.00000000</i>
   <i type="int" name="OMEGAGRID">   140</i>
   <i name="CSHIFT">     -0.10000000</i>
   <i type="logical" name="SELFENERGY"> F  </i>
   <i type="logical" name="LSPECTRAL"> F  </i>
   <i type="logical" name="LSPECTRALGW"> F  </i>
   <i type="logical" name="LSINGLES"> F  </i>
   <i type="logical" name="LFERMIGW"> F  </i>
   <i type="logical" name="ODDONLYGW"> F  </i>
   <i type="logical" name="EVENONLYGW"> F  </i>
   <i type="int" name="NKREDLFX">     1</i>
   <i type="int" name="NKREDLFY">     1</i>
   <i type="int" name="NKREDLFZ">     1</i>
   <i type="int" name="MAXMEM">  2800</i>
   <i type="int" name="TELESCOPE">     0</i>
   <i type="int" name="TAUPAR">     1</i>
   <i type="int" name="OMEGAPAR">    -1</i>
   <i name="LAMBDA">      1.00000000</i>
  </separator>
  <separator name="External order field" >
   <i name="OFIELD_KAPPA">      0.00000000</i>
   <v name="OFIELD_K">      0.00000000      0.00000000      0.00000000</v>
   <i name="OFIELD_Q6_NEAR">      0.00000000</i>
   <i name="OFIELD_Q6_FAR">      0.00000000</i>
   <i name="OFIELD_A">      0.00000000</i>
  </separator>
 </parameters>
 <atominfo>
  <atoms>       1 </atoms>
  <types>       1 </types>
  <array name="atoms" >
   <dimension dim="1">ion</dimension>
   <field type="string">element</field>
   <field type="int">atomtype</field>
   <set>
    <rc><c>Ag</c><c>   1</c></rc>
   </set>
  </array>
  <array name="atomtypes" >
   <dimension dim="1">type</dimension>
   <field type="int">atomspertype</field>
   <field type="string">element</field>
   <field>mass</field>
   <field>valence</field>
   <field type="string">pseudopotential</field>
   <set>
    <rc><c>   1</c><c>Ag</c><c>    107.86800000</c><c>     11.00000000</c><c>  PAW_PBE Ag 02Apr2005                  </c></rc>
   </set>
  </array>
 </atominfo>
 <structure name="initialpos" >
  <crystal>
   <varray name="basis" >
    <v>      10.00000000       0.00000000       0.00000000 </v>
    <v>       0.00000000      10.00000000       0.00000000 </v>
    <v>       0.00000000       0.00000000      10.00000000 </v>
   </varray>
   <i name="volume">   1000.00000000 </i>
   <varray name="rec_basis" >
    <v>       0.10000000       0.00000000       0.00000000 </v>
    <v>       0.00000000       0.10000000       0.00000000 </v>
    <v>       0.00000000       0.00000000       0.10000000 </v>
   </varray>
  </crystal>
  <varray name="positions" >
   <v>       0.50000000       0.50000000       0.50000000 </v>
  </varray>
 </structure>
 <calculation>
  <scstep>
   <time name="total">    0.87    0.87</time>
   <energy>
    <i name="alphaZ">      0.85057807 </i>
    <i name="ewald">   -247.18170407 </i>
    <i name="hartreedc">   -748.60225673 </i>
    <i name="XCdc">    -12.12612611 </i>
    <i name="pawpsdc">   1003.42977721 </i>
    <i name="pawaedc">   -957.31880862 </i>
    <i name="eentropy">     -0.01083731 </i>
    <i name="bandstr">     12.31759786 </i>
    <i name="atom">   1037.26278146 </i>
    <i name="e_fr_energy">     88.62100178 </i>
    <i name="e_wo_entrp">     88.63183908 </i>
    <i name="e_0_energy">     88.62642043 </i>
   </energy>
  </scstep>
  <scstep>
   <time name="total">    0.40    0.40</time>
   <energy>
    <i name="e_fr_energy">     14.36877125 </i>
    <i name="e_wo_entrp">     14.37073107 </i>
    <i name="e_0_energy">     14.36975116 </i>
   </energy>
  </scstep>
  <scstep>
   <time name="total">    0.40    0.40</time>
   <energy>
    <i name="e_fr_energy">      1.39755676 </i>
    <i name="e_wo_entrp">      1.39906960 </i>
    <i name="e_0_energy">      1.39831318 </i>
   </energy>
  </scstep>
  <scstep>
   <time name="total">    0.39    0.39</time>
   <energy>
    <i name="e_fr_energy">      0.17496487 </i>
    <i name="e_wo_entrp">      0.17670291 </i>
    <i name="e_0_energy">      0.17583389 </i>
   </energy>
  </scstep>
  <scstep>
   <time name="total">    0.62    0.62</time>
   <energy>
    <i name="e_fr_energy">     -0.00381817 </i>
    <i name="e_wo_entrp">     -0.00194203 </i>
    <i name="e_0_energy">     -0.00288010 </i>
   </energy>
  </scstep>
  <scstep>
   <time name="total">    0.91    0.91</time>
   <energy>
    <i name="e_fr_energy">     -0.13362220 </i>
    <i name="e_wo_entrp">     -0.13356933 </i>
    <i name="e_0_energy">     -0.13359576 </i>
   </energy>
  </scstep>
  <scstep>
   <time name="total">    0.90    0.90</time>
   <energy>
    <i name="e_fr_energy">     -0.18839439 </i>
    <i name="e_wo_entrp">     -0.18839433 </i>
    <i name="e_0_energy">     -0.18839436 </i>
   </energy>
  </scstep>
  <scstep>
   <time name="total">    0.91    0.91</time>
   <energy>
    <i name="e_fr_energy">     -0.19598975 </i>
    <i name="e_wo_entrp">     -0.19598975 </i>
    <i name="e_0_energy">     -0.19598975 </i>
   </energy>
  </scstep>
  <scstep>
   <time name="total">    0.88    0.89</time>
   <energy>
    <i name="e_fr_energy">     -0.20060288 </i>
    <i name="e_wo_entrp">     -0.20060288 </i>
    <i name="e_0_energy">     -0.20060288 </i>
   </energy>
  </scstep>
  <scstep>
   <time name="total">    0.88    0.89</time>
   <energy>
    <i name="e_fr_energy">     -0.20144602 </i>
    <i name="e_wo_entrp">     -0.20144602 </i>
    <i name="e_0_energy">     -0.20144602 </i>
   </energy>
  </scstep>
  <scstep>
   <time name="total">    0.88    0.89</time>
   <energy>
    <i name="e_fr_energy">     -0.20232558 </i>
    <i name="e_wo_entrp">     -0.20232558 </i>
    <i name="e_0_energy">     -0.20232558 </i>
   </energy>
  </scstep>
  <scstep>
   <time name="total">    0.88    0.88</time>
   <energy>
    <i name="e_fr_energy">     -0.20261206 </i>
    <i name="e_wo_entrp">     -0.20261206 </i>
    <i name="e_0_energy">     -0.20261206 </i>
   </energy>
  </scstep>
  <scstep>
   <time name="total">    0.89    0.90</time>
   <energy>
    <i name="e_fr_energy">     -0.20281801 </i>
    <i name="e_wo_entrp">     -0.20281801 </i>
    <i name="e_0_energy">     -0.20281801 </i>
   </energy>
  </scstep>
  <scstep>
   <time name="total">    0.94    0.95</time>
   <energy>
    <i name="alphaZ">      0.85057807 </i>
    <i name="ewald">   -247.18170407 </i>
    <i name="hartreedc">   -748.94621995 </i>
    <i name="XCdc">    -12.03026166 </i>
    <i name="pawpsdc">   1007.66979394 </i>
    <i name="pawaedc">   -961.56933658 </i>
    <i name="eentropy">     -0.00000000 </i>
    <i name="bandstr">    -76.25848910 </i>
    <i name="atom">   1037.26278146 </i>
    <i name="e_fr_energy">     -0.20285789 </i>
    <i name="e_wo_entrp">     -0.20285789 </i>
    <i name="e_0_energy">     -0.20285789 </i>
   </energy>
  </scstep>
  <structure>
   <crystal>
    <varray name="basis" >
     <v>      10.00000000       0.00000000       0.00000000 </v>
     <v>       0.00000000      10.00000000       0.00000000 </v>
     <v>       0.00000000       0.00000000      10.00000000 </v>
    </varray>
    <i name="volume">   1000.00000000 </i>
    <varray name="rec_basis" >
     <v>       0.10000000       0.00000000       0.00000000 </v>
     <v>       0.00000000       0.10000000       0.00000000 </v>
     <v>       0.00000000       0.00000000       0.10000000 </v>
    </varray>
   </crystal>
   <varray name="positions" >
    <v>       0.50000000       0.50000000       0.50000000 </v>
   </varray>
  </structure>
  <varray name="forces" >
   <v>       0.00000000       0.00000000       0.00000000 </v>
  </varray>
  <varray name="stress" >
   <v>       0.02339484      -0.00000000       0.00000000 </v>
   <v>       0.00000000       0.02339484       0.00000000 </v>
   <v>      -0.00000000       0.00000000       0.02339484 </v>
  </varray>
  <energy>
   <i name="e_fr_energy">     -0.20285789 </i>
   <i name="e_wo_entrp">     -0.20285789 </i>
   <i name="e_0_energy">     -0.00000000 </i>
  </energy>
  <time name="totalsc">   22.48   22.67</time>
  <eigenvalues>
   <array>
    <dimension dim="1">band</dimension>
    <dimension dim="2">kpoint</dimension>
    <dimension dim="3">spin</dimension>
    <field>eigene</field>
    <field>occ</field>
    <set>
     <set comment="spin 1">
      <set comment="kpoint 1">
       <r>   -7.2780    1.0000 </r>
       <r>   -7.2780    1.0000 </r>
       <r>   -7.2779    1.0000 </r>
       <r>   -7.2779    1.0000 </r>
       <r>   -7.2779    1.0000 </r>
       <r>   -4.5119    1.0000 </r>
       <r>   -0.6684    0.0000 </r>
       <r>   -0.6619    0.0000 </r>
       <r>   -0.6408    0.0000 </r>
       <r>   -0.2229    0.0000 </r>
       <r>    0.8642    0.0000 </r>
       <r>    0.8645    0.0000 </r>
       <r>    1.6826    0.0000 </r>
       <r>    1.7192    0.0000 </r>
       <r>    1.7282    0.0000 </r>
       <r>    1.8657    0.0000 </r>
       <r>    1.8744    0.0000 </r>
       <r>    1.9651    0.0000 </r>
       <r>    1.9747    0.0000 </r>
       <r>    2.3954    0.0000 </r>
       <r>    2.4909    0.0000 </r>
       <r>    2.5041    0.0000 </r>
       <r>    2.5374    0.0000 </r>
       <r>    2.8026    0.0000 </r>
       <r>    3.5614    0.0000 </r>
       <r>    3.6483    0.0000 </r>
       <r>    3.6494    0.0000 </r>
       <r>    3.7204    0.0000 </r>
       <r>    3.7503    0.0000 </r>
       <r>    3.7824    0.0000 </r>
       <r>    4.1657    0.0000 </r>
       <r>    4.4058    0.0000 </r>
       <r>    4.6985    0.0000 </r>
       <r>    4.8707    0.0000 </r>
       <r>    6.0254    0.0000 </r>
       <r>    6.2765    0.0000 </r>
      </set>
     </set>
     <set comment="spin 2">
      <set comment="kpoint 1">
       <r>   -7.0714    1.0000 </r>
       <r>   -7.0714    1.0000 </r>
       <r>   -7.0713    1.0000 </r>
       <r>   -7.0713    1.0000 </r>
       <r>   -7.0713    1.0000 </r>
       <r>   -3.7409    0.0000 </r>
       <r>    0.0858    0.0000 </r>
       <r>    0.1025    0.0000 </r>
       <r>    0.1732    0.0000 </r>
       <r>    0.2001    0.0000 </r>
       <r>    1.4450    0.0000 </r>
       <r>    1.4463    0.0000 </r>
       <r>    2.0942    0.0000 </r>
       <r>    2.1033    0.0000 </r>
       <r>    2.1334    0.0000 </r>
       <r>    2.2813    0.0000 </r>
       <r>    2.6217    0.0000 </r>
       <r>    2.6217    0.0000 </r>
       <r>    2.6745    0.0000 </r>
       <r>    2.9411    0.0000 </r>
       <r>    2.9479    0.0000 </r>
       <r>    3.0043    0.0000 </r>
       <r>    3.0218    0.0000 </r>
       <r>    3.1959    0.0000 </r>
       <r>    4.1039    0.0000 </r>
       <r>    4.1403    0.0000 </r>
       <r>    4.1964    0.0000 </r>
       <r>    4.2446    0.0000 </r>
       <r>    4.2763    0.0000 </r>
       <r>    4.4026    0.0000 </r>
       <r>    4.7937    0.0000 </r>
       <r>    5.0500    0.0000 </r>
       <r>    5.0993    0.0000 </r>
       <r>    5.2877    0.0000 </r>
       <r>    5.5172    0.0000 </r>
       <r>    6.5447    0.0000 </r>
      </set>
     </set>
    </set>
   </array>
  </eigenvalues>
  <separator name="orbital magnetization" >
   <v name="MAGDIPOLOUT">      0.00000000      0.00000000      0.00000000</v>
  </separator>
  <dos>
   <i name="efermi">     -4.26769656 </i>
   <total>
    <array>
     <dimension dim="1">gridpoints</dimension>
     <dimension dim="2">spin</dimension>
     <field>energy</field>
     <field>total</field>
     <field>integrated</field>
     <set>
      <set comment="spin 1">
       <r>    -7.9692     0.0000     0.0000 </r>
       <r>    -7.9185     0.0000     0.0000 </r>
       <r>    -7.8678     0.0000     0.0000 </r>
       <r>    -7.8171     0.0000     0.0000 </r>
       <r>    -7.7664     0.0000     0.0000 </r>
       <r>    -7.7157     0.0000     0.0000 </r>
       <r>    -7.6651     0.0000     0.0000 </r>
       <r>    -7.6144     0.0000     0.0000 </r>
       <r>    -7.5637     0.0000     0.0000 </r>
       <r>    -7.5130     0.0000     0.0000 </r>
       <r>    -7.4623     0.0000     0.0000 </r>
       <r>    -7.4116     0.0077     0.0004 </r>
       <r>    -7.3610     0.9247     0.0473 </r>
       <r>    -7.3103    16.8625     0.9019 </r>
       <r>    -7.2596    51.0973     3.4917 </r>
       <r>    -7.2089    27.2541     4.8730 </r>
       <r>    -7.1582     2.4709     4.9982 </r>
       <r>    -7.1075     0.0348     5.0000 </r>
       <r>    -7.0569     0.0001     5.0000 </r>
       <r>    -7.0062     0.0000     5.0000 </r>
       <r>    -6.9555     0.0000     5.0000 </r>
       <r>    -6.9048     0.0000     5.0000 </r>
       <r>    -6.8541     0.0000     5.0000 </r>
       <r>    -6.8034     0.0000     5.0000 </r>
       <r>    -6.7528     0.0000     5.0000 </r>
       <r>    -6.7021     0.0000     5.0000 </r>
       <r>    -6.6514     0.0000     5.0000 </r>
       <r>    -6.6007     0.0000     5.0000 </r>
       <r>    -6.5500     0.0000     5.0000 </r>
       <r>    -6.4993     0.0000     5.0000 </r>
       <r>    -6.4487     0.0000     5.0000 </r>
       <r>    -6.3980     0.0000     5.0000 </r>
       <r>    -6.3473     0.0000     5.0000 </r>
       <r>    -6.2966     0.0000     5.0000 </r>
       <r>    -6.2459     0.0000     5.0000 </r>
       <r>    -6.1952     0.0000     5.0000 </r>
       <r>    -6.1446     0.0000     5.0000 </r>
       <r>    -6.0939     0.0000     5.0000 </r>
       <r>    -6.0432     0.0000     5.0000 </r>
       <r>    -5.9925     0.0000     5.0000 </r>
       <r>    -5.9418     0.0000     5.0000 </r>
       <r>    -5.8911     0.0000     5.0000 </r>
       <r>    -5.8405     0.0000     5.0000 </r>
       <r>    -5.7898     0.0000     5.0000 </r>
       <r>    -5.7391     0.0000     5.0000 </r>
       <r>    -5.6884     0.0000     5.0000 </r>
       <r>    -5.6377     0.0000     5.0000 </r>
       <r>    -5.5870     0.0000     5.0000 </r>
       <r>    -5.5364     0.0000     5.0000 </r>
       <r>    -5.4857     0.0000     5.0000 </r>
       <r>    -5.4350     0.0000     5.0000 </r>
       <r>    -5.3843     0.0000     5.0000 </r>
       <r>    -5.3336     0.0000     5.0000 </r>
       <r>    -5.2829     0.0000     5.0000 </r>
       <r>    -5.2323     0.0000     5.0000 </r>
       <r>    -5.1816     0.0000     5.0000 </r>
       <r>    -5.1309     0.0000     5.0000 </r>
       <r>    -5.0802     0.0000     5.0000 </r>
       <r>    -5.0295     0.0000     5.0000 </r>
       <r>    -4.9788     0.0000     5.0000 </r>
       <r>    -4.9282     0.0000     5.0000 </r>
       <r>    -4.8775     0.0000     5.0000 </r>
       <r>    -4.8268     0.0000     5.0000 </r>
       <r>    -4.7761     0.0000     5.0000 </r>
       <r>    -4.7254     0.0000     5.0000 </r>
       <r>    -4.6747     0.0000     5.0000 </r>
       <r>    -4.6241     0.0149     5.0008 </r>
       <r>    -4.5734     0.7960     5.0411 </r>
       <r>    -4.5227     6.6938     5.3804 </r>
       <r>    -4.4720     9.6716     5.8706 </r>
       <r>    -4.4213     2.4515     5.9948 </r>
       <r>    -4.3706     0.1019     6.0000 </r>
       <r>    -4.3200     0.0006     6.0000 </r>
       <r>    -4.2693     0.0000     6.0000 </r>
       <r>    -4.2186     0.0000     6.0000 </r>
       <r>    -4.1679     0.0000     6.0000 </r>
       <r>    -4.1172     0.0000     6.0000 </r>
       <r>    -4.0665     0.0000     6.0000 </r>
       <r>    -4.0159     0.0000     6.0000 </r>
       <r>    -3.9652     0.0000     6.0000 </r>
       <r>    -3.9145     0.0000     6.0000 </r>
       <r>    -3.8638     0.0000     6.0000 </r>
       <r>    -3.8131     0.0000     6.0000 </r>
       <r>    -3.7624     0.0000     6.0000 </r>
       <r>    -3.7118     0.0000     6.0000 </r>
       <r>    -3.6611     0.0000     6.0000 </r>
       <r>    -3.6104     0.0000     6.0000 </r>
       <r>    -3.5597     0.0000     6.0000 </r>
       <r>    -3.5090     0.0000     6.0000 </r>
       <r>    -3.4583     0.0000     6.0000 </r>
       <r>    -3.4077     0.0000     6.0000 </r>
       <r>    -3.3570     0.0000     6.0000 </r>
       <r>    -3.3063     0.0000     6.0000 </r>
       <r>    -3.2556     0.0000     6.0000 </r>
       <r>    -3.2049     0.0000     6.0000 </r>
       <r>    -3.1543     0.0000     6.0000 </r>
       <r>    -3.1036     0.0000     6.0000 </r>
       <r>    -3.0529     0.0000     6.0000 </r>
       <r>    -3.0022     0.0000     6.0000 </r>
       <r>    -2.9515     0.0000     6.0000 </r>
       <r>    -2.9008     0.0000     6.0000 </r>
       <r>    -2.8502     0.0000     6.0000 </r>
       <r>    -2.7995     0.0000     6.0000 </r>
       <r>    -2.7488     0.0000     6.0000 </r>
       <r>    -2.6981     0.0000     6.0000 </r>
       <r>    -2.6474     0.0000     6.0000 </r>
       <r>    -2.5967     0.0000     6.0000 </r>
       <r>    -2.5461     0.0000     6.0000 </r>
       <r>    -2.4954     0.0000     6.0000 </r>
       <r>    -2.4447     0.0000     6.0000 </r>
       <r>    -2.3940     0.0000     6.0000 </r>
       <r>    -2.3433     0.0000     6.0000 </r>
       <r>    -2.2926     0.0000     6.0000 </r>
       <r>    -2.2420     0.0000     6.0000 </r>
       <r>    -2.1913     0.0000     6.0000 </r>
       <r>    -2.1406     0.0000     6.0000 </r>
       <r>    -2.0899     0.0000     6.0000 </r>
       <r>    -2.0392     0.0000     6.0000 </r>
       <r>    -1.9885     0.0000     6.0000 </r>
       <r>    -1.9379     0.0000     6.0000 </r>
       <r>    -1.8872     0.0000     6.0000 </r>
       <r>    -1.8365     0.0000     6.0000 </r>
       <r>    -1.7858     0.0000     6.0000 </r>
       <r>    -1.7351     0.0000     6.0000 </r>
       <r>    -1.6844     0.0000     6.0000 </r>
       <r>    -1.6338     0.0000     6.0000 </r>
       <r>    -1.5831     0.0000     6.0000 </r>
       <r>    -1.5324     0.0000     6.0000 </r>
       <r>    -1.4817     0.0000     6.0000 </r>
       <r>    -1.4310     0.0000     6.0000 </r>
       <r>    -1.3803     0.0000     6.0000 </r>
       <r>    -1.3297     0.0000     6.0000 </r>
       <r>    -1.2790     0.0000     6.0000 </r>
       <r>    -1.2283     0.0000     6.0000 </r>
       <r>    -1.1776     0.0000     6.0000 </r>
       <r>    -1.1269     0.0000     6.0000 </r>
       <r>    -1.0762     0.0000     6.0000 </r>
       <r>    -1.0256     0.0000     6.0000 </r>
       <r>    -0.9749     0.0000     6.0000 </r>
       <r>    -0.9242     0.0000     6.0000 </r>
       <r>    -0.8735     0.0000     6.0000 </r>
       <r>    -0.8228     0.0002     6.0000 </r>
       <r>    -0.7721     0.0528     6.0027 </r>
       <r>    -0.7215     2.3949     6.1241 </r>
       <r>    -0.6708    18.7186     7.0728 </r>
       <r>    -0.6201    28.4952     8.5170 </r>
       <r>    -0.5694     8.9640     8.9713 </r>
       <r>    -0.5187     0.5594     8.9997 </r>
       <r>    -0.4680     0.0062     9.0000 </r>
       <r>    -0.4174     0.0000     9.0000 </r>
       <r>    -0.3667     0.0005     9.0000 </r>
       <r>    -0.3160     0.0831     9.0042 </r>
       <r>    -0.2653     2.1902     9.1152 </r>
       <r>    -0.2146     9.4200     9.5927 </r>
       <r>    -0.1639     7.0963     9.9523 </r>
       <r>    -0.1133     0.9214     9.9990 </r>
       <r>    -0.0626     0.0189    10.0000 </r>
       <r>    -0.0119     0.0001    10.0000 </r>
       <r>     0.0388     0.0000    10.0000 </r>
       <r>     0.0895     0.0000    10.0000 </r>
       <r>     0.1402     0.0000    10.0000 </r>
       <r>     0.1908     0.0000    10.0000 </r>
       <r>     0.2415     0.0000    10.0000 </r>
       <r>     0.2922     0.0000    10.0000 </r>
       <r>     0.3429     0.0000    10.0000 </r>
       <r>     0.3936     0.0000    10.0000 </r>
       <r>     0.4443     0.0000    10.0000 </r>
       <r>     0.4949     0.0000    10.0000 </r>
       <r>     0.5456     0.0000    10.0000 </r>
       <r>     0.5963     0.0000    10.0000 </r>
       <r>     0.6470     0.0000    10.0000 </r>
       <r>     0.6977     0.0000    10.0000 </r>
       <r>     0.7484     0.0204    10.0010 </r>
       <r>     0.7990     1.2566    10.0647 </r>
       <r>     0.8497    12.1227    10.6791 </r>
       <r>     0.9004    19.9885    11.6922 </r>
       <r>     0.9511     5.7934    11.9858 </r>
       <r>     1.0018     0.2772    11.9999 </r>
       <r>     1.0525     0.0020    12.0000 </r>
       <r>     1.1031     0.0000    12.0000 </r>
       <r>     1.1538     0.0000    12.0000 </r>
       <r>     1.2045     0.0000    12.0000 </r>
       <r>     1.2552     0.0000    12.0000 </r>
       <r>     1.3059     0.0000    12.0000 </r>
       <r>     1.3566     0.0000    12.0000 </r>
       <r>     1.4072     0.0000    12.0000 </r>
       <r>     1.4579     0.0000    12.0000 </r>
       <r>     1.5086     0.0000    12.0000 </r>
       <r>     1.5593     0.0049    12.0002 </r>
       <r>     1.6100     0.4175    12.0214 </r>
       <r>     1.6607     6.3759    12.3446 </r>
       <r>     1.7113    23.2218    13.5215 </r>
       <r>     1.7620    23.4165    14.7083 </r>
       <r>     1.8127     7.6287    15.0950 </r>
       <r>     1.8634    14.9920    15.8548 </r>
       <r>     1.9141    20.6430    16.9011 </r>
       <r>     1.9648    19.2485    17.8767 </r>
       <r>     2.0154    18.1726    18.7977 </r>
       <r>     2.0661     3.8531    18.9930 </r>
       <r>     2.1168     0.1377    19.0000 </r>
       <r>     2.1675     0.0008    19.0000 </r>
       <r>     2.2182     0.0000    19.0000 </r>
       <r>     2.2689     0.0034    19.0002 </r>
       <r>     2.3195     0.3121    19.0160 </r>
       <r>     2.3702     4.3984    19.2389 </r>
       <r>     2.4209    11.0433    19.7986 </r>
       <r>     2.4716    13.5789    20.4868 </r>
       <r>     2.5223    26.7526    21.8428 </r>
       <r>     2.5729    19.0205    22.8068 </r>
       <r>     2.6236     3.6583    22.9922 </r>
       <r>     2.6743     0.1558    23.0001 </r>
       <r>     2.7250     0.2765    23.0141 </r>
       <r>     2.7757     4.1291    23.2234 </r>
       <r>     2.8264    10.3793    23.7494 </r>
       <r>     2.8770     4.5967    23.9824 </r>
       <r>     2.9277     0.3431    23.9998 </r>
       <r>     2.9784     0.0039    24.0000 </r>
       <r>     3.0291     0.0000    24.0000 </r>
       <r>     3.0798     0.0000    24.0000 </r>
       <r>     3.1305     0.0000    24.0000 </r>
       <r>     3.1811     0.0000    24.0000 </r>
       <r>     3.2318     0.0000    24.0000 </r>
       <r>     3.2825     0.0000    24.0000 </r>
       <r>     3.3332     0.0000    24.0000 </r>
       <r>     3.3839     0.0000    24.0000 </r>
       <r>     3.4346     0.0033    24.0002 </r>
       <r>     3.4852     0.3044    24.0156 </r>
       <r>     3.5359     4.3646    24.2368 </r>
       <r>     3.5866    11.9091    24.8404 </r>
       <r>     3.6373    17.7148    25.7382 </r>
       <r>     3.6880    23.9837    26.9538 </r>
       <r>     3.7387    23.9036    28.1653 </r>
       <r>     3.7893    24.7075    29.4176 </r>
       <r>     3.8400    10.3572    29.9425 </r>
       <r>     3.8907     1.1119    29.9989 </r>
       <r>     3.9414     0.0222    30.0000 </r>
       <r>     3.9921     0.0001    30.0000 </r>
       <r>     4.0428     0.0050    30.0003 </r>
       <r>     4.0934     0.3983    30.0204 </r>
       <r>     4.1441     4.9346    30.2705 </r>
       <r>     4.1948    10.3392    30.7946 </r>
       <r>     4.2455     3.8158    30.9880 </r>
       <r>     4.2962     0.2544    31.0009 </r>
       <r>     4.3469     0.9277    31.0479 </r>
       <r>     4.3975     7.1088    31.4082 </r>
       <r>     4.4482     9.4116    31.8852 </r>
       <r>     4.4989     2.1824    31.9958 </r>
       <r>     4.5496     0.0828    32.0000 </r>
       <r>     4.6003     0.0542    32.0027 </r>
       <r>     4.6510     1.7098    32.0894 </r>
       <r>     4.7016     8.8013    32.5355 </r>
       <r>     4.7523     7.9119    32.9365 </r>
       <r>     4.8030     1.7711    33.0262 </r>
       <r>     4.8537     5.7047    33.3154 </r>
       <r>     4.9044    10.1474    33.8297 </r>
       <r>     4.9551     3.1928    33.9915 </r>
       <r>     5.0057     0.1665    33.9999 </r>
       <r>     5.0564     0.0013    34.0000 </r>
       <r>     5.1071     0.0000    34.0000 </r>
       <r>     5.1578     0.0000    34.0000 </r>
       <r>     5.2085     0.0000    34.0000 </r>
       <r>     5.2592     0.0000    34.0000 </r>
       <r>     5.3098     0.0000    34.0000 </r>
       <r>     5.3605     0.0000    34.0000 </r>
       <r>     5.4112     0.0000    34.0000 </r>
       <r>     5.4619     0.0000    34.0000 </r>
       <r>     5.5126     0.0000    34.0000 </r>
       <r>     5.5633     0.0000    34.0000 </r>
       <r>     5.6139     0.0000    34.0000 </r>
       <r>     5.6646     0.0000    34.0000 </r>
       <r>     5.7153     0.0000    34.0000 </r>
       <r>     5.7660     0.0000    34.0000 </r>
       <r>     5.8167     0.0000    34.0000 </r>
       <r>     5.8674     0.0001    34.0000 </r>
       <r>     5.9180     0.0236    34.0012 </r>
       <r>     5.9687     1.0522    34.0545 </r>
       <r>     6.0194     7.4662    34.4329 </r>
       <r>     6.0701     9.1561    34.8970 </r>
       <r>     6.1208     1.9636    34.9965 </r>
       <r>     6.1715     0.0976    35.0015 </r>
       <r>     6.2221     1.1960    35.0621 </r>
       <r>     6.2728     7.8233    35.4586 </r>
       <r>     6.3235     8.8703    35.9082 </r>
       <r>     6.3742     1.7554    35.9971 </r>
       <r>     6.4249     0.0562    36.0000 </r>
       <r>     6.4756     0.0003    36.0000 </r>
       <r>     6.5262     0.0000    36.0000 </r>
       <r>     6.5769     0.0000    36.0000 </r>
       <r>     6.6276     0.0000    36.0000 </r>
       <r>     6.6783     0.0000    36.0000 </r>
       <r>     6.7290     0.0000    36.0000 </r>
       <r>     6.7797     0.0000    36.0000 </r>
       <r>     6.8303     0.0000    36.0000 </r>
       <r>     6.8810     0.0000    36.0000 </r>
       <r>     6.9317     0.0000    36.0000 </r>
       <r>     6.9824     0.0000    36.0000 </r>
       <r>     7.0331     0.0000    36.0000 </r>
       <r>     7.0838     0.0000    36.0000 </r>
       <r>     7.1344     0.0000    36.0000 </r>
       <r>     7.1851     0.0000    36.0000 </r>
       <r>     7.2358     0.0000    36.0000 </r>
      </set>
      <set comment="spin 2">
       <r>    -7.9692     0.0000     0.0000 </r>
       <r>    -7.9185     0.0000     0.0000 </r>
       <r>    -7.8678     0.0000     0.0000 </r>
       <r>    -7.8171     0.0000     0.0000 </r>
       <r>    -7.7664     0.0000     0.0000 </r>
       <r>    -7.7157     0.0000     0.0000 </r>
       <r>    -7.6651     0.0000     0.0000 </r>
       <r>    -7.6144     0.0000     0.0000 </r>
       <r>    -7.5637     0.0000     0.0000 </r>
       <r>    -7.5130     0.0000     0.0000 </r>
       <r>    -7.4623     0.0000     0.0000 </r>
       <r>    -7.4116     0.0000     0.0000 </r>
       <r>    -7.3610     0.0000     0.0000 </r>
       <r>    -7.3103     0.0000     0.0000 </r>
       <r>    -7.2596     0.0000     0.0000 </r>
       <r>    -7.2089     0.0049     0.0003 </r>
       <r>    -7.1582     0.6863     0.0350 </r>
       <r>    -7.1075    14.4089     0.7653 </r>
       <r>    -7.0569    49.9269     3.2958 </r>
       <r>    -7.0062    30.4076     4.8369 </r>
       <r>    -6.9555     3.1657     4.9974 </r>
       <r>    -6.9048     0.0516     5.0000 </r>
       <r>    -6.8541     0.0001     5.0000 </r>
       <r>    -6.8034     0.0000     5.0000 </r>
       <r>    -6.7528     0.0000     5.0000 </r>
       <r>    -6.7021     0.0000     5.0000 </r>
       <r>    -6.6514     0.0000     5.0000 </r>
       <r>    -6.6007     0.0000     5.0000 </r>
       <r>    -6.5500     0.0000     5.0000 </r>
       <r>    -6.4993     0.0000     5.0000 </r>
       <r>    -6.4487     0.0000     5.0000 </r>
       <r>    -6.3980     0.0000     5.0000 </r>
       <r>    -6.3473     0.0000     5.0000 </r>
       <r>    -6.2966     0.0000     5.0000 </r>
       <r>    -6.2459     0.0000     5.0000 </r>
       <r>    -6.1952     0.0000     5.0000 </r>
       <r>    -6.1446     0.0000     5.0000 </r>
       <r>    -6.0939     0.0000     5.0000 </r>
       <r>    -6.0432     0.0000     5.0000 </r>
       <r>    -5.9925     0.0000     5.0000 </r>
       <r>    -5.9418     0.0000     5.0000 </r>
       <r>    -5.8911     0.0000     5.0000 </r>
       <r>    -5.8405     0.0000     5.0000 </r>
       <r>    -5.7898     0.0000     5.0000 </r>
       <r>    -5.7391     0.0000     5.0000 </r>
       <r>    -5.6884     0.0000     5.0000 </r>
       <r>    -5.6377     0.0000     5.0000 </r>
       <r>    -5.5870     0.0000     5.0000 </r>
       <r>    -5.5364     0.0000     5.0000 </r>
       <r>    -5.4857     0.0000     5.0000 </r>
       <r>    -5.4350     0.0000     5.0000 </r>
       <r>    -5.3843     0.0000     5.0000 </r>
       <r>    -5.3336     0.0000     5.0000 </r>
       <r>    -5.2829     0.0000     5.0000 </r>
       <r>    -5.2323     0.0000     5.0000 </r>
       <r>    -5.1816     0.0000     5.0000 </r>
       <r>    -5.1309     0.0000     5.0000 </r>
       <r>    -5.0802     0.0000     5.0000 </r>
       <r>    -5.0295     0.0000     5.0000 </r>
       <r>    -4.9788     0.0000     5.0000 </r>
       <r>    -4.9282     0.0000     5.0000 </r>
       <r>    -4.8775     0.0000     5.0000 </r>
       <r>    -4.8268     0.0000     5.0000 </r>
       <r>    -4.7761     0.0000     5.0000 </r>
       <r>    -4.7254     0.0000     5.0000 </r>
       <r>    -4.6747     0.0000     5.0000 </r>
       <r>    -4.6241     0.0000     5.0000 </r>
       <r>    -4.5734     0.0000     5.0000 </r>
       <r>    -4.5227     0.0000     5.0000 </r>
       <r>    -4.4720     0.0000     5.0000 </r>
       <r>    -4.4213     0.0000     5.0000 </r>
       <r>    -4.3706     0.0000     5.0000 </r>
       <r>    -4.3200     0.0000     5.0000 </r>
       <r>    -4.2693     0.0000     5.0000 </r>
       <r>    -4.2186     0.0000     5.0000 </r>
       <r>    -4.1679     0.0000     5.0000 </r>
       <r>    -4.1172     0.0000     5.0000 </r>
       <r>    -4.0665     0.0000     5.0000 </r>
       <r>    -4.0159     0.0000     5.0000 </r>
       <r>    -3.9652     0.0000     5.0000 </r>
       <r>    -3.9145     0.0000     5.0000 </r>
       <r>    -3.8638     0.0050     5.0003 </r>
       <r>    -3.8131     0.3998     5.0205 </r>
       <r>    -3.7624     4.9429     5.2710 </r>
       <r>    -3.7118    10.3378     5.7950 </r>
       <r>    -3.6611     3.8083     5.9880 </r>
       <r>    -3.6104     0.2344     5.9999 </r>
       <r>    -3.5597     0.0022     6.0000 </r>
       <r>    -3.5090     0.0000     6.0000 </r>
       <r>    -3.4583     0.0000     6.0000 </r>
       <r>    -3.4077     0.0000     6.0000 </r>
       <r>    -3.3570     0.0000     6.0000 </r>
       <r>    -3.3063     0.0000     6.0000 </r>
       <r>    -3.2556     0.0000     6.0000 </r>
       <r>    -3.2049     0.0000     6.0000 </r>
       <r>    -3.1543     0.0000     6.0000 </r>
       <r>    -3.1036     0.0000     6.0000 </r>
       <r>    -3.0529     0.0000     6.0000 </r>
       <r>    -3.0022     0.0000     6.0000 </r>
       <r>    -2.9515     0.0000     6.0000 </r>
       <r>    -2.9008     0.0000     6.0000 </r>
       <r>    -2.8502     0.0000     6.0000 </r>
       <r>    -2.7995     0.0000     6.0000 </r>
       <r>    -2.7488     0.0000     6.0000 </r>
       <r>    -2.6981     0.0000     6.0000 </r>
       <r>    -2.6474     0.0000     6.0000 </r>
       <r>    -2.5967     0.0000     6.0000 </r>
       <r>    -2.5461     0.0000     6.0000 </r>
       <r>    -2.4954     0.0000     6.0000 </r>
       <r>    -2.4447     0.0000     6.0000 </r>
       <r>    -2.3940     0.0000     6.0000 </r>
       <r>    -2.3433     0.0000     6.0000 </r>
       <r>    -2.2926     0.0000     6.0000 </r>
       <r>    -2.2420     0.0000     6.0000 </r>
       <r>    -2.1913     0.0000     6.0000 </r>
       <r>    -2.1406     0.0000     6.0000 </r>
       <r>    -2.0899     0.0000     6.0000 </r>
       <r>    -2.0392     0.0000     6.0000 </r>
       <r>    -1.9885     0.0000     6.0000 </r>
       <r>    -1.9379     0.0000     6.0000 </r>
       <r>    -1.8872     0.0000     6.0000 </r>
       <r>    -1.8365     0.0000     6.0000 </r>
       <r>    -1.7858     0.0000     6.0000 </r>
       <r>    -1.7351     0.0000     6.0000 </r>
       <r>    -1.6844     0.0000     6.0000 </r>
       <r>    -1.6338     0.0000     6.0000 </r>
       <r>    -1.5831     0.0000     6.0000 </r>
       <r>    -1.5324     0.0000     6.0000 </r>
       <r>    -1.4817     0.0000     6.0000 </r>
       <r>    -1.4310     0.0000     6.0000 </r>
       <r>    -1.3803     0.0000     6.0000 </r>
       <r>    -1.3297     0.0000     6.0000 </r>
       <r>    -1.2790     0.0000     6.0000 </r>
       <r>    -1.2283     0.0000     6.0000 </r>
       <r>    -1.1776     0.0000     6.0000 </r>
       <r>    -1.1269     0.0000     6.0000 </r>
       <r>    -1.0762     0.0000     6.0000 </r>
       <r>    -1.0256     0.0000     6.0000 </r>
       <r>    -0.9749     0.0000     6.0000 </r>
       <r>    -0.9242     0.0000     6.0000 </r>
       <r>    -0.8735     0.0000     6.0000 </r>
       <r>    -0.8228     0.0000     6.0000 </r>
       <r>    -0.7721     0.0000     6.0000 </r>
       <r>    -0.7215     0.0000     6.0000 </r>
       <r>    -0.6708     0.0000     6.0000 </r>
       <r>    -0.6201     0.0000     6.0000 </r>
       <r>    -0.5694     0.0000     6.0000 </r>
       <r>    -0.5187     0.0000     6.0000 </r>
       <r>    -0.4680     0.0000     6.0000 </r>
       <r>    -0.4174     0.0000     6.0000 </r>
       <r>    -0.3667     0.0000     6.0000 </r>
       <r>    -0.3160     0.0000     6.0000 </r>
       <r>    -0.2653     0.0000     6.0000 </r>
       <r>    -0.2146     0.0000     6.0000 </r>
       <r>    -0.1639     0.0000     6.0000 </r>
       <r>    -0.1133     0.0000     6.0000 </r>
       <r>    -0.0626     0.0003     6.0000 </r>
       <r>    -0.0119     0.0682     6.0035 </r>
       <r>     0.0388     2.4512     6.1277 </r>
       <r>     0.0895    15.3864     6.9075 </r>
       <r>     0.1402    21.8363     8.0143 </r>
       <r>     0.1908    21.0162     9.0794 </r>
       <r>     0.2415    15.2500     9.8524 </r>
       <r>     0.2922     2.8146     9.9950 </r>
       <r>     0.3429     0.0979    10.0000 </r>
       <r>     0.3936     0.0005    10.0000 </r>
       <r>     0.4443     0.0000    10.0000 </r>
       <r>     0.4949     0.0000    10.0000 </r>
       <r>     0.5456     0.0000    10.0000 </r>
       <r>     0.5963     0.0000    10.0000 </r>
       <r>     0.6470     0.0000    10.0000 </r>
       <r>     0.6977     0.0000    10.0000 </r>
       <r>     0.7484     0.0000    10.0000 </r>
       <r>     0.7990     0.0000    10.0000 </r>
       <r>     0.8497     0.0000    10.0000 </r>
       <r>     0.9004     0.0000    10.0000 </r>
       <r>     0.9511     0.0000    10.0000 </r>
       <r>     1.0018     0.0000    10.0000 </r>
       <r>     1.0525     0.0000    10.0000 </r>
       <r>     1.1031     0.0000    10.0000 </r>
       <r>     1.1538     0.0000    10.0000 </r>
       <r>     1.2045     0.0000    10.0000 </r>
       <r>     1.2552     0.0000    10.0000 </r>
       <r>     1.3059     0.0015    10.0001 </r>
       <r>     1.3566     0.2300    10.0117 </r>
       <r>     1.4072     5.2366    10.2771 </r>
       <r>     1.4579    19.6102    11.2710 </r>
       <r>     1.5086    12.9006    11.9249 </r>
       <r>     1.5593     1.4560    11.9987 </r>
       <r>     1.6100     0.0258    12.0000 </r>
       <r>     1.6607     0.0001    12.0000 </r>
       <r>     1.7113     0.0000    12.0000 </r>
       <r>     1.7620     0.0000    12.0000 </r>
       <r>     1.8127     0.0000    12.0000 </r>
       <r>     1.8634     0.0000    12.0000 </r>
       <r>     1.9141     0.0000    12.0000 </r>
       <r>     1.9648     0.0034    12.0002 </r>
       <r>     2.0154     0.3885    12.0199 </r>
       <r>     2.0661     7.2735    12.3885 </r>
       <r>     2.1168    26.0012    13.7063 </r>
       <r>     2.1675    21.1648    14.7790 </r>
       <r>     2.2182     4.9130    15.0280 </r>
       <r>     2.2689     6.5987    15.3625 </r>
       <r>     2.3195     9.8232    15.8603 </r>
       <r>     2.3702     2.6382    15.9941 </r>
       <r>     2.4209     0.1165    16.0000 </r>
       <r>     2.4716     0.0012    16.0000 </r>
       <r>     2.5223     0.0967    16.0049 </r>
       <r>     2.5729     3.2561    16.1700 </r>
       <r>     2.6236    18.7173    17.1186 </r>
       <r>     2.6743    24.5138    18.3610 </r>
       <r>     2.7250    11.0256    18.9199 </r>
       <r>     2.7757     1.5394    18.9979 </r>
       <r>     2.8264     0.0590    19.0009 </r>
       <r>     2.8770     1.1195    19.0576 </r>
       <r>     2.9277    11.7925    19.6553 </r>
       <r>     2.9784    26.5711    21.0020 </r>
       <r>     3.0291    26.0644    22.3230 </r>
       <r>     3.0798    12.0439    22.9334 </r>
       <r>     3.1305     1.9208    23.0308 </r>
       <r>     3.1811     6.0602    23.3380 </r>
       <r>     3.2318    10.0055    23.8451 </r>
       <r>     3.2825     2.9156    23.9928 </r>
       <r>     3.3332     0.1403    23.9999 </r>
       <r>     3.3839     0.0010    24.0000 </r>
       <r>     3.4346     0.0000    24.0000 </r>
       <r>     3.4852     0.0000    24.0000 </r>
       <r>     3.5359     0.0000    24.0000 </r>
       <r>     3.5866     0.0000    24.0000 </r>
       <r>     3.6373     0.0000    24.0000 </r>
       <r>     3.6880     0.0000    24.0000 </r>
       <r>     3.7387     0.0000    24.0000 </r>
       <r>     3.7893     0.0000    24.0000 </r>
       <r>     3.8400     0.0000    24.0000 </r>
       <r>     3.8907     0.0000    24.0000 </r>
       <r>     3.9414     0.0000    24.0000 </r>
       <r>     3.9921     0.0157    24.0008 </r>
       <r>     4.0428     0.8702    24.0449 </r>
       <r>     4.0934     8.5593    24.4787 </r>
       <r>     4.1441    19.9178    25.4882 </r>
       <r>     4.1948    20.0732    26.5056 </r>
       <r>     4.2455    21.9424    27.6177 </r>
       <r>     4.2962    20.1617    28.6396 </r>
       <r>     4.3469     7.7534    29.0325 </r>
       <r>     4.3975     8.0942    29.4428 </r>
       <r>     4.4482     9.0518    29.9015 </r>
       <r>     4.4989     1.8791    29.9968 </r>
       <r>     4.5496     0.0633    30.0000 </r>
       <r>     4.6003     0.0003    30.0000 </r>
       <r>     4.6510     0.0005    30.0000 </r>
       <r>     4.7016     0.0907    30.0046 </r>
       <r>     4.7523     2.2993    30.1212 </r>
       <r>     4.8030     9.5313    30.6042 </r>
       <r>     4.8537     6.9253    30.9552 </r>
       <r>     4.9044     0.8665    30.9991 </r>
       <r>     4.9551     0.0888    31.0036 </r>
       <r>     5.0057     2.0882    31.1095 </r>
       <r>     5.0564    11.3521    31.6848 </r>
       <r>     5.1071    16.7566    32.5341 </r>
       <r>     5.1578     8.2033    32.9499 </r>
       <r>     5.2085     1.2160    33.0115 </r>
       <r>     5.2592     3.9145    33.2099 </r>
       <r>     5.3098    10.3526    33.7346 </r>
       <r>     5.3605     4.8477    33.9803 </r>
       <r>     5.4112     0.4103    34.0011 </r>
       <r>     5.4619     1.1392    34.0589 </r>
       <r>     5.5126     7.6767    34.4479 </r>
       <r>     5.5633     8.9914    34.9037 </r>
       <r>     5.6139     1.8396    34.9969 </r>
       <r>     5.6646     0.0610    35.0000 </r>
       <r>     5.7153     0.0003    35.0000 </r>
       <r>     5.7660     0.0000    35.0000 </r>
       <r>     5.8167     0.0000    35.0000 </r>
       <r>     5.8674     0.0000    35.0000 </r>
       <r>     5.9180     0.0000    35.0000 </r>
       <r>     5.9687     0.0000    35.0000 </r>
       <r>     6.0194     0.0000    35.0000 </r>
       <r>     6.0701     0.0000    35.0000 </r>
       <r>     6.1208     0.0000    35.0000 </r>
       <r>     6.1715     0.0000    35.0000 </r>
       <r>     6.2221     0.0000    35.0000 </r>
       <r>     6.2728     0.0000    35.0000 </r>
       <r>     6.3235     0.0000    35.0000 </r>
       <r>     6.3742     0.0000    35.0000 </r>
       <r>     6.4249     0.0069    35.0004 </r>
       <r>     6.4756     0.4923    35.0253 </r>
       <r>     6.5262     5.4413    35.3011 </r>
       <r>     6.5769    10.2223    35.8192 </r>
       <r>     6.6276     3.3803    35.9905 </r>
       <r>     6.6783     0.1858    35.9999 </r>
       <r>     6.7290     0.0015    36.0000 </r>
       <r>     6.7797     0.0000    36.0000 </r>
       <r>     6.8303     0.0000    36.0000 </r>
       <r>     6.8810     0.0000    36.0000 </r>
       <r>     6.9317     0.0000    36.0000 </r>
       <r>     6.9824     0.0000    36.0000 </r>
       <r>     7.0331     0.0000    36.0000 </r>
       <r>     7.0838     0.0000    36.0000 </r>
       <r>     7.1344     0.0000    36.0000 </r>
       <r>     7.1851     0.0000    36.0000 </r>
       <r>     7.2358     0.0000    36.0000 </r>
      </set>
     </set>
    </array>
   </total>
   <partial>
    <array>
     <dimension dim="1">gridpoints</dimension>
     <dimension dim="2">spin</dimension>
     <dimension dim="3">ion</dimension>
     <field>energy</field>
     <field>    s</field>
     <field>   py</field>
     <field>   pz</field>
     <field>   px</field>
     <field>  dxy</field>
     <field>  dyz</field>
     <field>  dz2</field>
     <field>  dxz</field>
     <field>x2-y2</field>
     <set>
      <set comment="ion 1">
       <set comment="spin 1">
        <r>    -7.9692     0.0000     0.0000     0.0000     0.0000     0.0000     0.0000     0.0000     0.0000     0.0000 </r>
        <r>    -7.9185     0.0000     0.0000     0.0000     0.0000     0.0000     0.0000     0.0000     0.0000     0.0000 </r>
        <r>    -7.8678     0.0000     0.0000     0.0000     0.0000     0.0000     0.0000     0.0000     0.0000     0.0000 </r>
        <r>    -7.8171     0.0000     0.0000     0.0000     0.0000     0.0000     0.0000     0.0000     0.0000     0.0000 </r>
        <r>    -7.7664     0.0000     0.0000     0.0000     0.0000     0.0000     0.0000     0.0000     0.0000     0.0000 </r>
        <r>    -7.7157     0.0000     0.0000     0.0000     0.0000     0.0000     0.0000     0.0000     0.0000     0.0000 </r>
        <r>    -7.6651     0.0000     0.0000     0.0000     0.0000     0.0000     0.0000     0.0000     0.0000     0.0000 </r>
        <r>    -7.6144     0.0000     0.0000     0.0000     0.0000     0.0000     0.0000     0.0000     0.0000     0.0000 </r>
        <r>    -7.5637     0.0000     0.0000     0.0000     0.0000     0.0000     0.0000     0.0000     0.0000     0.0000 </r>
        <r>    -7.5130     0.0000     0.0000     0.0000     0.0000     0.0000     0.0000     0.0000     0.0000     0.0000 </r>
        <r>    -7.4623     0.0000     0.0000     0.0000     0.0000     0.0000     0.0000     0.0000     0.0000     0.0000 </r>
        <r>    -7.4116     0.0000     0.0000     0.0000     0.0000     0.0014     0.0014     0.0014     0.0014     0.0014 </r>
        <r>    -7.3610     0.0000     0.0000     0.0000     0.0000     0.1718     0.1718     0.1731     0.1718     0.1731 </r>
        <r>    -7.3103     0.0000     0.0000     0.0000     0.0000     3.1375     3.1375     3.1496     3.1375     3.1496 </r>
        <r>    -7.2596     0.0000     0.0000     0.0000     0.0000     9.5204     9.5205     9.5245     9.5204     9.5247 </r>
        <r>    -7.2089     0.0000     0.0000     0.0000     0.0000     5.0848     5.0849     5.0699     5.0847     5.0700 </r>
        <r>    -7.1582     0.0000     0.0000     0.0000     0.0000     0.4616     0.4617     0.4587     0.4616     0.4587 </r>
        <r>    -7.1075     0.0000     0.0000     0.0000     0.0000     0.0065     0.0065     0.0064     0.0065     0.0065 </r>
        <r>    -7.0569     0.0000     0.0000     0.0000     0.0000     0.0000     0.0000     0.0000     0.0000     0.0000 </r>
        <r>    -7.0062     0.0000     0.0000     0.0000     0.0000     0.0000     0.0000     0.0000     0.0000     0.0000 </r>
        <r>    -6.9555     0.0000     0.0000     0.0000     0.0000     0.0000     0.0000     0.0000     0.0000     0.0000 </r>
        <r>    -6.9048     0.0000     0.0000     0.0000     0.0000     0.0000     0.0000     0.0000     0.0000     0.0000 </r>
        <r>    -6.8541     0.0000     0.0000     0.0000     0.0000     0.0000     0.0000     0.0000     0.0000     0.0000 </r>
        <r>    -6.8034     0.0000     0.0000     0.0000     0.0000     0.0000     0.0000     0.0000     0.0000     0.0000 </r>
        <r>    -6.7528     0.0000     0.0000     0.0000     0.0000     0.0000     0.0000     0.0000     0.0000     0.0000 </r>
        <r>    -6.7021     0.0000     0.0000     0.0000     0.0000     0.0000     0.0000     0.0000     0.0000     0.0000 </r>
        <r>    -6.6514     0.0000     0.0000     0.0000     0.0000     0.0000     0.0000     0.0000     0.0000     0.0000 </r>
        <r>    -6.6007     0.0000     0.0000     0.0000     0.0000     0.0000     0.0000     0.0000     0.0000     0.0000 </r>
        <r>    -6.5500     0.0000     0.0000     0.0000     0.0000     0.0000     0.0000     0.0000     0.0000     0.0000 </r>
        <r>    -6.4993     0.0000     0.0000     0.0000     0.0000     0.0000     0.0000     0.0000     0.0000     0.0000 </r>
        <r>    -6.4487     0.0000     0.0000     0.0000     0.0000     0.0000     0.0000     0.0000     0.0000     0.0000 </r>
        <r>    -6.3980     0.0000     0.0000     0.0000     0.0000     0.0000     0.0000     0.0000     0.0000     0.0000 </r>
        <r>    -6.3473     0.0000     0.0000     0.0000     0.0000     0.0000     0.0000     0.0000     0.0000     0.0000 </r>
        <r>    -6.2966     0.0000     0.0000     0.0000     0.0000     0.0000     0.0000     0.0000     0.0000     0.0000 </r>
        <r>    -6.2459     0.0000     0.0000     0.0000     0.0000     0.0000     0.0000     0.0000     0.0000     0.0000 </r>
        <r>    -6.1952     0.0000     0.0000     0.0000     0.0000     0.0000     0.0000     0.0000     0.0000     0.0000 </r>
        <r>    -6.1446     0.0000     0.0000     0.0000     0.0000     0.0000     0.0000     0.0000     0.0000     0.0000 </r>
        <r>    -6.0939     0.0000     0.0000     0.0000     0.0000     0.0000     0.0000     0.0000     0.0000     0.0000 </r>
        <r>    -6.0432     0.0000     0.0000     0.0000     0.0000     0.0000     0.0000     0.0000     0.0000     0.0000 </r>
        <r>    -5.9925     0.0000     0.0000     0.0000     0.0000     0.0000     0.0000     0.0000     0.0000     0.0000 </r>
        <r>    -5.9418     0.0000     0.0000     0.0000     0.0000     0.0000     0.0000     0.0000     0.0000     0.0000 </r>
        <r>    -5.8911     0.0000     0.0000     0.0000     0.0000     0.0000     0.0000     0.0000     0.0000     0.0000 </r>
        <r>    -5.8405     0.0000     0.0000     0.0000     0.0000     0.0000     0.0000     0.0000     0.0000     0.0000 </r>
        <r>    -5.7898     0.0000     0.0000     0.0000     0.0000     0.0000     0.0000     0.0000     0.0000     0.0000 </r>
        <r>    -5.7391     0.0000     0.0000     0.0000     0.0000     0.0000     0.0000     0.0000     0.0000     0.0000 </r>
        <r>    -5.6884     0.0000     0.0000     0.0000     0.0000     0.0000     0.0000     0.0000     0.0000     0.0000 </r>
        <r>    -5.6377     0.0000     0.0000     0.0000     0.0000     0.0000     0.0000     0.0000     0.0000     0.0000 </r>
        <r>    -5.5870     0.0000     0.0000     0.0000     0.0000     0.0000     0.0000     0.0000     0.0000     0.0000 </r>
        <r>    -5.5364     0.0000     0.0000     0.0000     0.0000     0.0000     0.0000     0.0000     0.0000     0.0000 </r>
        <r>    -5.4857     0.0000     0.0000     0.0000     0.0000     0.0000     0.0000     0.0000     0.0000     0.0000 </r>
        <r>    -5.4350     0.0000     0.0000     0.0000     0.0000     0.0000     0.0000     0.0000     0.0000     0.0000 </r>
        <r>    -5.3843     0.0000     0.0000     0.0000     0.0000     0.0000     0.0000     0.0000     0.0000     0.0000 </r>
        <r>    -5.3336     0.0000     0.0000     0.0000     0.0000     0.0000     0.0000     0.0000     0.0000     0.0000 </r>
        <r>    -5.2829     0.0000     0.0000     0.0000     0.0000     0.0000     0.0000     0.0000     0.0000     0.0000 </r>
        <r>    -5.2323     0.0000     0.0000     0.0000     0.0000     0.0000     0.0000     0.0000     0.0000     0.0000 </r>
        <r>    -5.1816     0.0000     0.0000     0.0000     0.0000     0.0000     0.0000     0.0000     0.0000     0.0000 </r>
        <r>    -5.1309     0.0000     0.0000     0.0000     0.0000     0.0000     0.0000     0.0000     0.0000     0.0000 </r>
        <r>    -5.0802     0.0000     0.0000     0.0000     0.0000     0.0000     0.0000     0.0000     0.0000     0.0000 </r>
        <r>    -5.0295     0.0000     0.0000     0.0000     0.0000     0.0000     0.0000     0.0000     0.0000     0.0000 </r>
        <r>    -4.9788     0.0000     0.0000     0.0000     0.0000     0.0000     0.0000     0.0000     0.0000     0.0000 </r>
        <r>    -4.9282     0.0000     0.0000     0.0000     0.0000     0.0000     0.0000     0.0000     0.0000     0.0000 </r>
        <r>    -4.8775     0.0000     0.0000     0.0000     0.0000     0.0000     0.0000     0.0000     0.0000     0.0000 </r>
        <r>    -4.8268     0.0000     0.0000     0.0000     0.0000     0.0000     0.0000     0.0000     0.0000     0.0000 </r>
        <r>    -4.7761     0.0000     0.0000     0.0000     0.0000     0.0000     0.0000     0.0000     0.0000     0.0000 </r>
        <r>    -4.7254     0.0000     0.0000     0.0000     0.0000     0.0000     0.0000     0.0000     0.0000     0.0000 </r>
        <r>    -4.6747     0.0000     0.0000     0.0000     0.0000     0.0000     0.0000     0.0000     0.0000     0.0000 </r>
        <r>    -4.6241     0.0055     0.0000     0.0000     0.0000     0.0000     0.0000     0.0000     0.0000     0.0000 </r>
        <r>    -4.5734     0.2911     0.0000     0.0000     0.0000     0.0000     0.0000     0.0000     0.0000     0.0000 </r>
        <r>    -4.5227     2.4484     0.0000     0.0000     0.0000     0.0000     0.0000     0.0000     0.0000     0.0000 </r>
        <r>    -4.4720     3.5375     0.0000     0.0000     0.0000     0.0000     0.0000     0.0000     0.0000     0.0000 </r>
        <r>    -4.4213     0.8967     0.0000     0.0000     0.0000     0.0000     0.0000     0.0000     0.0000     0.0000 </r>
        <r>    -4.3706     0.0373     0.0000     0.0000     0.0000     0.0000     0.0000     0.0000     0.0000     0.0000 </r>
        <r>    -4.3200     0.0002     0.0000     0.0000     0.0000     0.0000     0.0000     0.0000     0.0000     0.0000 </r>
        <r>    -4.2693     0.0000     0.0000     0.0000     0.0000     0.0000     0.0000     0.0000     0.0000     0.0000 </r>
        <r>    -4.2186     0.0000     0.0000     0.0000     0.0000     0.0000     0.0000     0.0000     0.0000     0.0000 </r>
        <r>    -4.1679     0.0000     0.0000     0.0000     0.0000     0.0000     0.0000     0.0000     0.0000     0.0000 </r>
        <r>    -4.1172     0.0000     0.0000     0.0000     0.0000     0.0000     0.0000     0.0000     0.0000     0.0000 </r>
        <r>    -4.0665     0.0000     0.0000     0.0000     0.0000     0.0000     0.0000     0.0000     0.0000     0.0000 </r>
        <r>    -4.0159     0.0000     0.0000     0.0000     0.0000     0.0000     0.0000     0.0000     0.0000     0.0000 </r>
        <r>    -3.9652     0.0000     0.0000     0.0000     0.0000     0.0000     0.0000     0.0000     0.0000     0.0000 </r>
        <r>    -3.9145     0.0000     0.0000     0.0000     0.0000     0.0000     0.0000     0.0000     0.0000     0.0000 </r>
        <r>    -3.8638     0.0000     0.0000     0.0000     0.0000     0.0000     0.0000     0.0000     0.0000     0.0000 </r>
        <r>    -3.8131     0.0000     0.0000     0.0000     0.0000     0.0000     0.0000     0.0000     0.0000     0.0000 </r>
        <r>    -3.7624     0.0000     0.0000     0.0000     0.0000     0.0000     0.0000     0.0000     0.0000     0.0000 </r>
        <r>    -3.7118     0.0000     0.0000     0.0000     0.0000     0.0000     0.0000     0.0000     0.0000     0.0000 </r>
        <r>    -3.6611     0.0000     0.0000     0.0000     0.0000     0.0000     0.0000     0.0000     0.0000     0.0000 </r>
        <r>    -3.6104     0.0000     0.0000     0.0000     0.0000     0.0000     0.0000     0.0000     0.0000     0.0000 </r>
        <r>    -3.5597     0.0000     0.0000     0.0000     0.0000     0.0000     0.0000     0.0000     0.0000     0.0000 </r>
        <r>    -3.5090     0.0000     0.0000     0.0000     0.0000     0.0000     0.0000     0.0000     0.0000     0.0000 </r>
        <r>    -3.4583     0.0000     0.0000     0.0000     0.0000     0.0000     0.0000     0.0000     0.0000     0.0000 </r>
        <r>    -3.4077     0.0000     0.0000     0.0000     0.0000     0.0000     0.0000     0.0000     0.0000     0.0000 </r>
        <r>    -3.3570     0.0000     0.0000     0.0000     0.0000     0.0000     0.0000     0.0000     0.0000     0.0000 </r>
        <r>    -3.3063     0.0000     0.0000     0.0000     0.0000     0.0000     0.0000     0.0000     0.0000     0.0000 </r>
        <r>    -3.2556     0.0000     0.0000     0.0000     0.0000     0.0000     0.0000     0.0000     0.0000     0.0000 </r>
        <r>    -3.2049     0.0000     0.0000     0.0000     0.0000     0.0000     0.0000     0.0000     0.0000     0.0000 </r>
        <r>    -3.1543     0.0000     0.0000     0.0000     0.0000     0.0000     0.0000     0.0000     0.0000     0.0000 </r>
        <r>    -3.1036     0.0000     0.0000     0.0000     0.0000     0.0000     0.0000     0.0000     0.0000     0.0000 </r>
        <r>    -3.0529     0.0000     0.0000     0.0000     0.0000     0.0000     0.0000     0.0000     0.0000     0.0000 </r>
        <r>    -3.0022     0.0000     0.0000     0.0000     0.0000     0.0000     0.0000     0.0000     0.0000     0.0000 </r>
        <r>    -2.9515     0.0000     0.0000     0.0000     0.0000     0.0000     0.0000     0.0000     0.0000     0.0000 </r>
        <r>    -2.9008     0.0000     0.0000     0.0000     0.0000     0.0000     0.0000     0.0000     0.0000     0.0000 </r>
        <r>    -2.8502     0.0000     0.0000     0.0000     0.0000     0.0000     0.0000     0.0000     0.0000     0.0000 </r>
        <r>    -2.7995     0.0000     0.0000     0.0000     0.0000     0.0000     0.0000     0.0000     0.0000     0.0000 </r>
        <r>    -2.7488     0.0000     0.0000     0.0000     0.0000     0.0000     0.0000     0.0000     0.0000     0.0000 </r>
        <r>    -2.6981     0.0000     0.0000     0.0000     0.0000     0.0000     0.0000     0.0000     0.0000     0.0000 </r>
        <r>    -2.6474     0.0000     0.0000     0.0000     0.0000     0.0000     0.0000     0.0000     0.0000     0.0000 </r>
        <r>    -2.5967     0.0000     0.0000     0.0000     0.0000     0.0000     0.0000     0.0000     0.0000     0.0000 </r>
        <r>    -2.5461     0.0000     0.0000     0.0000     0.0000     0.0000     0.0000     0.0000     0.0000     0.0000 </r>
        <r>    -2.4954     0.0000     0.0000     0.0000     0.0000     0.0000     0.0000     0.0000     0.0000     0.0000 </r>
        <r>    -2.4447     0.0000     0.0000     0.0000     0.0000     0.0000     0.0000     0.0000     0.0000     0.0000 </r>
        <r>    -2.3940     0.0000     0.0000     0.0000     0.0000     0.0000     0.0000     0.0000     0.0000     0.0000 </r>
        <r>    -2.3433     0.0000     0.0000     0.0000     0.0000     0.0000     0.0000     0.0000     0.0000     0.0000 </r>
        <r>    -2.2926     0.0000     0.0000     0.0000     0.0000     0.0000     0.0000     0.0000     0.0000     0.0000 </r>
        <r>    -2.2420     0.0000     0.0000     0.0000     0.0000     0.0000     0.0000     0.0000     0.0000     0.0000 </r>
        <r>    -2.1913     0.0000     0.0000     0.0000     0.0000     0.0000     0.0000     0.0000     0.0000     0.0000 </r>
        <r>    -2.1406     0.0000     0.0000     0.0000     0.0000     0.0000     0.0000     0.0000     0.0000     0.0000 </r>
        <r>    -2.0899     0.0000     0.0000     0.0000     0.0000     0.0000     0.0000     0.0000     0.0000     0.0000 </r>
        <r>    -2.0392     0.0000     0.0000     0.0000     0.0000     0.0000     0.0000     0.0000     0.0000     0.0000 </r>
        <r>    -1.9885     0.0000     0.0000     0.0000     0.0000     0.0000     0.0000     0.0000     0.0000     0.0000 </r>
        <r>    -1.9379     0.0000     0.0000     0.0000     0.0000     0.0000     0.0000     0.0000     0.0000     0.0000 </r>
        <r>    -1.8872     0.0000     0.0000     0.0000     0.0000     0.0000     0.0000     0.0000     0.0000     0.0000 </r>
        <r>    -1.8365     0.0000     0.0000     0.0000     0.0000     0.0000     0.0000     0.0000     0.0000     0.0000 </r>
        <r>    -1.7858     0.0000     0.0000     0.0000     0.0000     0.0000     0.0000     0.0000     0.0000     0.0000 </r>
        <r>    -1.7351     0.0000     0.0000     0.0000     0.0000     0.0000     0.0000     0.0000     0.0000     0.0000 </r>
        <r>    -1.6844     0.0000     0.0000     0.0000     0.0000     0.0000     0.0000     0.0000     0.0000     0.0000 </r>
        <r>    -1.6338     0.0000     0.0000     0.0000     0.0000     0.0000     0.0000     0.0000     0.0000     0.0000 </r>
        <r>    -1.5831     0.0000     0.0000     0.0000     0.0000     0.0000     0.0000     0.0000     0.0000     0.0000 </r>
        <r>    -1.5324     0.0000     0.0000     0.0000     0.0000     0.0000     0.0000     0.0000     0.0000     0.0000 </r>
        <r>    -1.4817     0.0000     0.0000     0.0000     0.0000     0.0000     0.0000     0.0000     0.0000     0.0000 </r>
        <r>    -1.4310     0.0000     0.0000     0.0000     0.0000     0.0000     0.0000     0.0000     0.0000     0.0000 </r>
        <r>    -1.3803     0.0000     0.0000     0.0000     0.0000     0.0000     0.0000     0.0000     0.0000     0.0000 </r>
        <r>    -1.3297     0.0000     0.0000     0.0000     0.0000     0.0000     0.0000     0.0000     0.0000     0.0000 </r>
        <r>    -1.2790     0.0000     0.0000     0.0000     0.0000     0.0000     0.0000     0.0000     0.0000     0.0000 </r>
        <r>    -1.2283     0.0000     0.0000     0.0000     0.0000     0.0000     0.0000     0.0000     0.0000     0.0000 </r>
        <r>    -1.1776     0.0000     0.0000     0.0000     0.0000     0.0000     0.0000     0.0000     0.0000     0.0000 </r>
        <r>    -1.1269     0.0000     0.0000     0.0000     0.0000     0.0000     0.0000     0.0000     0.0000     0.0000 </r>
        <r>    -1.0762     0.0000     0.0000     0.0000     0.0000     0.0000     0.0000     0.0000     0.0000     0.0000 </r>
        <r>    -1.0256     0.0000     0.0000     0.0000     0.0000     0.0000     0.0000     0.0000     0.0000     0.0000 </r>
        <r>    -0.9749     0.0000     0.0000     0.0000     0.0000     0.0000     0.0000     0.0000     0.0000     0.0000 </r>
        <r>    -0.9242     0.0000     0.0000     0.0000     0.0000     0.0000     0.0000     0.0000     0.0000     0.0000 </r>
        <r>    -0.8735     0.0000     0.0000     0.0000     0.0000     0.0000     0.0000     0.0000     0.0000     0.0000 </r>
        <r>    -0.8228     0.0000     0.0000     0.0000     0.0000     0.0000     0.0000     0.0000     0.0000     0.0000 </r>
        <r>    -0.7721     0.0000     0.0026     0.0016     0.0011     0.0000     0.0000     0.0000     0.0000     0.0000 </r>
        <r>    -0.7215     0.0000     0.1047     0.0769     0.0581     0.0000     0.0000     0.0000     0.0000     0.0000 </r>
        <r>    -0.6708     0.0001     0.7042     0.6171     0.5337     0.0000     0.0000     0.0000     0.0000     0.0000 </r>
        <r>    -0.6201     0.0001     0.8940     0.9389     0.9501     0.0000     0.0000     0.0000     0.0000     0.0000 </r>
        <r>    -0.5694     0.0001     0.2320     0.2867     0.3413     0.0000     0.0000     0.0000     0.0000     0.0000 </r>
        <r>    -0.5187     0.0000     0.0124     0.0171     0.0233     0.0000     0.0000     0.0000     0.0000     0.0000 </r>
        <r>    -0.4680     0.0000     0.0001     0.0002     0.0003     0.0000     0.0000     0.0000     0.0000     0.0000 </r>
        <r>    -0.4174     0.0000     0.0000     0.0000     0.0000     0.0000     0.0000     0.0000     0.0000     0.0000 </r>
        <r>    -0.3667     0.0000     0.0000     0.0000     0.0000     0.0000     0.0000     0.0000     0.0000     0.0000 </r>
        <r>    -0.3160     0.0026     0.0000     0.0000     0.0000     0.0000     0.0000     0.0000     0.0000     0.0000 </r>
        <r>    -0.2653     0.0679     0.0000     0.0000     0.0000     0.0000     0.0000     0.0000     0.0000     0.0000 </r>
        <r>    -0.2146     0.2919     0.0000     0.0000     0.0001     0.0000     0.0000     0.0000     0.0000     0.0000 </r>
        <r>    -0.1639     0.2199     0.0000     0.0000     0.0001     0.0000     0.0000     0.0000     0.0000     0.0000 </r>
        <r>    -0.1133     0.0286     0.0000     0.0000     0.0000     0.0000     0.0000     0.0000     0.0000     0.0000 </r>
        <r>    -0.0626     0.0006     0.0000     0.0000     0.0000     0.0000     0.0000     0.0000     0.0000     0.0000 </r>
        <r>    -0.0119     0.0000     0.0000     0.0000     0.0000     0.0000     0.0000     0.0000     0.0000     0.0000 </r>
        <r>     0.0388     0.0000     0.0000     0.0000     0.0000     0.0000     0.0000     0.0000     0.0000     0.0000 </r>
        <r>     0.0895     0.0000     0.0000     0.0000     0.0000     0.0000     0.0000     0.0000     0.0000     0.0000 </r>
        <r>     0.1402     0.0000     0.0000     0.0000     0.0000     0.0000     0.0000     0.0000     0.0000     0.0000 </r>
        <r>     0.1908     0.0000     0.0000     0.0000     0.0000     0.0000     0.0000     0.0000     0.0000     0.0000 </r>
        <r>     0.2415     0.0000     0.0000     0.0000     0.0000     0.0000     0.0000     0.0000     0.0000     0.0000 </r>
        <r>     0.2922     0.0000     0.0000     0.0000     0.0000     0.0000     0.0000     0.0000     0.0000     0.0000 </r>
        <r>     0.3429     0.0000     0.0000     0.0000     0.0000     0.0000     0.0000     0.0000     0.0000     0.0000 </r>
        <r>     0.3936     0.0000     0.0000     0.0000     0.0000     0.0000     0.0000     0.0000     0.0000     0.0000 </r>
        <r>     0.4443     0.0000     0.0000     0.0000     0.0000     0.0000     0.0000     0.0000     0.0000     0.0000 </r>
        <r>     0.4949     0.0000     0.0000     0.0000     0.0000     0.0000     0.0000     0.0000     0.0000     0.0000 </r>
        <r>     0.5456     0.0000     0.0000     0.0000     0.0000     0.0000     0.0000     0.0000     0.0000     0.0000 </r>
        <r>     0.5963     0.0000     0.0000     0.0000     0.0000     0.0000     0.0000     0.0000     0.0000     0.0000 </r>
        <r>     0.6470     0.0000     0.0000     0.0000     0.0000     0.0000     0.0000     0.0000     0.0000     0.0000 </r>
        <r>     0.6977     0.0000     0.0000     0.0000     0.0000     0.0000     0.0000     0.0000     0.0000     0.0000 </r>
        <r>     0.7484     0.0000     0.0000     0.0000     0.0000     0.0000     0.0000     0.0000     0.0000     0.0000 </r>
        <r>     0.7990     0.0000     0.0000     0.0000     0.0000     0.0000     0.0000     0.0026     0.0000     0.0026 </r>
        <r>     0.8497     0.0000     0.0000     0.0000     0.0000     0.0000     0.0000     0.0252     0.0000     0.0250 </r>
        <r>     0.9004     0.0000     0.0000     0.0000     0.0001     0.0000     0.0000     0.0415     0.0000     0.0414 </r>
        <r>     0.9511     0.0000     0.0000     0.0000     0.0000     0.0000     0.0000     0.0120     0.0000     0.0120 </r>
        <r>     1.0018     0.0000     0.0000     0.0000     0.0000     0.0000     0.0000     0.0006     0.0000     0.0006 </r>
        <r>     1.0525     0.0000     0.0000     0.0000     0.0000     0.0000     0.0000     0.0000     0.0000     0.0000 </r>
        <r>     1.1031     0.0000     0.0000     0.0000     0.0000     0.0000     0.0000     0.0000     0.0000     0.0000 </r>
        <r>     1.1538     0.0000     0.0000     0.0000     0.0000     0.0000     0.0000     0.0000     0.0000     0.0000 </r>
        <r>     1.2045     0.0000     0.0000     0.0000     0.0000     0.0000     0.0000     0.0000     0.0000     0.0000 </r>
        <r>     1.2552     0.0000     0.0000     0.0000     0.0000     0.0000     0.0000     0.0000     0.0000     0.0000 </r>
        <r>     1.3059     0.0000     0.0000     0.0000     0.0000     0.0000     0.0000     0.0000     0.0000     0.0000 </r>
        <r>     1.3566     0.0000     0.0000     0.0000     0.0000     0.0000     0.0000     0.0000     0.0000     0.0000 </r>
        <r>     1.4072     0.0000     0.0000     0.0000     0.0000     0.0000     0.0000     0.0000     0.0000     0.0000 </r>
        <r>     1.4579     0.0000     0.0000     0.0000     0.0000     0.0000     0.0000     0.0000     0.0000     0.0000 </r>
        <r>     1.5086     0.0000     0.0000     0.0000     0.0000     0.0000     0.0000     0.0000     0.0000     0.0000 </r>
        <r>     1.5593     0.0000     0.0000     0.0001     0.0001     0.0000     0.0000     0.0000     0.0000     0.0000 </r>
        <r>     1.6100     0.0003     0.0014     0.0072     0.0048     0.0003     0.0003     0.0000     0.0001     0.0000 </r>
        <r>     1.6607     0.0172     0.0391     0.0908     0.0604     0.0043     0.0049     0.0000     0.0012     0.0000 </r>
        <r>     1.7113     0.1787     0.2449     0.1936     0.1339     0.0106     0.0169     0.0001     0.0061     0.0001 </r>
        <r>     1.7620     0.3173     0.3017     0.0742     0.0588     0.0060     0.0150     0.0002     0.0068     0.0001 </r>
[...]
        <r>     4.9551     0.0001     0.0001     0.0000     0.0010     0.0000     0.0000     0.0004     0.0000     0.0007 </r>
        <r>     5.0057     0.0019     0.0005     0.0004     0.0287     0.0000     0.0000     0.0067     0.0002     0.0177 </r>
        <r>     5.0564     0.0206     0.0039     0.0065     0.1322     0.0002     0.0009     0.0326     0.0017     0.0854 </r>
        <r>     5.1071     0.0680     0.0094     0.0261     0.1085     0.0002     0.0039     0.0338     0.0043     0.0873 </r>
        <r>     5.1578     0.0490     0.0061     0.0197     0.0169     0.0000     0.0029     0.0106     0.0028     0.0265 </r>
        <r>     5.2085     0.0094     0.0010     0.0026     0.0009     0.0000     0.0004     0.0020     0.0004     0.0049 </r>
        <r>     5.2592     0.0478     0.0038     0.0004     0.0050     0.0000     0.0000     0.0157     0.0000     0.0382 </r>
        <r>     5.3098     0.1266     0.0101     0.0010     0.0134     0.0001     0.0000     0.0418     0.0000     0.1014 </r>
        <r>     5.3605     0.0593     0.0047     0.0005     0.0063     0.0000     0.0000     0.0196     0.0000     0.0475 </r>
        <r>     5.4112     0.0048     0.0004     0.0002     0.0005     0.0000     0.0000     0.0016     0.0000     0.0038 </r>
        <r>     5.4619     0.0038     0.0010     0.0066     0.0000     0.0001     0.0006     0.0043     0.0000     0.0001 </r>
        <r>     5.5126     0.0250     0.0067     0.0448     0.0002     0.0004     0.0039     0.0292     0.0001     0.0006 </r>
        <r>     5.5633     0.0293     0.0078     0.0525     0.0002     0.0005     0.0045     0.0342     0.0002     0.0007 </r>
        <r>     5.6139     0.0060     0.0016     0.0107     0.0000     0.0001     0.0009     0.0070     0.0000     0.0001 </r>
        <r>     5.6646     0.0002     0.0001     0.0004     0.0000     0.0000     0.0000     0.0002     0.0000     0.0000 </r>
        <r>     5.7153     0.0000     0.0000     0.0000     0.0000     0.0000     0.0000     0.0000     0.0000     0.0000 </r>
        <r>     5.7660     0.0000     0.0000     0.0000     0.0000     0.0000     0.0000     0.0000     0.0000     0.0000 </r>
        <r>     5.8167     0.0000     0.0000     0.0000     0.0000     0.0000     0.0000     0.0000     0.0000     0.0000 </r>
        <r>     5.8674     0.0000     0.0000     0.0000     0.0000     0.0000     0.0000     0.0000     0.0000     0.0000 </r>
        <r>     5.9180     0.0000     0.0000     0.0000     0.0000     0.0000     0.0000     0.0000     0.0000     0.0000 </r>
        <r>     5.9687     0.0000     0.0000     0.0000     0.0000     0.0000     0.0000     0.0000     0.0000     0.0000 </r>
        <r>     6.0194     0.0000     0.0000     0.0000     0.0000     0.0000     0.0000     0.0000     0.0000     0.0000 </r>
        <r>     6.0701     0.0000     0.0000     0.0000     0.0000     0.0000     0.0000     0.0000     0.0000     0.0000 </r>
        <r>     6.1208     0.0000     0.0000     0.0000     0.0000     0.0000     0.0000     0.0000     0.0000     0.0000 </r>
        <r>     6.1715     0.0000     0.0000     0.0000     0.0000     0.0000     0.0000     0.0000     0.0000     0.0000 </r>
        <r>     6.2221     0.0000     0.0000     0.0000     0.0000     0.0000     0.0000     0.0000     0.0000     0.0000 </r>
        <r>     6.2728     0.0000     0.0000     0.0000     0.0000     0.0000     0.0000     0.0000     0.0000     0.0000 </r>
        <r>     6.3235     0.0000     0.0000     0.0000     0.0000     0.0000     0.0000     0.0000     0.0000     0.0000 </r>
        <r>     6.3742     0.0000     0.0000     0.0000     0.0000     0.0000     0.0000     0.0000     0.0000     0.0000 </r>
        <r>     6.4249     0.0000     0.0001     0.0000     0.0000     0.0000     0.0000     0.0000     0.0000     0.0000 </r>
        <r>     6.4756     0.0005     0.0073     0.0009     0.0007     0.0001     0.0006     0.0000     0.0000     0.0003 </r>
        <r>     6.5262     0.0059     0.0804     0.0097     0.0074     0.0011     0.0061     0.0004     0.0001     0.0037 </r>
        <r>     6.5769     0.0111     0.1510     0.0182     0.0139     0.0021     0.0115     0.0007     0.0003     0.0069 </r>
        <r>     6.6276     0.0037     0.0499     0.0060     0.0046     0.0007     0.0038     0.0002     0.0001     0.0023 </r>
        <r>     6.6783     0.0002     0.0027     0.0003     0.0003     0.0000     0.0002     0.0000     0.0000     0.0001 </r>
        <r>     6.7290     0.0000     0.0000     0.0000     0.0000     0.0000     0.0000     0.0000     0.0000     0.0000 </r>
        <r>     6.7797     0.0000     0.0000     0.0000     0.0000     0.0000     0.0000     0.0000     0.0000     0.0000 </r>
        <r>     6.8303     0.0000     0.0000     0.0000     0.0000     0.0000     0.0000     0.0000     0.0000     0.0000 </r>
        <r>     6.8810     0.0000     0.0000     0.0000     0.0000     0.0000     0.0000     0.0000     0.0000     0.0000 </r>
        <r>     6.9317     0.0000     0.0000     0.0000     0.0000     0.0000     0.0000     0.0000     0.0000     0.0000 </r>
        <r>     6.9824     0.0000     0.0000     0.0000     0.0000     0.0000     0.0000     0.0000     0.0000     0.0000 </r>
        <r>     7.0331     0.0000     0.0000     0.0000     0.0000     0.0000     0.0000     0.0000     0.0000     0.0000 </r>
        <r>     7.0838     0.0000     0.0000     0.0000     0.0000     0.0000     0.0000     0.0000     0.0000     0.0000 </r>
        <r>     7.1344     0.0000     0.0000     0.0000     0.0000     0.0000     0.0000     0.0000     0.0000     0.0000 </r>
        <r>     7.1851     0.0000     0.0000     0.0000     0.0000     0.0000     0.0000     0.0000     0.0000     0.0000 </r>
        <r>     7.2358     0.0000     0.0000     0.0000     0.0000     0.0000     0.0000     0.0000     0.0000     0.0000 </r>
       </set>
      </set>
     </set>
    </array>
   </partial>
  </dos>
  <projected>
   <eigenvalues>
    <array>
     <dimension dim="1">band</dimension>
     <dimension dim="2">kpoint</dimension>
     <dimension dim="3">spin</dimension>
     <field>eigene</field>
     <field>occ</field>
     <set>
      <set comment="spin 1">
       <set comment="kpoint 1">
        <r>   -7.2780    1.0000 </r>
        <r>   -7.2780    1.0000 </r>
        <r>   -7.2779    1.0000 </r>
        <r>   -7.2779    1.0000 </r>
        <r>   -7.2779    1.0000 </r>
        <r>   -4.5119    1.0000 </r>
        <r>   -0.6684    0.0000 </r>
        <r>   -0.6619    0.0000 </r>
        <r>   -0.6408    0.0000 </r>
        <r>   -0.2229    0.0000 </r>
        <r>    0.8642    0.0000 </r>
        <r>    0.8645    0.0000 </r>
        <r>    1.6826    0.0000 </r>
        <r>    1.7192    0.0000 </r>
        <r>    1.7282    0.0000 </r>
        <r>    1.8657    0.0000 </r>
        <r>    1.8744    0.0000 </r>
        <r>    1.9651    0.0000 </r>
        <r>    1.9747    0.0000 </r>
        <r>    2.3954    0.0000 </r>
        <r>    2.4909    0.0000 </r>
        <r>    2.5041    0.0000 </r>
        <r>    2.5374    0.0000 </r>
        <r>    2.8026    0.0000 </r>
        <r>    3.5614    0.0000 </r>
        <r>    3.6483    0.0000 </r>
        <r>    3.6494    0.0000 </r>
        <r>    3.7204    0.0000 </r>
        <r>    3.7503    0.0000 </r>
        <r>    3.7824    0.0000 </r>
        <r>    4.1657    0.0000 </r>
        <r>    4.4058    0.0000 </r>
        <r>    4.6985    0.0000 </r>
        <r>    4.8707    0.0000 </r>
        <r>    6.0254    0.0000 </r>
        <r>    6.2765    0.0000 </r>
       </set>
      </set>
      <set comment="spin 2">
       <set comment="kpoint 1">
        <r>   -7.0714    1.0000 </r>
        <r>   -7.0714    1.0000 </r>
        <r>   -7.0713    1.0000 </r>
        <r>   -7.0713    1.0000 </r>
        <r>   -7.0713    1.0000 </r>
        <r>   -3.7409    0.0000 </r>
        <r>    0.0858    0.0000 </r>
        <r>    0.1025    0.0000 </r>
        <r>    0.1732    0.0000 </r>
        <r>    0.2001    0.0000 </r>
        <r>    1.4450    0.0000 </r>
        <r>    1.4463    0.0000 </r>
        <r>    2.0942    0.0000 </r>
        <r>    2.1033    0.0000 </r>
        <r>    2.1334    0.0000 </r>
        <r>    2.2813    0.0000 </r>
        <r>    2.6217    0.0000 </r>
        <r>    2.6217    0.0000 </r>
        <r>    2.6745    0.0000 </r>
        <r>    2.9411    0.0000 </r>
        <r>    2.9479    0.0000 </r>
        <r>    3.0043    0.0000 </r>
        <r>    3.0218    0.0000 </r>
        <r>    3.1959    0.0000 </r>
        <r>    4.1039    0.0000 </r>
        <r>    4.1403    0.0000 </r>
        <r>    4.1964    0.0000 </r>
        <r>    4.2446    0.0000 </r>
        <r>    4.2763    0.0000 </r>
        <r>    4.4026    0.0000 </r>
        <r>    4.7937    0.0000 </r>
        <r>    5.0500    0.0000 </r>
        <r>    5.0993    0.0000 </r>
        <r>    5.2877    0.0000 </r>
        <r>    5.5172    0.0000 </r>
        <r>    6.5447    0.0000 </r>
       </set>
      </set>
     </set>
    </array>
   </eigenvalues>
   <array>
    <dimension dim="1">ion</dimension>
    <dimension dim="2">band</dimension>
    <dimension dim="3">kpoint</dimension>
    <dimension dim="4">spin</dimension>
    <field>    s</field>
    <field>   py</field>
    <field>   pz</field>
    <field>   px</field>
    <field>  dxy</field>
    <field>  dyz</field>
    <field>  dz2</field>
    <field>  dxz</field>
    <field>x2-y2</field>
    <set>
     <set comment="spin1">
      <set comment="kpoint 1">
       <set comment="band 1">
        <r>  0.0000  0.0000  0.0000  0.0000  0.0000  0.0000  0.9033  0.0000  0.0284 </r>
       </set>
       <set comment="band 2">
        <r>  0.0000  0.0000  0.0000  0.0000  0.0000  0.0000  0.0284  0.0000  0.9033 </r>
       </set>
       <set comment="band 3">
        <r>  0.0000  0.0000  0.0000  0.0000  0.0602  0.0035  0.0000  0.8680  0.0000 </r>
       </set>
       <set comment="band 4">
        <r>  0.0000  0.0000  0.0000  0.0000  0.7481  0.1212  0.0000  0.0625  0.0000 </r>
       </set>
       <set comment="band 5">
        <r>  0.0000  0.0000  0.0000  0.0000  0.1234  0.8071  0.0000  0.0013  0.0000 </r>
       </set>
       <set comment="band 6">
        <r>  0.3658  0.0000  0.0000  0.0000  0.0000  0.0000  0.0000  0.0000  0.0000 </r>
       </set>
       <set comment="band 7">
        <r>  0.0000  0.0760  0.0200  0.0056  0.0000  0.0000  0.0000  0.0000  0.0000 </r>
       </set>
       <set comment="band 8">
        <r>  0.0000  0.0031  0.0507  0.0461  0.0000  0.0000  0.0000  0.0000  0.0000 </r>
       </set>
       <set comment="band 9">
        <r>  0.0000  0.0197  0.0276  0.0451  0.0000  0.0000  0.0000  0.0000  0.0000 </r>
       </set>
       <set comment="band 10">
        <r>  0.0310  0.0000  0.0000  0.0000  0.0000  0.0000  0.0000  0.0000  0.0000 </r>
       </set>
       <set comment="band 11">
        <r>  0.0000  0.0000  0.0000  0.0000  0.0000  0.0000  0.0038  0.0000  0.0003 </r>
       </set>
       <set comment="band 12">
        <r>  0.0000  0.0000  0.0000  0.0000  0.0000  0.0000  0.0003  0.0000  0.0038 </r>
       </set>
       <set comment="band 13">
        <r>  0.0000  0.0019  0.0186  0.0122  0.0008  0.0007  0.0000  0.0001  0.0000 </r>
       </set>
       <set comment="band 14">
        <r>  0.0000  0.0313  0.0002  0.0009  0.0003  0.0013  0.0000  0.0007  0.0000 </r>
       </set>
       <set comment="band 15">
        <r>  0.0313  0.0001  0.0000  0.0002  0.0000  0.0000  0.0000  0.0000  0.0000 </r>
       </set>
       <set comment="band 16">
        <r>  0.0001  0.0000  0.0069  0.0183  0.0010  0.0013  0.0001  0.0000  0.0000 </r>
       </set>
       <set comment="band 17">
        <r>  0.0001  0.0039  0.0117  0.0006  0.0000  0.0067  0.0000  0.0000  0.0000 </r>
       </set>
       <set comment="band 18">
        <r>  0.0000  0.0042  0.0006  0.0010  0.0032  0.0000  0.0000  0.0064  0.0000 </r>
       </set>
       <set comment="band 19">
        <r>  0.0000  0.0001  0.0049  0.0002  0.0055  0.0005  0.0000  0.0039  0.0000 </r>
       </set>
       <set comment="band 20">
        <r>  0.0000  0.0001  0.0006  0.0031  0.0001  0.0001  0.0000  0.0000  0.0000 </r>
       </set>
       <set comment="band 21">
        <r>  0.0000  0.0001  0.0004  0.0003  0.0000  0.0000  0.0030  0.0000  0.0000 </r>
       </set>
       <set comment="band 22">
        <r>  0.0000  0.0001  0.0000  0.0000  0.0000  0.0000  0.0000  0.0000  0.0031 </r>
       </set>
       <set comment="band 23">
        <r>  0.0024  0.0003  0.0012  0.0069  0.0000  0.0000  0.0000  0.0000  0.0000 </r>
       </set>
       <set comment="band 24">
        <r>  0.0004  0.0003  0.0001  0.0004  0.0001  0.0006  0.0000  0.0005  0.0001 </r>
       </set>
       <set comment="band 25">
        <r>  0.0009  0.0000  0.0001  0.0038  0.0007  0.0026  0.0001  0.0011  0.0000 </r>
       </set>
       <set comment="band 26">
        <r>  0.0009  0.0008  0.0233  0.0054  0.0001  0.0000  0.0023  0.0000  0.0001 </r>
       </set>
       <set comment="band 27">
        <r>  0.0058  0.0045  0.0077  0.0217  0.0001  0.0000  0.0001  0.0001  0.0010 </r>
       </set>
       <set comment="band 28">
        <r>  0.0111  0.0000  0.0002  0.0042  0.0002  0.0027  0.0000  0.0012  0.0001 </r>
       </set>
       <set comment="band 29">
        <r>  0.0053  0.0014  0.0000  0.0008  0.0015  0.0001  0.0000  0.0031  0.0000 </r>
       </set>
       <set comment="band 30">
        <r>  0.0086  0.0002  0.0000  0.0003  0.0037  0.0004  0.0000  0.0000  0.0000 </r>
       </set>
       <set comment="band 31">
        <r>  0.0046  0.0255  0.0000  0.0000  0.0005  0.0000  0.0041  0.0006  0.0034 </r>
       </set>
       <set comment="band 32">
        <r>  0.0180  0.0000  0.0006  0.0020  0.0000  0.0000  0.0026  0.0000  0.0014 </r>
       </set>
       <set comment="band 33">
        <r>  0.0016  0.0003  0.0002  0.0005  0.0001  0.0000  0.0063  0.0002  0.0157 </r>
       </set>
       <set comment="band 34">
        <r>  0.0001  0.0111  0.0000  0.0036  0.0002  0.0051  0.0000  0.0000  0.0008 </r>
       </set>
       <set comment="band 35">
        <r>  0.0123  0.0001  0.0036  0.0009  0.0046  0.0026  0.0018  0.0008  0.0008 </r>
       </set>
       <set comment="band 36">
        <r>  0.0034  0.0005  0.0081  0.0014  0.0000  0.0009  0.0000  0.0016  0.0006 </r>
       </set>
      </set>
     </set>
     <set comment="spin2">
      <set comment="kpoint 1">
       <set comment="band 1">
        <r>  0.0000  0.0000  0.0000  0.0000  0.0000  0.0000  0.2048  0.0000  0.7313 </r>
       </set>
       <set comment="band 2">
        <r>  0.0000  0.0000  0.0000  0.0000  0.0000  0.0000  0.7313  0.0000  0.2047 </r>
       </set>
       <set comment="band 3">
        <r>  0.0000  0.0000  0.0000  0.0000  0.0132  0.2347  0.0000  0.6883  0.0000 </r>
       </set>
       <set comment="band 4">
        <r>  0.0000  0.0000  0.0000  0.0000  0.0151  0.6990  0.0000  0.2220  0.0000 </r>
       </set>
       <set comment="band 5">
        <r>  0.0000  0.0000  0.0000  0.0000  0.9078  0.0025  0.0000  0.0258  0.0000 </r>
       </set>
       <set comment="band 6">
        <r>  0.3631  0.0000  0.0000  0.0000  0.0000  0.0000  0.0000  0.0000  0.0000 </r>
       </set>
       <set comment="band 7">
        <r>  0.0000  0.0060  0.0932  0.0011  0.0000  0.0000  0.0000  0.0000  0.0000 </r>
       </set>
       <set comment="band 8">
        <r>  0.0001  0.0816  0.0064  0.0052  0.0000  0.0000  0.0000  0.0000  0.0000 </r>
       </set>
       <set comment="band 9">
        <r>  0.0110  0.0019  0.0001  0.0538  0.0000  0.0000  0.0000  0.0000  0.0000 </r>
       </set>
       <set comment="band 10">
        <r>  0.0149  0.0044  0.0002  0.0368  0.0000  0.0000  0.0000  0.0000  0.0000 </r>
       </set>
       <set comment="band 11">
        <r>  0.0000  0.0000  0.0000  0.0000  0.0000  0.0000  0.0012  0.0000  0.0020 </r>
       </set>
       <set comment="band 12">
        <r>  0.0000  0.0000  0.0000  0.0000  0.0000  0.0000  0.0020  0.0000  0.0011 </r>
       </set>
       <set comment="band 13">
        <r>  0.0004  0.0007  0.0259  0.0074  0.0000  0.0000  0.0000  0.0000  0.0000 </r>
       </set>
       <set comment="band 14">
        <r>  0.0001  0.0275  0.0005  0.0094  0.0001  0.0002  0.0000  0.0000  0.0000 </r>
       </set>
       <set comment="band 15">
        <r>  0.0316  0.0000  0.0001  0.0003  0.0000  0.0000  0.0000  0.0000  0.0000 </r>
       </set>
       <set comment="band 16">
        <r>  0.0000  0.0088  0.0060  0.0117  0.0009  0.0000  0.0001  0.0015  0.0000 </r>
       </set>
       <set comment="band 17">
        <r>  0.0000  0.0005  0.0006  0.0039  0.0078  0.0001  0.0000  0.0000  0.0000 </r>
       </set>
       <set comment="band 18">
        <r>  0.0000  0.0011  0.0016  0.0021  0.0002  0.0010  0.0001  0.0069  0.0000 </r>
       </set>
       <set comment="band 19">
        <r>  0.0000  0.0009  0.0002  0.0000  0.0001  0.0080  0.0000  0.0008  0.0000 </r>
       </set>
       <set comment="band 20">
        <r>  0.0000  0.0001  0.0001  0.0006  0.0000  0.0000  0.0029  0.0000  0.0000 </r>
       </set>
       <set comment="band 21">
        <r>  0.0000  0.0005  0.0000  0.0001  0.0001  0.0000  0.0000  0.0000  0.0031 </r>
       </set>
       <set comment="band 22">
        <r>  0.0000  0.0000  0.0002  0.0001  0.0001  0.0000  0.0000  0.0001  0.0000 </r>
       </set>
       <set comment="band 23">
        <r>  0.0000  0.0000  0.0000  0.0000  0.0001  0.0000  0.0000  0.0000  0.0000 </r>
       </set>
       <set comment="band 24">
        <r>  0.0007  0.0001  0.0007  0.0000  0.0005  0.0002  0.0000  0.0001  0.0001 </r>
       </set>
       <set comment="band 25">
        <r>  0.0286  0.0004  0.0002  0.0001  0.0001  0.0000  0.0000  0.0002  0.0000 </r>
       </set>
       <set comment="band 26">
        <r>  0.0000  0.0035  0.0080  0.0099  0.0001  0.0000  0.0008  0.0000  0.0007 </r>
       </set>
       <set comment="band 27">
        <r>  0.0007  0.0015  0.0002  0.0003  0.0032  0.0001  0.0001  0.0019  0.0001 </r>
       </set>
       <set comment="band 28">
        <r>  0.0000  0.0018  0.0001  0.0002  0.0001  0.0060  0.0000  0.0000  0.0000 </r>
       </set>
       <set comment="band 29">
        <r>  0.0004  0.0000  0.0002  0.0000  0.0025  0.0000  0.0000  0.0040  0.0000 </r>
       </set>
       <set comment="band 30">
        <r>  0.0089  0.0001  0.0122  0.0096  0.0000  0.0002  0.0008  0.0001  0.0008 </r>
       </set>
       <set comment="band 31">
        <r>  0.0000  0.0030  0.0004  0.0001  0.0001  0.0000  0.0100  0.0000  0.0021 </r>
       </set>
       <set comment="band 32">
        <r>  0.0007  0.0002  0.0001  0.0143  0.0000  0.0000  0.0033  0.0001  0.0087 </r>
       </set>
       <set comment="band 33">
        <r>  0.0067  0.0008  0.0027  0.0003  0.0000  0.0004  0.0010  0.0004  0.0025 </r>
       </set>
       <set comment="band 34">
        <r>  0.0122  0.0010  0.0001  0.0013  0.0000  0.0000  0.0040  0.0000  0.0098 </r>
       </set>
       <set comment="band 35">
        <r>  0.0033  0.0009  0.0058  0.0000  0.0001  0.0005  0.0038  0.0000  0.0001 </r>
       </set>
       <set comment="band 36">
        <r>  0.0011  0.0148  0.0018  0.0014  0.0002  0.0011  0.0001  0.0000  0.0007 </r>
       </set>
      </set>
     </set>
    </set>
   </array>
  </projected>
 </calculation>
 <structure name="finalpos" >
  <crystal>
   <varray name="basis" >
    <v>      10.00000000       0.00000000       0.00000000 </v>
    <v>       0.00000000      10.00000000       0.00000000 </v>
    <v>       0.00000000       0.00000000      10.00000000 </v>
   </varray>
   <i name="volume">   1000.00000000 </i>
   <varray name="rec_basis" >
    <v>       0.10000000       0.00000000       0.00000000 </v>
    <v>       0.00000000       0.10000000       0.00000000 </v>
    <v>       0.00000000       0.00000000       0.10000000 </v>
   </varray>
  </crystal>
  <varray name="positions" >
   <v>       0.50000000       0.50000000       0.50000000 </v>
  </varray>
 </structure>
</modeling>
