       N       E                     dE             d eps       ncg     rms          ort
DAV:   1     0.282402359789E+02    0.28240E+02   -0.15144E+03    36   0.107E+02
DAV:   2     0.161732252936E+02   -0.12067E+02   -0.12062E+02    36   0.156E+01
DAV:   3     0.123201484063E+02   -0.38531E+01   -0.37761E+01    36   0.579E+00
DAV:   4     0.564463336713E+01   -0.66755E+01   -0.57532E+01    36   0.845E+00
DAV:   5     0.212061001201E+01   -0.35240E+01   -0.35240E+01    36   0.664E+00
SDA:   6     0.259641844664E+01    0.47581E+00   -0.34344E+01    36   0.859E+01 0.000E+00
DMP:   7     0.406793957119E+00   -0.21896E+01   -0.80791E+00    36   0.116E+01 0.226E+01
DMP:   8     0.355476996371E-01   -0.37125E+00   -0.17266E+00    36   0.589E+00-0.412E+00
DMP:   9    -0.764446106619E-01   -0.11199E+00   -0.14716E+00    36   0.353E+00 0.394E-01
DMP:  10    -0.165461701921E+00   -0.89017E-01   -0.42451E-01    36   0.787E-01 0.718E-01
DMP:  11    -0.187954140066E+00   -0.22492E-01   -0.18645E-01    36   0.456E-01 0.257E-02
DMP:  12    -0.280418150867E+00   -0.92464E-01   -0.63967E+00    36   0.116E+01 0.116E+01
DMP:  13    -0.161407557780E+01   -0.13337E+01   -0.82842E+00    36   0.167E+01 0.106E+01
DMP:  14    -0.168794402448E+01   -0.73868E-01   -0.90185E-02    36   0.146E-01 0.209E-01
DMP:  15    -0.169458962947E+01   -0.66456E-02   -0.43556E-02    36   0.682E-02 0.107E-01
DMP:  16    -0.169797834117E+01   -0.33887E-02   -0.21803E-02    36   0.315E-02 0.602E-02
DMP:  17    -0.169966492761E+01   -0.16866E-02   -0.93976E-03    36   0.122E-02 0.297E-02
DMP:  18    -0.170038198333E+01   -0.71706E-03   -0.37719E-03    36   0.475E-03 0.123E-02
DMP:  19    -0.170067452150E+01   -0.29254E-03   -0.15728E-03    36   0.198E-03 0.511E-03
DMP:  20    -0.170079734610E+01   -0.12282E-03   -0.64037E-04    36   0.777E-04 0.216E-03
DMP:  21    -0.170084711650E+01   -0.49770E-04   -0.24600E-04    36   0.287E-04 0.860E-04
   1 F= -.17008471E+01 E0= -.17008471E+01  d E =-.170085E+01  mag=     3.0000
