<?xml version="1.0" encoding="ISO-8859-1"?>
<modeling>
 <generator>
  <i name="program" type="string">vasp </i>
  <i name="version" type="string">5.4.4.18Apr17-6-g9f103f2a35  </i>
  <i name="subversion" type="string">(build Nov 08 2019 15:19:53) gamma-only         parallel </i>
  <i name="platform" type="string">LinuxIFC </i>
  <i name="date" type="string">2020 11 30 </i>
  <i name="time" type="string">09:30:47 </i>
 </generator>
 <incar>
  <i type="string" name="PREC">accurate</i>
  <i type="string" name="ALGO"> D</i>
  <i type="int" name="ISPIN">     2</i>
  <i type="int" name="NELM">   300</i>
  <i type="int" name="IBRION">     2</i>
  <i name="EDIFF">      0.00005000</i>
  <i type="int" name="NSW">    99</i>
  <i type="int" name="ISIF">     2</i>
  <i name="ENCUT">    520.00000000</i>
  <v name="MAGMOM">      0.60000000</v>
  <i type="string" name="LREAL"> Auto</i>
  <i type="int" name="ISMEAR">     0</i>
  <i name="SIGMA">      0.05000000</i>
  <i type="logical" name="LWAVE"> F  </i>
  <i type="int" name="LORBIT">    11</i>
  <i type="logical" name="LASPH"> T  </i>
  <v type="int" name="KPOINT_BSE">    -1     0     0     0</v>
  <i type="int" name="NELM">   300</i>
  <i type="logical" name="LASPH"> T  </i>
 </incar>
 <structure name="primitive_cell" >
  <crystal>
   <varray name="basis" >
    <v>      10.00000000       0.00000000       0.00000000 </v>
    <v>       0.00000000      10.00000000       0.00000000 </v>
    <v>       0.00000000       0.00000000      10.00000000 </v>
   </varray>
   <i name="volume">   1000.00000000 </i>
   <varray name="rec_basis" >
    <v>       0.10000000       0.00000000       0.00000000 </v>
    <v>       0.00000000       0.10000000       0.00000000 </v>
    <v>       0.00000000       0.00000000       0.10000000 </v>
   </varray>
  </crystal>
  <varray name="positions" >
   <v>      -0.50000000      -0.50000000      -0.50000000 </v>
  </varray>
 </structure>
 <varray name="primitive_index" >
  <v type="int" >        1 </v>
 </varray>
 <kpoints>
  <generation param="Gamma">
   <v type="int" name="divisions">       1        1        1 </v>
   <v name="usershift">      0.00000000       0.00000000       0.00000000 </v>
   <v name="genvec1">      1.00000000       0.00000000       0.00000000 </v>
   <v name="genvec2">      0.00000000       1.00000000       0.00000000 </v>
   <v name="genvec3">      0.00000000       0.00000000       1.00000000 </v>
   <v name="shift">      0.00000000       0.00000000       0.00000000 </v>
  </generation>
  <varray name="kpointlist" >
   <v>       0.00000000       0.00000000       0.00000000 </v>
  </varray>
  <varray name="weights" >
   <v>       1.00000000 </v>
  </varray>
 </kpoints>
 <parameters>
  <separator name="general" >
   <i type="string" name="SYSTEM">unknown system</i>
   <i type="logical" name="LCOMPAT"> F  </i>
  </separator>
  <separator name="electronic" >
   <i type="string" name="PREC">accura</i>
   <i name="ENMAX">    520.00000000</i>
   <i name="ENAUG">    462.75800000</i>
   <i name="EDIFF">      0.00005000</i>
   <i type="int" name="IALGO">    53</i>
   <i type="int" name="IWAVPR">    11</i>
   <i type="int" name="NBANDS">    36</i>
   <i name="NELECT">      5.00000000</i>
   <i type="int" name="TURBO">     0</i>
   <i type="int" name="IRESTART">     0</i>
   <i type="int" name="NREBOOT">     0</i>
   <i type="int" name="NMIN">     0</i>
   <i name="EREF">      0.00000000</i>
   <separator name="electronic smearing" >
    <i type="int" name="ISMEAR">     0</i>
    <i name="SIGMA">      0.05000000</i>
    <i name="KSPACING">      0.50000000</i>
    <i type="logical" name="KGAMMA"> T  </i>
   </separator>
   <separator name="electronic projectors" >
    <i type="logical" name="LREAL"> T  </i>
    <v name="ROPT">     -0.00025000</v>
    <i type="int" name="LMAXPAW">  -100</i>
    <i type="int" name="LMAXMIX">     2</i>
    <i type="logical" name="NLSPLINE"> F  </i>
   </separator>
   <separator name="electronic startup" >
    <i type="int" name="ISTART">     0</i>
    <i type="int" name="ICHARG">     2</i>
    <i type="int" name="INIWAV">     1</i>
   </separator>
   <separator name="electronic spin" >
    <i type="int" name="ISPIN">     2</i>
    <i type="logical" name="LNONCOLLINEAR"> F  </i>
    <v name="MAGMOM">      0.60000000</v>
    <i name="NUPDOWN">     -1.00000000</i>
    <i type="logical" name="LSORBIT"> F  </i>
    <v name="SAXIS">      0.00000000      0.00000000      1.00000000</v>
    <i type="logical" name="LSPIRAL"> F  </i>
    <v name="QSPIRAL">      0.00000000      0.00000000      0.00000000</v>
    <i type="logical" name="LZEROZ"> F  </i>
   </separator>
   <separator name="electronic exchange-correlation" >
    <i type="logical" name="LASPH"> T  </i>
    <i type="logical" name="LMETAGGA"> F  </i>
   </separator>
   <separator name="electronic convergence" >
    <i type="int" name="NELM">   300</i>
    <i type="int" name="NELMDL">    -5</i>
    <i type="int" name="NELMIN">     2</i>
    <i name="ENINI">    520.00000000</i>
    <separator name="electronic convergence detail" >
     <i type="logical" name="LDIAG"> T  </i>
     <i type="logical" name="LSUBROT"> F  </i>
     <i name="WEIMIN">      0.00100000</i>
     <i name="EBREAK">      0.00000035</i>
     <i name="DEPER">      0.30000000</i>
     <i type="int" name="NRMM">     4</i>
     <i name="TIME">      0.40000000</i>
    </separator>
   </separator>
   <separator name="electronic mixer" >
    <i name="AMIX">      0.40000000</i>
    <i name="BMIX">      1.00000000</i>
    <i name="AMIN">      0.10000000</i>
    <i name="AMIX_MAG">      1.60000000</i>
    <i name="BMIX_MAG">      1.00000000</i>
    <separator name="electronic mixer details" >
     <i type="int" name="IMIX">     4</i>
     <i type="logical" name="MIXFIRST"> F  </i>
     <i type="int" name="MAXMIX">   -45</i>
     <i name="WC">    100.00000000</i>
     <i type="int" name="INIMIX">     1</i>
     <i type="int" name="MIXPRE">     1</i>
     <i type="int" name="MREMOVE">     5</i>
    </separator>
   </separator>
   <separator name="electronic dipolcorrection" >
    <i type="logical" name="LDIPOL"> F  </i>
    <i type="logical" name="LMONO"> F  </i>
    <i type="int" name="IDIPOL">     0</i>
    <i name="EPSILON">      1.00000000</i>
    <v name="DIPOL">   -100.00000000   -100.00000000   -100.00000000</v>
    <i name="EFIELD">      0.00000000</i>
   </separator>
  </separator>
  <separator name="grids" >
   <i type="int" name="NGX">    80</i>
   <i type="int" name="NGY">    80</i>
   <i type="int" name="NGZ">    80</i>
   <i type="int" name="NGXF">   160</i>
   <i type="int" name="NGYF">   160</i>
   <i type="int" name="NGZF">   160</i>
   <i type="logical" name="ADDGRID"> F  </i>
  </separator>
  <separator name="ionic" >
   <i type="int" name="NSW">    99</i>
   <i type="int" name="IBRION">     2</i>
   <i type="int" name="MDALGO">     0</i>
   <i type="int" name="ISIF">     2</i>
   <i name="PSTRESS">      0.00000000</i>
   <i name="EDIFFG">      0.00050000</i>
   <i type="int" name="NFREE">     1</i>
   <i name="POTIM">      0.50000000</i>
   <i name="SMASS">     -3.00000000</i>
   <i name="SCALEE">      1.00000000</i>
  </separator>
  <separator name="ionic md" >
   <i name="TEBEG">      0.00010000</i>
   <i name="TEEND">      0.00010000</i>
   <i type="int" name="NBLOCK">     1</i>
   <i type="int" name="KBLOCK">    99</i>
   <i type="int" name="NPACO">   256</i>
   <i name="APACO">     16.00000000</i>
  </separator>
  <separator name="symmetry" >
   <i type="int" name="ISYM">     2</i>
   <i name="SYMPREC">      0.00001000</i>
  </separator>
  <separator name="dos" >
   <i type="int" name="LORBIT">    11</i>
   <v name="RWIGS">     -1.00000000</v>
   <i type="int" name="NEDOS">   301</i>
   <i name="EMIN">     10.00000000</i>
   <i name="EMAX">    -10.00000000</i>
   <i name="EFERMI">      0.00000000</i>
  </separator>
  <separator name="writing" >
   <i type="int" name="NWRITE">     2</i>
   <i type="logical" name="LWAVE"> F  </i>
   <i type="logical" name="LDOWNSAMPLE"> F  </i>
   <i type="logical" name="LCHARG"> T  </i>
   <i type="logical" name="LPARD"> F  </i>
   <i type="logical" name="LVTOT"> F  </i>
   <i type="logical" name="LVHAR"> F  </i>
   <i type="logical" name="LELF"> F  </i>
   <i type="logical" name="LOPTICS"> F  </i>
   <v name="STM">      0.00000000      0.00000000      0.00000000      0.00000000      0.00000000      0.00000000      0.00000000</v>
  </separator>
  <separator name="performance" >
   <i type="int" name="NPAR">    36</i>
   <i type="int" name="NSIM">     4</i>
   <i type="int" name="NBLK">    -1</i>
   <i type="logical" name="LPLANE"> T  </i>
   <i type="logical" name="LSCALAPACK"> T  </i>
   <i type="logical" name="LSCAAWARE"> F  </i>
   <i type="logical" name="LSCALU"> F  </i>
   <i type="logical" name="LASYNC"> F  </i>
   <i type="logical" name="LORBITALREAL"> F  </i>
  </separator>
  <separator name="miscellaneous" >
   <i type="int" name="IDIOT">     3</i>
   <i type="int" name="ISPECIAL">     0</i>
   <i type="logical" name="LMUSIC"> F  </i>
   <v name="POMASS">     74.92200000</v>
   <v name="DARWINR">      0.00000000</v>
   <v name="DARWINV">      1.00000000</v>
   <i type="logical" name="LCORR"> T  </i>
  </separator>
  <i type="logical" name="GGA_COMPAT"> T  </i>
  <i type="logical" name="LBERRY"> F  </i>
  <i type="int" name="ICORELEVEL">     0</i>
  <i type="logical" name="LDAU"> F  </i>
  <i type="int" name="I_CONSTRAINED_M">     0</i>
  <separator name="electronic exchange-correlation" >
   <i type="string" name="GGA">--</i>
   <i type="int" name="VOSKOWN">     0</i>
   <i type="logical" name="LHFCALC"> F  </i>
   <i type="string" name="PRECFOCK"></i>
   <i type="logical" name="LSYMGRAD"> F  </i>
   <i type="logical" name="LHFONE"> F  </i>
   <i type="logical" name="LRHFCALC"> F  </i>
   <i type="logical" name="LTHOMAS"> F  </i>
   <i type="logical" name="LMODELHF"> F  </i>
   <i name="ENCUT4O">     -1.00000000</i>
   <i type="int" name="EXXOEP">     0</i>
   <i type="int" name="FOURORBIT">     0</i>
   <i name="AEXX">      0.00000000</i>
   <i name="HFALPHA">      0.00000000</i>
   <i name="MCALPHA">      0.00000000</i>
   <i name="ALDAX">      1.00000000</i>
   <i name="AGGAX">      1.00000000</i>
   <i name="ALDAC">      1.00000000</i>
   <i name="AGGAC">      1.00000000</i>
   <i type="int" name="NKREDX">     1</i>
   <i type="int" name="NKREDY">     1</i>
   <i type="int" name="NKREDZ">     1</i>
   <i type="logical" name="SHIFTRED"> F  </i>
   <i type="logical" name="ODDONLY"> F  </i>
   <i type="logical" name="EVENONLY"> F  </i>
   <i type="int" name="LMAXFOCK">     0</i>
   <i type="int" name="NMAXFOCKAE">     0</i>
   <i type="logical" name="LFOCKAEDFT"> F  </i>
   <i name="HFSCREEN">      0.00000000</i>
   <i name="HFSCREENC">      0.00000000</i>
   <i type="int" name="NBANDSGWLOW">     0</i>
  </separator>
  <separator name="vdW DFT" >
   <i type="logical" name="LUSE_VDW"> F  </i>
   <i name="Zab_VDW">     -0.84910000</i>
   <i name="PARAM1">      0.12340000</i>
   <i name="PARAM2">      1.00000000</i>
   <i name="PARAM3">      0.00000000</i>
  </separator>
  <separator name="model GW" >
   <i type="int" name="MODEL_GW">     0</i>
   <i name="MODEL_EPS0">    600.00000000</i>
   <i name="MODEL_ALPHA">      1.00000000</i>
  </separator>
  <separator name="linear response parameters" >
   <i type="logical" name="LEPSILON"> F  </i>
   <i type="logical" name="LRPA"> F  </i>
   <i type="logical" name="LNABLA"> F  </i>
   <i type="logical" name="LVEL"> F  </i>
   <i type="int" name="KINTER">     0</i>
   <i name="CSHIFT">      0.10000000</i>
   <i name="OMEGAMAX">     -1.00000000</i>
   <i name="DEG_THRESHOLD">      0.00200000</i>
   <i name="RTIME">     -0.10000000</i>
   <i name="WPLASMAI">      0.00000000</i>
   <v name="DFIELD">      0.00000000      0.00000000      0.00000000</v>
   <v name="WPLASMA">      0.00000000      0.00000000      0.00000000      0.00000000      0.00000000      0.00000000      0.00000000      0.00000000      0.00000000</v>
  </separator>
  <separator name="orbital magnetization" >
   <i type="logical" name="NUCIND"> F  </i>
   <v name="MAGPOS">      0.00000000      0.00000000      0.00000000</v>
   <i type="logical" name="LNICSALL"> T  </i>
   <i type="logical" name="ORBITALMAG"> F  </i>
   <i type="logical" name="LMAGBLOCH"> F  </i>
   <i type="logical" name="LCHIMAG"> F  </i>
   <i type="logical" name="LGAUGE"> T  </i>
   <i type="int" name="MAGATOM">     0</i>
   <v name="MAGDIPOL">      0.00000000      0.00000000      0.00000000</v>
   <v name="AVECCONST">      0.00000000      0.00000000      0.00000000</v>
  </separator>
  <separator name="response functions" >
   <i type="logical" name="LADDER"> F  </i>
   <i type="logical" name="LRPAFORCE"> F  </i>
   <i type="logical" name="LFXC"> F  </i>
   <i type="logical" name="LHARTREE"> T  </i>
   <i type="int" name="IBSE">     0</i>
   <v type="int" name="KPOINT">    -1     0     0     0</v>
   <i type="logical" name="LTCTE"> F  </i>
   <i type="logical" name="LTETE"> F  </i>
   <i type="logical" name="LTRIPLET"> F  </i>
   <i type="logical" name="LFXCEPS"> F  </i>
   <i type="logical" name="LFXHEG"> F  </i>
   <i type="int" name="NATURALO">     2</i>
   <i type="logical" name="L2ORDER"> F  </i>
   <i type="logical" name="LMP2LT"> F  </i>
   <i type="logical" name="LUSEW"> F  </i>
   <i name="ENCUTGW">     -2.00000000</i>
   <i name="ENCUTGWSOFT">     -2.00000000</i>
   <i name="ENCUTLF">     -1.00000000</i>
   <i type="int" name="LMAXMP2">    -1</i>
   <i name="SCISSOR">      0.00000000</i>
   <i type="int" name="NOMEGA">     0</i>
   <i type="int" name="NOMEGAR">     0</i>
   <i type="int" name="NBANDSGW">    -1</i>
   <i type="int" name="NBANDSO">    -1</i>
   <i type="int" name="NBANDSV">    -1</i>
   <i type="int" name="NELM">   300</i>
   <i type="int" name="NELMHF">     1</i>
   <i type="int" name="DIM">     3</i>
   <i type="int" name="ANTIRES">     0</i>
   <i name="OMEGAMAX">    -30.00000000</i>
   <i name="OMEGAMIN">    -30.00000000</i>
   <i name="OMEGATL">   -200.00000000</i>
   <i type="int" name="OMEGAGRID">   140</i>
   <i name="CSHIFT">     -0.10000000</i>
   <i type="logical" name="SELFENERGY"> F  </i>
   <i type="logical" name="LSPECTRAL"> F  </i>
   <i type="logical" name="LSPECTRALGW"> F  </i>
   <i type="logical" name="LSINGLES"> F  </i>
   <i type="logical" name="LFERMIGW"> F  </i>
   <i type="logical" name="ODDONLYGW"> F  </i>
   <i type="logical" name="EVENONLYGW"> F  </i>
   <i type="int" name="NKREDLFX">     1</i>
   <i type="int" name="NKREDLFY">     1</i>
   <i type="int" name="NKREDLFZ">     1</i>
   <i type="int" name="MAXMEM">  2800</i>
   <i type="int" name="TELESCOPE">     0</i>
   <i type="int" name="TAUPAR">     1</i>
   <i type="int" name="OMEGAPAR">    -1</i>
   <i name="LAMBDA">      1.00000000</i>
  </separator>
  <separator name="External order field" >
   <i name="OFIELD_KAPPA">      0.00000000</i>
   <v name="OFIELD_K">      0.00000000      0.00000000      0.00000000</v>
   <i name="OFIELD_Q6_NEAR">      0.00000000</i>
   <i name="OFIELD_Q6_FAR">      0.00000000</i>
   <i name="OFIELD_A">      0.00000000</i>
  </separator>
 </parameters>
 <atominfo>
  <atoms>       1 </atoms>
  <types>       1 </types>
  <array name="atoms" >
   <dimension dim="1">ion</dimension>
   <field type="string">element</field>
   <field type="int">atomtype</field>
   <set>
    <rc><c>As</c><c>   1</c></rc>
   </set>
  </array>
  <array name="atomtypes" >
   <dimension dim="1">type</dimension>
   <field type="int">atomspertype</field>
   <field type="string">element</field>
   <field>mass</field>
   <field>valence</field>
   <field type="string">pseudopotential</field>
   <set>
    <rc><c>   1</c><c>As</c><c>     74.92200000</c><c>      5.00000000</c><c>  PAW_PBE As 22Sep2009                  </c></rc>
   </set>
  </array>
 </atominfo>
 <structure name="initialpos" >
  <crystal>
   <varray name="basis" >
    <v>      10.00000000       0.00000000       0.00000000 </v>
    <v>       0.00000000      10.00000000       0.00000000 </v>
    <v>       0.00000000       0.00000000      10.00000000 </v>
   </varray>
   <i name="volume">   1000.00000000 </i>
   <varray name="rec_basis" >
    <v>       0.10000000       0.00000000       0.00000000 </v>
    <v>       0.00000000       0.10000000       0.00000000 </v>
    <v>       0.00000000       0.00000000       0.10000000 </v>
   </varray>
  </crystal>
  <varray name="positions" >
   <v>       0.50000000       0.50000000       0.50000000 </v>
  </varray>
 </structure>
 <calculation>
  <scstep>
   <time name="total">    0.82    0.83</time>
   <energy>
    <i name="alphaZ">      0.23722462 </i>
    <i name="ewald">    -51.07060001 </i>
    <i name="hartreedc">    -84.14312371 </i>
    <i name="XCdc">    -13.17387453 </i>
    <i name="pawpsdc">    147.03645526 </i>
    <i name="pawaedc">   -125.59476346 </i>
    <i name="eentropy">     -0.01107203 </i>
    <i name="bandstr">    -15.22619956 </i>
    <i name="atom">    170.18618940 </i>
    <i name="e_fr_energy">     28.24023598 </i>
    <i name="e_wo_entrp">     28.25130801 </i>
    <i name="e_0_energy">     28.24577199 </i>
   </energy>
  </scstep>
  <scstep>
   <time name="total">    0.32    0.32</time>
   <energy>
    <i name="e_fr_energy">     16.17322529 </i>
    <i name="e_wo_entrp">     16.20117041 </i>
    <i name="e_0_energy">     16.18719785 </i>
   </energy>
  </scstep>
  <scstep>
   <time name="total">    0.32    0.32</time>
   <energy>
    <i name="e_fr_energy">     12.32014841 </i>
    <i name="e_wo_entrp">     12.34400426 </i>
    <i name="e_0_energy">     12.33207633 </i>
   </energy>
  </scstep>
  <scstep>
   <time name="total">    0.32    0.32</time>
   <energy>
    <i name="e_fr_energy">      5.64463337 </i>
    <i name="e_wo_entrp">      5.64464545 </i>
    <i name="e_0_energy">      5.64463941 </i>
   </energy>
  </scstep>
  <scstep>
   <time name="total">    0.54    0.54</time>
   <energy>
    <i name="e_fr_energy">      2.12061001 </i>
    <i name="e_wo_entrp">      2.12108816 </i>
    <i name="e_0_energy">      2.12084908 </i>
   </energy>
  </scstep>
  <scstep>
   <time name="total">    0.94    0.95</time>
   <energy>
    <i name="e_fr_energy">      2.59641845 </i>
    <i name="e_wo_entrp">      2.59664777 </i>
    <i name="e_0_energy">      2.59653311 </i>
   </energy>
  </scstep>
  <scstep>
   <time name="total">    0.89    0.89</time>
   <energy>
    <i name="e_fr_energy">      0.40679396 </i>
    <i name="e_wo_entrp">      0.40713069 </i>
    <i name="e_0_energy">      0.40696232 </i>
   </energy>
  </scstep>
  <scstep>
   <time name="total">    0.88    0.88</time>
   <energy>
    <i name="e_fr_energy">      0.03554770 </i>
    <i name="e_wo_entrp">      0.03674687 </i>
    <i name="e_0_energy">      0.03614729 </i>
   </energy>
  </scstep>
  <scstep>
   <time name="total">    0.88    0.88</time>
   <energy>
    <i name="e_fr_energy">     -0.07644461 </i>
    <i name="e_wo_entrp">     -0.07229519 </i>
    <i name="e_0_energy">     -0.07436990 </i>
   </energy>
  </scstep>
  <scstep>
   <time name="total">    0.87    0.87</time>
   <energy>
    <i name="e_fr_energy">     -0.16546170 </i>
    <i name="e_wo_entrp">     -0.15549576 </i>
    <i name="e_0_energy">     -0.16047873 </i>
   </energy>
  </scstep>
  <scstep>
   <time name="total">    0.88    0.88</time>
   <energy>
    <i name="e_fr_energy">     -0.18795414 </i>
    <i name="e_wo_entrp">     -0.16536546 </i>
    <i name="e_0_energy">     -0.17665980 </i>
   </energy>
  </scstep>
  <scstep>
   <time name="total">    0.87    0.87</time>
   <energy>
    <i name="e_fr_energy">     -0.28041815 </i>
    <i name="e_wo_entrp">     -0.27567899 </i>
    <i name="e_0_energy">     -0.27804857 </i>
   </energy>
  </scstep>
  <scstep>
   <time name="total">    0.88    0.88</time>
   <energy>
    <i name="e_fr_energy">     -1.61407558 </i>
    <i name="e_wo_entrp">     -1.61407558 </i>
    <i name="e_0_energy">     -1.61407558 </i>
   </energy>
  </scstep>
  <scstep>
   <time name="total">    0.87    0.87</time>
   <energy>
    <i name="e_fr_energy">     -1.68794402 </i>
    <i name="e_wo_entrp">     -1.68794402 </i>
    <i name="e_0_energy">     -1.68794402 </i>
   </energy>
  </scstep>
  <scstep>
   <time name="total">    0.87    0.87</time>
   <energy>
    <i name="e_fr_energy">     -1.69458963 </i>
    <i name="e_wo_entrp">     -1.69458963 </i>
    <i name="e_0_energy">     -1.69458963 </i>
   </energy>
  </scstep>
  <scstep>
   <time name="total">    0.88    0.88</time>
   <energy>
    <i name="e_fr_energy">     -1.69797834 </i>
    <i name="e_wo_entrp">     -1.69797834 </i>
    <i name="e_0_energy">     -1.69797834 </i>
   </energy>
  </scstep>
  <scstep>
   <time name="total">    0.87    0.87</time>
   <energy>
    <i name="e_fr_energy">     -1.69966493 </i>
    <i name="e_wo_entrp">     -1.69966493 </i>
    <i name="e_0_energy">     -1.69966493 </i>
   </energy>
  </scstep>
  <scstep>
   <time name="total">    0.87    0.87</time>
   <energy>
    <i name="e_fr_energy">     -1.70038198 </i>
    <i name="e_wo_entrp">     -1.70038198 </i>
    <i name="e_0_energy">     -1.70038198 </i>
   </energy>
  </scstep>
  <scstep>
   <time name="total">    0.87    0.87</time>
   <energy>
    <i name="e_fr_energy">     -1.70067452 </i>
    <i name="e_wo_entrp">     -1.70067452 </i>
    <i name="e_0_energy">     -1.70067452 </i>
   </energy>
  </scstep>
  <scstep>
   <time name="total">    0.87    0.87</time>
   <energy>
    <i name="e_fr_energy">     -1.70079735 </i>
    <i name="e_wo_entrp">     -1.70079735 </i>
    <i name="e_0_energy">     -1.70079735 </i>
   </energy>
  </scstep>
  <scstep>
   <time name="total">    0.91    0.92</time>
   <energy>
    <i name="alphaZ">      0.23722462 </i>
    <i name="ewald">    -51.07060001 </i>
    <i name="hartreedc">    -85.37700646 </i>
    <i name="XCdc">    -12.35575898 </i>
    <i name="pawpsdc">    156.02181523 </i>
    <i name="pawaedc">   -134.53490144 </i>
    <i name="eentropy">     -0.00000000 </i>
    <i name="bandstr">    -44.80780947 </i>
    <i name="atom">    170.18618940 </i>
    <i name="e_fr_energy">     -1.70084712 </i>
    <i name="e_wo_entrp">     -1.70084712 </i>
    <i name="e_0_energy">     -1.70084712 </i>
   </energy>
  </scstep>
  <structure>
   <crystal>
    <varray name="basis" >
     <v>      10.00000000       0.00000000       0.00000000 </v>
     <v>       0.00000000      10.00000000       0.00000000 </v>
     <v>       0.00000000       0.00000000      10.00000000 </v>
    </varray>
    <i name="volume">   1000.00000000 </i>
    <varray name="rec_basis" >
     <v>       0.10000000       0.00000000       0.00000000 </v>
     <v>       0.00000000       0.10000000       0.00000000 </v>
     <v>       0.00000000       0.00000000       0.10000000 </v>
    </varray>
   </crystal>
   <varray name="positions" >
    <v>       0.50000000       0.50000000       0.50000000 </v>
   </varray>
  </structure>
  <varray name="forces" >
   <v>       0.00000000       0.00000000       0.00000000 </v>
  </varray>
  <varray name="stress" >
   <v>       0.03828576      -0.00000000       0.00000000 </v>
   <v>      -0.00000000       0.03828576       0.00000000 </v>
   <v>       0.00000000      -0.00000000       0.03828576 </v>
  </varray>
  <energy>
   <i name="e_fr_energy">     -1.70084712 </i>
   <i name="e_wo_entrp">     -1.70084712 </i>
   <i name="e_0_energy">     -0.00000000 </i>
  </energy>
  <time name="totalsc">   23.00   23.22</time>
  <eigenvalues>
   <array>
    <dimension dim="1">band</dimension>
    <dimension dim="2">kpoint</dimension>
    <dimension dim="3">spin</dimension>
    <field>eigene</field>
    <field>occ</field>
    <set>
     <set comment="spin 1">
      <set comment="kpoint 1">
       <r>  -14.9888    1.0000 </r>
       <r>   -5.7019    1.0000 </r>
       <r>   -5.7019    1.0000 </r>
       <r>   -5.7019    1.0000 </r>
       <r>   -0.6752    0.0000 </r>
       <r>    0.8738    0.0000 </r>
       <r>    0.8742    0.0000 </r>
       <r>    1.0219    0.0000 </r>
       <r>    1.0625    0.0000 </r>
       <r>    1.0655    0.0000 </r>
       <r>    1.0683    0.0000 </r>
       <r>    1.6872    0.0000 </r>
       <r>    1.6874    0.0000 </r>
       <r>    1.6879    0.0000 </r>
       <r>    2.4947    0.0000 </r>
       <r>    2.4963    0.0000 </r>
       <r>    2.5981    0.0000 </r>
       <r>    2.6035    0.0000 </r>
       <r>    2.6202    0.0000 </r>
       <r>    2.6821    0.0000 </r>
       <r>    2.6856    0.0000 </r>
       <r>    2.8073    0.0000 </r>
       <r>    2.8377    0.0000 </r>
       <r>    3.6736    0.0000 </r>
       <r>    3.6757    0.0000 </r>
       <r>    3.6779    0.0000 </r>
       <r>    3.8578    0.0000 </r>
       <r>    3.9320    0.0000 </r>
       <r>    3.9323    0.0000 </r>
       <r>    4.2054    0.0000 </r>
       <r>    4.2396    0.0000 </r>
       <r>    4.3420    0.0000 </r>
       <r>    4.3793    0.0000 </r>
       <r>    5.3774    0.0000 </r>
       <r>    5.4333    0.0000 </r>
       <r>    6.2880    0.0000 </r>
      </set>
     </set>
     <set comment="spin 2">
      <set comment="kpoint 1">
       <r>  -12.7134    1.0000 </r>
       <r>   -3.4047    0.0000 </r>
       <r>   -3.4047    0.0000 </r>
       <r>   -3.4047    0.0000 </r>
       <r>    0.0481    0.0000 </r>
       <r>    1.5140    0.0000 </r>
       <r>    1.5140    0.0000 </r>
       <r>    1.6440    0.0000 </r>
       <r>    1.6954    0.0000 </r>
       <r>    1.6962    0.0000 </r>
       <r>    1.6965    0.0000 </r>
       <r>    2.7002    0.0000 </r>
       <r>    2.7009    0.0000 </r>
       <r>    2.7022    0.0000 </r>
       <r>    2.9771    0.0000 </r>
       <r>    2.9778    0.0000 </r>
       <r>    3.0966    0.0000 </r>
       <r>    3.0978    0.0000 </r>
       <r>    3.1056    0.0000 </r>
       <r>    3.3104    0.0000 </r>
       <r>    3.3142    0.0000 </r>
       <r>    3.3277    0.0000 </r>
       <r>    3.4532    0.0000 </r>
       <r>    4.2227    0.0000 </r>
       <r>    4.2235    0.0000 </r>
       <r>    4.2284    0.0000 </r>
       <r>    4.4842    0.0000 </r>
       <r>    4.7640    0.0000 </r>
       <r>    4.7675    0.0000 </r>
       <r>    4.8810    0.0000 </r>
       <r>    4.9096    0.0000 </r>
       <r>    4.9577    0.0000 </r>
       <r>    4.9950    0.0000 </r>
       <r>    6.3683    0.0000 </r>
       <r>    6.3982    0.0000 </r>
       <r>    6.7043    0.0000 </r>
      </set>
     </set>
    </set>
   </array>
  </eigenvalues>
  <separator name="orbital magnetization" >
   <v name="MAGDIPOLOUT">      0.00000000      0.00000000      0.00000000</v>
  </separator>
  <dos>
   <i name="efermi">     -5.40994611 </i>
   <total>
    <array>
     <dimension dim="1">gridpoints</dimension>
     <dimension dim="2">spin</dimension>
     <field>energy</field>
     <field>total</field>
     <field>integrated</field>
     <set>
      <set comment="spin 1">
       <r>   -16.0734     0.0000     0.0000 </r>
       <r>   -15.9939     0.0000     0.0000 </r>
       <r>   -15.9144     0.0000     0.0000 </r>
       <r>   -15.8348     0.0000     0.0000 </r>
       <r>   -15.7553     0.0000     0.0000 </r>
       <r>   -15.6757     0.0000     0.0000 </r>
       <r>   -15.5962     0.0000     0.0000 </r>
       <r>   -15.5166     0.0000     0.0000 </r>
       <r>   -15.4371     0.0000     0.0000 </r>
       <r>   -15.3576     0.0000     0.0000 </r>
       <r>   -15.2780     0.0000     0.0000 </r>
       <r>   -15.1985     0.0000     0.0000 </r>
       <r>   -15.1189     0.0015     0.0001 </r>
       <r>   -15.0394     0.9555     0.0761 </r>
       <r>   -14.9599     9.0171     0.7933 </r>
       <r>   -14.8803     2.5845     0.9989 </r>
       <r>   -14.8008     0.0136     1.0000 </r>
       <r>   -14.7212     0.0000     1.0000 </r>
       <r>   -14.6417     0.0000     1.0000 </r>
       <r>   -14.5622     0.0000     1.0000 </r>
       <r>   -14.4826     0.0000     1.0000 </r>
       <r>   -14.4031     0.0000     1.0000 </r>
       <r>   -14.3235     0.0000     1.0000 </r>
       <r>   -14.2440     0.0000     1.0000 </r>
       <r>   -14.1644     0.0000     1.0000 </r>
       <r>   -14.0849     0.0000     1.0000 </r>
       <r>   -14.0054     0.0000     1.0000 </r>
       <r>   -13.9258     0.0000     1.0000 </r>
       <r>   -13.8463     0.0000     1.0000 </r>
       <r>   -13.7667     0.0000     1.0000 </r>
       <r>   -13.6872     0.0000     1.0000 </r>
       <r>   -13.6077     0.0000     1.0000 </r>
       <r>   -13.5281     0.0000     1.0000 </r>
       <r>   -13.4486     0.0000     1.0000 </r>
       <r>   -13.3690     0.0000     1.0000 </r>
       <r>   -13.2895     0.0000     1.0000 </r>
       <r>   -13.2100     0.0000     1.0000 </r>
       <r>   -13.1304     0.0000     1.0000 </r>
       <r>   -13.0509     0.0000     1.0000 </r>
       <r>   -12.9713     0.0000     1.0000 </r>
       <r>   -12.8918     0.0000     1.0000 </r>
       <r>   -12.8122     0.0000     1.0000 </r>
       <r>   -12.7327     0.0000     1.0000 </r>
       <r>   -12.6532     0.0000     1.0000 </r>
       <r>   -12.5736     0.0000     1.0000 </r>
       <r>   -12.4941     0.0000     1.0000 </r>
       <r>   -12.4145     0.0000     1.0000 </r>
       <r>   -12.3350     0.0000     1.0000 </r>
       <r>   -12.2555     0.0000     1.0000 </r>
       <r>   -12.1759     0.0000     1.0000 </r>
       <r>   -12.0964     0.0000     1.0000 </r>
       <r>   -12.0168     0.0000     1.0000 </r>
       <r>   -11.9373     0.0000     1.0000 </r>
       <r>   -11.8578     0.0000     1.0000 </r>
       <r>   -11.7782     0.0000     1.0000 </r>
       <r>   -11.6987     0.0000     1.0000 </r>
       <r>   -11.6191     0.0000     1.0000 </r>
       <r>   -11.5396     0.0000     1.0000 </r>
       <r>   -11.4600     0.0000     1.0000 </r>
       <r>   -11.3805     0.0000     1.0000 </r>
       <r>   -11.3010     0.0000     1.0000 </r>
       <r>   -11.2214     0.0000     1.0000 </r>
       <r>   -11.1419     0.0000     1.0000 </r>
       <r>   -11.0623     0.0000     1.0000 </r>
       <r>   -10.9828     0.0000     1.0000 </r>
       <r>   -10.9033     0.0000     1.0000 </r>
       <r>   -10.8237     0.0000     1.0000 </r>
       <r>   -10.7442     0.0000     1.0000 </r>
       <r>   -10.6646     0.0000     1.0000 </r>
       <r>   -10.5851     0.0000     1.0000 </r>
       <r>   -10.5056     0.0000     1.0000 </r>
       <r>   -10.4260     0.0000     1.0000 </r>
       <r>   -10.3465     0.0000     1.0000 </r>
       <r>   -10.2669     0.0000     1.0000 </r>
       <r>   -10.1874     0.0000     1.0000 </r>
       <r>   -10.1078     0.0000     1.0000 </r>
       <r>   -10.0283     0.0000     1.0000 </r>
       <r>    -9.9488     0.0000     1.0000 </r>
       <r>    -9.8692     0.0000     1.0000 </r>
       <r>    -9.7897     0.0000     1.0000 </r>
       <r>    -9.7101     0.0000     1.0000 </r>
       <r>    -9.6306     0.0000     1.0000 </r>
       <r>    -9.5511     0.0000     1.0000 </r>
       <r>    -9.4715     0.0000     1.0000 </r>
       <r>    -9.3920     0.0000     1.0000 </r>
       <r>    -9.3124     0.0000     1.0000 </r>
       <r>    -9.2329     0.0000     1.0000 </r>
       <r>    -9.1534     0.0000     1.0000 </r>
       <r>    -9.0738     0.0000     1.0000 </r>
       <r>    -8.9943     0.0000     1.0000 </r>
       <r>    -8.9147     0.0000     1.0000 </r>
       <r>    -8.8352     0.0000     1.0000 </r>
       <r>    -8.7556     0.0000     1.0000 </r>
       <r>    -8.6761     0.0000     1.0000 </r>
       <r>    -8.5966     0.0000     1.0000 </r>
       <r>    -8.5170     0.0000     1.0000 </r>
       <r>    -8.4375     0.0000     1.0000 </r>
       <r>    -8.3579     0.0000     1.0000 </r>
       <r>    -8.2784     0.0000     1.0000 </r>
       <r>    -8.1989     0.0000     1.0000 </r>
       <r>    -8.1193     0.0000     1.0000 </r>
       <r>    -8.0398     0.0000     1.0000 </r>
       <r>    -7.9602     0.0000     1.0000 </r>
       <r>    -7.8807     0.0000     1.0000 </r>
       <r>    -7.8012     0.0000     1.0000 </r>
       <r>    -7.7216     0.0000     1.0000 </r>
       <r>    -7.6421     0.0000     1.0000 </r>
       <r>    -7.5625     0.0000     1.0000 </r>
       <r>    -7.4830     0.0000     1.0000 </r>
       <r>    -7.4034     0.0000     1.0000 </r>
       <r>    -7.3239     0.0000     1.0000 </r>
       <r>    -7.2444     0.0000     1.0000 </r>
       <r>    -7.1648     0.0000     1.0000 </r>
       <r>    -7.0853     0.0000     1.0000 </r>
       <r>    -7.0057     0.0000     1.0000 </r>
       <r>    -6.9262     0.0000     1.0000 </r>
       <r>    -6.8467     0.0000     1.0000 </r>
       <r>    -6.7671     0.0000     1.0000 </r>
       <r>    -6.6876     0.0000     1.0000 </r>
       <r>    -6.6080     0.0000     1.0000 </r>
       <r>    -6.5285     0.0000     1.0000 </r>
       <r>    -6.4490     0.0000     1.0000 </r>
       <r>    -6.3694     0.0000     1.0000 </r>
       <r>    -6.2899     0.0000     1.0000 </r>
       <r>    -6.2103     0.0000     1.0000 </r>
       <r>    -6.1308     0.0000     1.0000 </r>
       <r>    -6.0512     0.0000     1.0000 </r>
       <r>    -5.9717     0.0000     1.0000 </r>
       <r>    -5.8922     0.0000     1.0000 </r>
       <r>    -5.8126     0.0327     1.0026 </r>
       <r>    -5.7331     7.0878     1.5664 </r>
       <r>    -5.6535    27.3616     3.7428 </r>
       <r>    -5.5740     3.2285     3.9996 </r>
       <r>    -5.4945     0.0056     4.0000 </r>
       <r>    -5.4149     0.0000     4.0000 </r>
       <r>    -5.3354     0.0000     4.0000 </r>
       <r>    -5.2558     0.0000     4.0000 </r>
       <r>    -5.1763     0.0000     4.0000 </r>
       <r>    -5.0968     0.0000     4.0000 </r>
       <r>    -5.0172     0.0000     4.0000 </r>
       <r>    -4.9377     0.0000     4.0000 </r>
       <r>    -4.8581     0.0000     4.0000 </r>
       <r>    -4.7786     0.0000     4.0000 </r>
       <r>    -4.6990     0.0000     4.0000 </r>
       <r>    -4.6195     0.0000     4.0000 </r>
       <r>    -4.5400     0.0000     4.0000 </r>
       <r>    -4.4604     0.0000     4.0000 </r>
       <r>    -4.3809     0.0000     4.0000 </r>
       <r>    -4.3013     0.0000     4.0000 </r>
       <r>    -4.2218     0.0000     4.0000 </r>
       <r>    -4.1423     0.0000     4.0000 </r>
       <r>    -4.0627     0.0000     4.0000 </r>
       <r>    -3.9832     0.0000     4.0000 </r>
       <r>    -3.9036     0.0000     4.0000 </r>
       <r>    -3.8241     0.0000     4.0000 </r>
       <r>    -3.7446     0.0000     4.0000 </r>
       <r>    -3.6650     0.0000     4.0000 </r>
       <r>    -3.5855     0.0000     4.0000 </r>
       <r>    -3.5059     0.0000     4.0000 </r>
       <r>    -3.4264     0.0000     4.0000 </r>
       <r>    -3.3468     0.0000     4.0000 </r>
       <r>    -3.2673     0.0000     4.0000 </r>
       <r>    -3.1878     0.0000     4.0000 </r>
       <r>    -3.1082     0.0000     4.0000 </r>
       <r>    -3.0287     0.0000     4.0000 </r>
       <r>    -2.9491     0.0000     4.0000 </r>
       <r>    -2.8696     0.0000     4.0000 </r>
       <r>    -2.7901     0.0000     4.0000 </r>
       <r>    -2.7105     0.0000     4.0000 </r>
       <r>    -2.6310     0.0000     4.0000 </r>
       <r>    -2.5514     0.0000     4.0000 </r>
       <r>    -2.4719     0.0000     4.0000 </r>
       <r>    -2.3924     0.0000     4.0000 </r>
       <r>    -2.3128     0.0000     4.0000 </r>
       <r>    -2.2333     0.0000     4.0000 </r>
       <r>    -2.1537     0.0000     4.0000 </r>
       <r>    -2.0742     0.0000     4.0000 </r>
       <r>    -1.9946     0.0000     4.0000 </r>
       <r>    -1.9151     0.0000     4.0000 </r>
       <r>    -1.8356     0.0000     4.0000 </r>
       <r>    -1.7560     0.0000     4.0000 </r>
       <r>    -1.6765     0.0000     4.0000 </r>
       <r>    -1.5969     0.0000     4.0000 </r>
       <r>    -1.5174     0.0000     4.0000 </r>
       <r>    -1.4379     0.0000     4.0000 </r>
       <r>    -1.3583     0.0000     4.0000 </r>
       <r>    -1.2788     0.0000     4.0000 </r>
       <r>    -1.1992     0.0000     4.0000 </r>
       <r>    -1.1197     0.0000     4.0000 </r>
       <r>    -1.0402     0.0000     4.0000 </r>
       <r>    -0.9606     0.0000     4.0000 </r>
       <r>    -0.8811     0.0000     4.0000 </r>
       <r>    -0.8015     0.0022     4.0002 </r>
       <r>    -0.7220     1.1628     4.0927 </r>
       <r>    -0.6424     9.1766     4.8226 </r>
       <r>    -0.5629     2.2211     4.9993 </r>
       <r>    -0.4834     0.0094     5.0000 </r>
       <r>    -0.4038     0.0000     5.0000 </r>
       <r>    -0.3243     0.0000     5.0000 </r>
       <r>    -0.2447     0.0000     5.0000 </r>
       <r>    -0.1652     0.0000     5.0000 </r>
       <r>    -0.0857     0.0000     5.0000 </r>
       <r>    -0.0061     0.0000     5.0000 </r>
       <r>     0.0734     0.0000     5.0000 </r>
       <r>     0.1530     0.0000     5.0000 </r>
       <r>     0.2325     0.0000     5.0000 </r>
       <r>     0.3120     0.0000     5.0000 </r>
       <r>     0.3916     0.0000     5.0000 </r>
       <r>     0.4711     0.0000     5.0000 </r>
       <r>     0.5507     0.0000     5.0000 </r>
       <r>     0.6302     0.0000     5.0000 </r>
       <r>     0.7098     0.0000     5.0000 </r>
       <r>     0.7893     0.2083     5.0166 </r>
       <r>     0.8688    10.9005     5.8836 </r>
       <r>     0.9484    13.8435     6.9847 </r>
       <r>     1.0279    12.7836     8.0016 </r>
       <r>     1.1075    33.1529    10.6386 </r>
       <r>     1.1870     4.5324    10.9991 </r>
       <r>     1.2665     0.0114    11.0000 </r>
       <r>     1.3461     0.0000    11.0000 </r>
       <r>     1.4256     0.0000    11.0000 </r>
       <r>     1.5052     0.0000    11.0000 </r>
       <r>     1.5847     0.0686    11.0055 </r>
       <r>     1.6642     9.5532    11.7653 </r>
       <r>     1.7438    25.9906    13.8326 </r>
       <r>     1.8233     2.1016    13.9998 </r>
       <r>     1.9029     0.0023    14.0000 </r>
       <r>     1.9824     0.0000    14.0000 </r>
       <r>     2.0620     0.0000    14.0000 </r>
       <r>     2.1415     0.0000    14.0000 </r>
       <r>     2.2210     0.0000    14.0000 </r>
       <r>     2.3006     0.0000    14.0000 </r>
       <r>     2.3801     0.0139    14.0011 </r>
       <r>     2.4597     3.8963    14.3110 </r>
       <r>     2.5392    19.6850    15.8768 </r>
       <r>     2.6187    25.8829    17.9355 </r>
       <r>     2.6983    29.7038    20.2982 </r>
       <r>     2.7778    11.8354    21.2396 </r>
       <r>     2.8574    17.5086    22.6323 </r>
       <r>     2.9369     4.5898    22.9974 </r>
       <r>     3.0164     0.0332    23.0000 </r>
       <r>     3.0960     0.0000    23.0000 </r>
       <r>     3.1755     0.0000    23.0000 </r>
       <r>     3.2551     0.0000    23.0000 </r>
       <r>     3.3346     0.0000    23.0000 </r>
       <r>     3.4142     0.0000    23.0000 </r>
       <r>     3.4937     0.0000    23.0000 </r>
       <r>     3.5732     0.0713    23.0057 </r>
       <r>     3.6528     9.6692    23.7748 </r>
       <r>     3.7323    25.9045    25.8352 </r>
       <r>     3.8119     3.2939    26.0973 </r>
       <r>     3.8914    12.3332    27.0783 </r>
       <r>     3.9709    20.7295    28.7271 </r>
       <r>     4.0505     3.4207    28.9992 </r>
       <r>     4.1300     0.2304    29.0175 </r>
       <r>     4.2096     9.1447    29.7449 </r>
       <r>     4.2891    15.5649    30.9829 </r>
       <r>     4.3686    14.7493    32.1561 </r>
       <r>     4.4482    10.2696    32.9730 </r>
       <r>     4.5277     0.3395    33.0000 </r>
       <r>     4.6073     0.0002    33.0000 </r>
       <r>     4.6868     0.0000    33.0000 </r>
       <r>     4.7664     0.0000    33.0000 </r>
       <r>     4.8459     0.0000    33.0000 </r>
       <r>     4.9254     0.0000    33.0000 </r>
       <r>     5.0050     0.0000    33.0000 </r>
       <r>     5.0845     0.0000    33.0000 </r>
       <r>     5.1641     0.0000    33.0000 </r>
       <r>     5.2436     0.0010    33.0001 </r>
       <r>     5.3231     0.7937    33.0632 </r>
       <r>     5.4027    11.2199    33.9557 </r>
       <r>     5.4822    12.0645    34.9153 </r>
       <r>     5.5618     1.0633    34.9999 </r>
       <r>     5.6413     0.0018    35.0000 </r>
       <r>     5.7208     0.0000    35.0000 </r>
       <r>     5.8004     0.0000    35.0000 </r>
       <r>     5.8799     0.0000    35.0000 </r>
       <r>     5.9595     0.0000    35.0000 </r>
       <r>     6.0390     0.0000    35.0000 </r>
       <r>     6.1186     0.0000    35.0000 </r>
       <r>     6.1981     0.0690    35.0055 </r>
       <r>     6.2776     4.7648    35.3845 </r>
       <r>     6.3572     7.4211    35.9748 </r>
       <r>     6.4367     0.3170    36.0000 </r>
       <r>     6.5163     0.0002    36.0000 </r>
       <r>     6.5958     0.0000    36.0000 </r>
       <r>     6.6753     0.0000    36.0000 </r>
       <r>     6.7549     0.0000    36.0000 </r>
       <r>     6.8344     0.0000    36.0000 </r>
       <r>     6.9140     0.0000    36.0000 </r>
       <r>     6.9935     0.0000    36.0000 </r>
       <r>     7.0730     0.0000    36.0000 </r>
       <r>     7.1526     0.0000    36.0000 </r>
       <r>     7.2321     0.0000    36.0000 </r>
       <r>     7.3117     0.0000    36.0000 </r>
       <r>     7.3912     0.0000    36.0000 </r>
       <r>     7.4708     0.0000    36.0000 </r>
       <r>     7.5503     0.0000    36.0000 </r>
       <r>     7.6298     0.0000    36.0000 </r>
       <r>     7.7094     0.0000    36.0000 </r>
       <r>     7.7889     0.0000    36.0000 </r>
      </set>
      <set comment="spin 2">
       <r>   -16.0734     0.0000     0.0000 </r>
       <r>   -15.9939     0.0000     0.0000 </r>
       <r>   -15.9144     0.0000     0.0000 </r>
       <r>   -15.8348     0.0000     0.0000 </r>
       <r>   -15.7553     0.0000     0.0000 </r>
       <r>   -15.6757     0.0000     0.0000 </r>
       <r>   -15.5962     0.0000     0.0000 </r>
       <r>   -15.5166     0.0000     0.0000 </r>
       <r>   -15.4371     0.0000     0.0000 </r>
       <r>   -15.3576     0.0000     0.0000 </r>
       <r>   -15.2780     0.0000     0.0000 </r>
       <r>   -15.1985     0.0000     0.0000 </r>
       <r>   -15.1189     0.0000     0.0000 </r>
       <r>   -15.0394     0.0000     0.0000 </r>
       <r>   -14.9599     0.0000     0.0000 </r>
       <r>   -14.8803     0.0000     0.0000 </r>
       <r>   -14.8008     0.0000     0.0000 </r>
       <r>   -14.7212     0.0000     0.0000 </r>
       <r>   -14.6417     0.0000     0.0000 </r>
       <r>   -14.5622     0.0000     0.0000 </r>
       <r>   -14.4826     0.0000     0.0000 </r>
       <r>   -14.4031     0.0000     0.0000 </r>
       <r>   -14.3235     0.0000     0.0000 </r>
       <r>   -14.2440     0.0000     0.0000 </r>
       <r>   -14.1644     0.0000     0.0000 </r>
       <r>   -14.0849     0.0000     0.0000 </r>
       <r>   -14.0054     0.0000     0.0000 </r>
       <r>   -13.9258     0.0000     0.0000 </r>
       <r>   -13.8463     0.0000     0.0000 </r>
       <r>   -13.7667     0.0000     0.0000 </r>
       <r>   -13.6872     0.0000     0.0000 </r>
       <r>   -13.6077     0.0000     0.0000 </r>
       <r>   -13.5281     0.0000     0.0000 </r>
       <r>   -13.4486     0.0000     0.0000 </r>
       <r>   -13.3690     0.0000     0.0000 </r>
       <r>   -13.2895     0.0000     0.0000 </r>
       <r>   -13.2100     0.0000     0.0000 </r>
       <r>   -13.1304     0.0000     0.0000 </r>
       <r>   -13.0509     0.0000     0.0000 </r>
       <r>   -12.9713     0.0000     0.0000 </r>
       <r>   -12.8918     0.0000     0.0000 </r>
       <r>   -12.8122     0.0325     0.0026 </r>
       <r>   -12.7327     3.6431     0.2924 </r>
       <r>   -12.6532     8.3401     0.9557 </r>
       <r>   -12.5736     0.5560     1.0000 </r>
       <r>   -12.4941     0.0005     1.0000 </r>
       <r>   -12.4145     0.0000     1.0000 </r>
       <r>   -12.3350     0.0000     1.0000 </r>
       <r>   -12.2555     0.0000     1.0000 </r>
       <r>   -12.1759     0.0000     1.0000 </r>
       <r>   -12.0964     0.0000     1.0000 </r>
       <r>   -12.0168     0.0000     1.0000 </r>
       <r>   -11.9373     0.0000     1.0000 </r>
       <r>   -11.8578     0.0000     1.0000 </r>
       <r>   -11.7782     0.0000     1.0000 </r>
       <r>   -11.6987     0.0000     1.0000 </r>
       <r>   -11.6191     0.0000     1.0000 </r>
       <r>   -11.5396     0.0000     1.0000 </r>
       <r>   -11.4600     0.0000     1.0000 </r>
       <r>   -11.3805     0.0000     1.0000 </r>
       <r>   -11.3010     0.0000     1.0000 </r>
       <r>   -11.2214     0.0000     1.0000 </r>
       <r>   -11.1419     0.0000     1.0000 </r>
       <r>   -11.0623     0.0000     1.0000 </r>
       <r>   -10.9828     0.0000     1.0000 </r>
       <r>   -10.9033     0.0000     1.0000 </r>
       <r>   -10.8237     0.0000     1.0000 </r>
       <r>   -10.7442     0.0000     1.0000 </r>
       <r>   -10.6646     0.0000     1.0000 </r>
       <r>   -10.5851     0.0000     1.0000 </r>
       <r>   -10.5056     0.0000     1.0000 </r>
       <r>   -10.4260     0.0000     1.0000 </r>
       <r>   -10.3465     0.0000     1.0000 </r>
       <r>   -10.2669     0.0000     1.0000 </r>
       <r>   -10.1874     0.0000     1.0000 </r>
       <r>   -10.1078     0.0000     1.0000 </r>
       <r>   -10.0283     0.0000     1.0000 </r>
       <r>    -9.9488     0.0000     1.0000 </r>
       <r>    -9.8692     0.0000     1.0000 </r>
       <r>    -9.7897     0.0000     1.0000 </r>
       <r>    -9.7101     0.0000     1.0000 </r>
       <r>    -9.6306     0.0000     1.0000 </r>
       <r>    -9.5511     0.0000     1.0000 </r>
       <r>    -9.4715     0.0000     1.0000 </r>
       <r>    -9.3920     0.0000     1.0000 </r>
       <r>    -9.3124     0.0000     1.0000 </r>
       <r>    -9.2329     0.0000     1.0000 </r>
       <r>    -9.1534     0.0000     1.0000 </r>
       <r>    -9.0738     0.0000     1.0000 </r>
       <r>    -8.9943     0.0000     1.0000 </r>
       <r>    -8.9147     0.0000     1.0000 </r>
       <r>    -8.8352     0.0000     1.0000 </r>
       <r>    -8.7556     0.0000     1.0000 </r>
       <r>    -8.6761     0.0000     1.0000 </r>
       <r>    -8.5966     0.0000     1.0000 </r>
       <r>    -8.5170     0.0000     1.0000 </r>
       <r>    -8.4375     0.0000     1.0000 </r>
       <r>    -8.3579     0.0000     1.0000 </r>
       <r>    -8.2784     0.0000     1.0000 </r>
       <r>    -8.1989     0.0000     1.0000 </r>
       <r>    -8.1193     0.0000     1.0000 </r>
       <r>    -8.0398     0.0000     1.0000 </r>
       <r>    -7.9602     0.0000     1.0000 </r>
       <r>    -7.8807     0.0000     1.0000 </r>
       <r>    -7.8012     0.0000     1.0000 </r>
       <r>    -7.7216     0.0000     1.0000 </r>
       <r>    -7.6421     0.0000     1.0000 </r>
       <r>    -7.5625     0.0000     1.0000 </r>
       <r>    -7.4830     0.0000     1.0000 </r>
       <r>    -7.4034     0.0000     1.0000 </r>
       <r>    -7.3239     0.0000     1.0000 </r>
       <r>    -7.2444     0.0000     1.0000 </r>
       <r>    -7.1648     0.0000     1.0000 </r>
       <r>    -7.0853     0.0000     1.0000 </r>
       <r>    -7.0057     0.0000     1.0000 </r>
       <r>    -6.9262     0.0000     1.0000 </r>
       <r>    -6.8467     0.0000     1.0000 </r>
       <r>    -6.7671     0.0000     1.0000 </r>
       <r>    -6.6876     0.0000     1.0000 </r>
       <r>    -6.6080     0.0000     1.0000 </r>
       <r>    -6.5285     0.0000     1.0000 </r>
       <r>    -6.4490     0.0000     1.0000 </r>
       <r>    -6.3694     0.0000     1.0000 </r>
       <r>    -6.2899     0.0000     1.0000 </r>
       <r>    -6.2103     0.0000     1.0000 </r>
       <r>    -6.1308     0.0000     1.0000 </r>
       <r>    -6.0512     0.0000     1.0000 </r>
       <r>    -5.9717     0.0000     1.0000 </r>
       <r>    -5.8922     0.0000     1.0000 </r>
       <r>    -5.8126     0.0000     1.0000 </r>
       <r>    -5.7331     0.0000     1.0000 </r>
       <r>    -5.6535     0.0000     1.0000 </r>
       <r>    -5.5740     0.0000     1.0000 </r>
       <r>    -5.4945     0.0000     1.0000 </r>
       <r>    -5.4149     0.0000     1.0000 </r>
       <r>    -5.3354     0.0000     1.0000 </r>
       <r>    -5.2558     0.0000     1.0000 </r>
       <r>    -5.1763     0.0000     1.0000 </r>
       <r>    -5.0968     0.0000     1.0000 </r>
       <r>    -5.0172     0.0000     1.0000 </r>
       <r>    -4.9377     0.0000     1.0000 </r>
       <r>    -4.8581     0.0000     1.0000 </r>
       <r>    -4.7786     0.0000     1.0000 </r>
       <r>    -4.6990     0.0000     1.0000 </r>
       <r>    -4.6195     0.0000     1.0000 </r>
       <r>    -4.5400     0.0000     1.0000 </r>
       <r>    -4.4604     0.0000     1.0000 </r>
       <r>    -4.3809     0.0000     1.0000 </r>
       <r>    -4.3013     0.0000     1.0000 </r>
       <r>    -4.2218     0.0000     1.0000 </r>
       <r>    -4.1423     0.0000     1.0000 </r>
       <r>    -4.0627     0.0000     1.0000 </r>
       <r>    -3.9832     0.0000     1.0000 </r>
       <r>    -3.9036     0.0000     1.0000 </r>
       <r>    -3.8241     0.0000     1.0000 </r>
       <r>    -3.7446     0.0000     1.0000 </r>
       <r>    -3.6650     0.0000     1.0000 </r>
       <r>    -3.5855     0.0000     1.0000 </r>
       <r>    -3.5059     0.0790     1.0063 </r>
       <r>    -3.4264    10.0941     1.8092 </r>
       <r>    -3.3468    25.6232     3.8473 </r>
       <r>    -3.2673     1.9181     3.9998 </r>
       <r>    -3.1878     0.0019     4.0000 </r>
       <r>    -3.1082     0.0000     4.0000 </r>
       <r>    -3.0287     0.0000     4.0000 </r>
       <r>    -2.9491     0.0000     4.0000 </r>
       <r>    -2.8696     0.0000     4.0000 </r>
       <r>    -2.7901     0.0000     4.0000 </r>
       <r>    -2.7105     0.0000     4.0000 </r>
       <r>    -2.6310     0.0000     4.0000 </r>
       <r>    -2.5514     0.0000     4.0000 </r>
       <r>    -2.4719     0.0000     4.0000 </r>
       <r>    -2.3924     0.0000     4.0000 </r>
       <r>    -2.3128     0.0000     4.0000 </r>
       <r>    -2.2333     0.0000     4.0000 </r>
       <r>    -2.1537     0.0000     4.0000 </r>
       <r>    -2.0742     0.0000     4.0000 </r>
       <r>    -1.9946     0.0000     4.0000 </r>
       <r>    -1.9151     0.0000     4.0000 </r>
       <r>    -1.8356     0.0000     4.0000 </r>
       <r>    -1.7560     0.0000     4.0000 </r>
       <r>    -1.6765     0.0000     4.0000 </r>
       <r>    -1.5969     0.0000     4.0000 </r>
       <r>    -1.5174     0.0000     4.0000 </r>
       <r>    -1.4379     0.0000     4.0000 </r>
       <r>    -1.3583     0.0000     4.0000 </r>
       <r>    -1.2788     0.0000     4.0000 </r>
       <r>    -1.1992     0.0000     4.0000 </r>
       <r>    -1.1197     0.0000     4.0000 </r>
       <r>    -1.0402     0.0000     4.0000 </r>
       <r>    -0.9606     0.0000     4.0000 </r>
       <r>    -0.8811     0.0000     4.0000 </r>
       <r>    -0.8015     0.0000     4.0000 </r>
       <r>    -0.7220     0.0000     4.0000 </r>
       <r>    -0.6424     0.0000     4.0000 </r>
       <r>    -0.5629     0.0000     4.0000 </r>
       <r>    -0.4834     0.0000     4.0000 </r>
       <r>    -0.4038     0.0000     4.0000 </r>
       <r>    -0.3243     0.0000     4.0000 </r>
       <r>    -0.2447     0.0000     4.0000 </r>
       <r>    -0.1652     0.0000     4.0000 </r>
       <r>    -0.0857     0.0010     4.0001 </r>
       <r>    -0.0061     0.7858     4.0626 </r>
       <r>     0.0734     8.8070     4.7631 </r>
       <r>     0.1530     2.9593     4.9985 </r>
       <r>     0.2325     0.0190     5.0000 </r>
       <r>     0.3120     0.0000     5.0000 </r>
       <r>     0.3916     0.0000     5.0000 </r>
       <r>     0.4711     0.0000     5.0000 </r>
       <r>     0.5507     0.0000     5.0000 </r>
       <r>     0.6302     0.0000     5.0000 </r>
       <r>     0.7098     0.0000     5.0000 </r>
       <r>     0.7893     0.0000     5.0000 </r>
       <r>     0.8688     0.0000     5.0000 </r>
       <r>     0.9484     0.0000     5.0000 </r>
       <r>     1.0279     0.0000     5.0000 </r>
       <r>     1.1075     0.0000     5.0000 </r>
       <r>     1.1870     0.0000     5.0000 </r>
       <r>     1.2665     0.0000     5.0000 </r>
       <r>     1.3461     0.0000     5.0000 </r>
       <r>     1.4256     0.1560     5.0124 </r>
       <r>     1.5052     9.9305     5.8023 </r>
       <r>     1.5847    15.1039     7.0037 </r>
       <r>     1.6642    15.9233     8.2702 </r>
       <r>     1.7438    30.9590    10.7327 </r>
       <r>     1.8233     3.3539    10.9995 </r>
       <r>     1.9029     0.0060    11.0000 </r>
       <r>     1.9824     0.0000    11.0000 </r>
       <r>     2.0620     0.0000    11.0000 </r>
       <r>     2.1415     0.0000    11.0000 </r>
       <r>     2.2210     0.0000    11.0000 </r>
       <r>     2.3006     0.0000    11.0000 </r>
       <r>     2.3801     0.0000    11.0000 </r>
       <r>     2.4597     0.0000    11.0000 </r>
       <r>     2.5392     0.0001    11.0000 </r>
       <r>     2.6187     0.3744    11.0298 </r>
       <r>     2.6983    17.2827    12.4045 </r>
       <r>     2.7778    19.4921    13.9549 </r>
       <r>     2.8574     0.5754    14.0007 </r>
       <r>     2.9369     3.1497    14.2512 </r>
       <r>     3.0164    18.9414    15.7578 </r>
       <r>     3.0960    20.1982    17.3644 </r>
       <r>     3.1755    19.9264    18.9494 </r>
       <r>     3.2551     2.2167    19.1257 </r>
       <r>     3.3346    24.1693    21.0482 </r>
       <r>     3.4142    13.5216    22.1237 </r>
       <r>     3.4937     9.4359    22.8742 </r>
       <r>     3.5732     1.5771    22.9997 </r>
       <r>     3.6528     0.0043    23.0000 </r>
       <r>     3.7323     0.0000    23.0000 </r>
       <r>     3.8119     0.0000    23.0000 </r>
       <r>     3.8914     0.0000    23.0000 </r>
       <r>     3.9709     0.0000    23.0000 </r>
       <r>     4.0505     0.0000    23.0000 </r>
       <r>     4.1300     0.1404    23.0112 </r>
       <r>     4.2096    12.4190    23.9990 </r>
       <r>     4.2891    23.8384    25.8951 </r>
       <r>     4.3686     1.3243    26.0005 </r>
       <r>     4.4482     1.9289    26.1539 </r>
       <r>     4.5277     9.2623    26.8906 </r>
       <r>     4.6073     1.3720    26.9998 </r>
       <r>     4.6868     0.3276    27.0258 </r>
       <r>     4.7664    12.4365    28.0150 </r>
       <r>     4.8459    14.5654    29.1736 </r>
       <r>     4.9254    20.1161    30.7736 </r>
       <r>     5.0050    21.9120    32.5165 </r>
       <r>     5.0845     6.0045    32.9942 </r>
       <r>     5.1641     0.0735    33.0000 </r>
       <r>     5.2436     0.0000    33.0000 </r>
       <r>     5.3231     0.0000    33.0000 </r>
       <r>     5.4027     0.0000    33.0000 </r>
       <r>     5.4822     0.0000    33.0000 </r>
       <r>     5.5618     0.0000    33.0000 </r>
       <r>     5.6413     0.0000    33.0000 </r>
       <r>     5.7208     0.0000    33.0000 </r>
       <r>     5.8004     0.0000    33.0000 </r>
       <r>     5.8799     0.0000    33.0000 </r>
       <r>     5.9595     0.0000    33.0000 </r>
       <r>     6.0390     0.0000    33.0000 </r>
       <r>     6.1186     0.0000    33.0000 </r>
       <r>     6.1981     0.0000    33.0000 </r>
       <r>     6.2776     0.0693    33.0055 </r>
       <r>     6.3572     6.2185    33.5001 </r>
       <r>     6.4367    16.7913    34.8357 </r>
       <r>     6.5163     2.0596    34.9996 </r>
       <r>     6.5958     0.0190    35.0011 </r>
       <r>     6.6753     2.5845    35.2067 </r>
       <r>     6.7549     9.0171    35.9239 </r>
       <r>     6.8344     0.9555    35.9999 </r>
       <r>     6.9140     0.0015    36.0000 </r>
       <r>     6.9935     0.0000    36.0000 </r>
       <r>     7.0730     0.0000    36.0000 </r>
       <r>     7.1526     0.0000    36.0000 </r>
       <r>     7.2321     0.0000    36.0000 </r>
       <r>     7.3117     0.0000    36.0000 </r>
       <r>     7.3912     0.0000    36.0000 </r>
       <r>     7.4708     0.0000    36.0000 </r>
       <r>     7.5503     0.0000    36.0000 </r>
       <r>     7.6298     0.0000    36.0000 </r>
       <r>     7.7094     0.0000    36.0000 </r>
       <r>     7.7889     0.0000    36.0000 </r>
      </set>
     </set>
    </array>
   </total>
   <partial>
    <array>
     <dimension dim="1">gridpoints</dimension>
     <dimension dim="2">spin</dimension>
     <dimension dim="3">ion</dimension>
     <field>energy</field>
     <field>    s</field>
     <field>   py</field>
     <field>   pz</field>
     <field>   px</field>
     <field>  dxy</field>
     <field>  dyz</field>
     <field>  dz2</field>
     <field>  dxz</field>
     <field>x2-y2</field>
     <set>
      <set comment="ion 1">
       <set comment="spin 1">
        <r>   -16.0734     0.0000     0.0000     0.0000     0.0000     0.0000     0.0000     0.0000     0.0000     0.0000 </r>
        <r>   -15.9939     0.0000     0.0000     0.0000     0.0000     0.0000     0.0000     0.0000     0.0000     0.0000 </r>
        <r>   -15.9144     0.0000     0.0000     0.0000     0.0000     0.0000     0.0000     0.0000     0.0000     0.0000 </r>
        <r>   -15.8348     0.0000     0.0000     0.0000     0.0000     0.0000     0.0000     0.0000     0.0000     0.0000 </r>
        <r>   -15.7553     0.0000     0.0000     0.0000     0.0000     0.0000     0.0000     0.0000     0.0000     0.0000 </r>
        <r>   -15.6757     0.0000     0.0000     0.0000     0.0000     0.0000     0.0000     0.0000     0.0000     0.0000 </r>
        <r>   -15.5962     0.0000     0.0000     0.0000     0.0000     0.0000     0.0000     0.0000     0.0000     0.0000 </r>
        <r>   -15.5166     0.0000     0.0000     0.0000     0.0000     0.0000     0.0000     0.0000     0.0000     0.0000 </r>
        <r>   -15.4371     0.0000     0.0000     0.0000     0.0000     0.0000     0.0000     0.0000     0.0000     0.0000 </r>
        <r>   -15.3576     0.0000     0.0000     0.0000     0.0000     0.0000     0.0000     0.0000     0.0000     0.0000 </r>
        <r>   -15.2780     0.0000     0.0000     0.0000     0.0000     0.0000     0.0000     0.0000     0.0000     0.0000 </r>
        <r>   -15.1985     0.0000     0.0000     0.0000     0.0000     0.0000     0.0000     0.0000     0.0000     0.0000 </r>
        <r>   -15.1189     0.0010     0.0000     0.0000     0.0000     0.0000     0.0000     0.0000     0.0000     0.0000 </r>
        <r>   -15.0394     0.6378     0.0000     0.0000     0.0000     0.0000     0.0000     0.0000     0.0000     0.0000 </r>
        <r>   -14.9599     6.0184     0.0000     0.0000     0.0000     0.0000     0.0000     0.0000     0.0000     0.0000 </r>
        <r>   -14.8803     1.7250     0.0000     0.0000     0.0000     0.0000     0.0000     0.0000     0.0000     0.0000 </r>
        <r>   -14.8008     0.0090     0.0000     0.0000     0.0000     0.0000     0.0000     0.0000     0.0000     0.0000 </r>
        <r>   -14.7212     0.0000     0.0000     0.0000     0.0000     0.0000     0.0000     0.0000     0.0000     0.0000 </r>
        <r>   -14.6417     0.0000     0.0000     0.0000     0.0000     0.0000     0.0000     0.0000     0.0000     0.0000 </r>
        <r>   -14.5622     0.0000     0.0000     0.0000     0.0000     0.0000     0.0000     0.0000     0.0000     0.0000 </r>
        <r>   -14.4826     0.0000     0.0000     0.0000     0.0000     0.0000     0.0000     0.0000     0.0000     0.0000 </r>
        <r>   -14.4031     0.0000     0.0000     0.0000     0.0000     0.0000     0.0000     0.0000     0.0000     0.0000 </r>
        <r>   -14.3235     0.0000     0.0000     0.0000     0.0000     0.0000     0.0000     0.0000     0.0000     0.0000 </r>
        <r>   -14.2440     0.0000     0.0000     0.0000     0.0000     0.0000     0.0000     0.0000     0.0000     0.0000 </r>
        <r>   -14.1644     0.0000     0.0000     0.0000     0.0000     0.0000     0.0000     0.0000     0.0000     0.0000 </r>
        <r>   -14.0849     0.0000     0.0000     0.0000     0.0000     0.0000     0.0000     0.0000     0.0000     0.0000 </r>
        <r>   -14.0054     0.0000     0.0000     0.0000     0.0000     0.0000     0.0000     0.0000     0.0000     0.0000 </r>
        <r>   -13.9258     0.0000     0.0000     0.0000     0.0000     0.0000     0.0000     0.0000     0.0000     0.0000 </r>
        <r>   -13.8463     0.0000     0.0000     0.0000     0.0000     0.0000     0.0000     0.0000     0.0000     0.0000 </r>
        <r>   -13.7667     0.0000     0.0000     0.0000     0.0000     0.0000     0.0000     0.0000     0.0000     0.0000 </r>
        <r>   -13.6872     0.0000     0.0000     0.0000     0.0000     0.0000     0.0000     0.0000     0.0000     0.0000 </r>
        <r>   -13.6077     0.0000     0.0000     0.0000     0.0000     0.0000     0.0000     0.0000     0.0000     0.0000 </r>
        <r>   -13.5281     0.0000     0.0000     0.0000     0.0000     0.0000     0.0000     0.0000     0.0000     0.0000 </r>
        <r>   -13.4486     0.0000     0.0000     0.0000     0.0000     0.0000     0.0000     0.0000     0.0000     0.0000 </r>
        <r>   -13.3690     0.0000     0.0000     0.0000     0.0000     0.0000     0.0000     0.0000     0.0000     0.0000 </r>
        <r>   -13.2895     0.0000     0.0000     0.0000     0.0000     0.0000     0.0000     0.0000     0.0000     0.0000 </r>
        <r>   -13.2100     0.0000     0.0000     0.0000     0.0000     0.0000     0.0000     0.0000     0.0000     0.0000 </r>
        <r>   -13.1304     0.0000     0.0000     0.0000     0.0000     0.0000     0.0000     0.0000     0.0000     0.0000 </r>
        <r>   -13.0509     0.0000     0.0000     0.0000     0.0000     0.0000     0.0000     0.0000     0.0000     0.0000 </r>
        <r>   -12.9713     0.0000     0.0000     0.0000     0.0000     0.0000     0.0000     0.0000     0.0000     0.0000 </r>
        <r>   -12.8918     0.0000     0.0000     0.0000     0.0000     0.0000     0.0000     0.0000     0.0000     0.0000 </r>
        <r>   -12.8122     0.0000     0.0000     0.0000     0.0000     0.0000     0.0000     0.0000     0.0000     0.0000 </r>
        <r>   -12.7327     0.0000     0.0000     0.0000     0.0000     0.0000     0.0000     0.0000     0.0000     0.0000 </r>
        <r>   -12.6532     0.0000     0.0000     0.0000     0.0000     0.0000     0.0000     0.0000     0.0000     0.0000 </r>
        <r>   -12.5736     0.0000     0.0000     0.0000     0.0000     0.0000     0.0000     0.0000     0.0000     0.0000 </r>
        <r>   -12.4941     0.0000     0.0000     0.0000     0.0000     0.0000     0.0000     0.0000     0.0000     0.0000 </r>
        <r>   -12.4145     0.0000     0.0000     0.0000     0.0000     0.0000     0.0000     0.0000     0.0000     0.0000 </r>
        <r>   -12.3350     0.0000     0.0000     0.0000     0.0000     0.0000     0.0000     0.0000     0.0000     0.0000 </r>
        <r>   -12.2555     0.0000     0.0000     0.0000     0.0000     0.0000     0.0000     0.0000     0.0000     0.0000 </r>
        <r>   -12.1759     0.0000     0.0000     0.0000     0.0000     0.0000     0.0000     0.0000     0.0000     0.0000 </r>
        <r>   -12.0964     0.0000     0.0000     0.0000     0.0000     0.0000     0.0000     0.0000     0.0000     0.0000 </r>
        <r>   -12.0168     0.0000     0.0000     0.0000     0.0000     0.0000     0.0000     0.0000     0.0000     0.0000 </r>
        <r>   -11.9373     0.0000     0.0000     0.0000     0.0000     0.0000     0.0000     0.0000     0.0000     0.0000 </r>
        <r>   -11.8578     0.0000     0.0000     0.0000     0.0000     0.0000     0.0000     0.0000     0.0000     0.0000 </r>
        <r>   -11.7782     0.0000     0.0000     0.0000     0.0000     0.0000     0.0000     0.0000     0.0000     0.0000 </r>
        <r>   -11.6987     0.0000     0.0000     0.0000     0.0000     0.0000     0.0000     0.0000     0.0000     0.0000 </r>
        <r>   -11.6191     0.0000     0.0000     0.0000     0.0000     0.0000     0.0000     0.0000     0.0000     0.0000 </r>
        <r>   -11.5396     0.0000     0.0000     0.0000     0.0000     0.0000     0.0000     0.0000     0.0000     0.0000 </r>
        <r>   -11.4600     0.0000     0.0000     0.0000     0.0000     0.0000     0.0000     0.0000     0.0000     0.0000 </r>
        <r>   -11.3805     0.0000     0.0000     0.0000     0.0000     0.0000     0.0000     0.0000     0.0000     0.0000 </r>
        <r>   -11.3010     0.0000     0.0000     0.0000     0.0000     0.0000     0.0000     0.0000     0.0000     0.0000 </r>
        <r>   -11.2214     0.0000     0.0000     0.0000     0.0000     0.0000     0.0000     0.0000     0.0000     0.0000 </r>
        <r>   -11.1419     0.0000     0.0000     0.0000     0.0000     0.0000     0.0000     0.0000     0.0000     0.0000 </r>
        <r>   -11.0623     0.0000     0.0000     0.0000     0.0000     0.0000     0.0000     0.0000     0.0000     0.0000 </r>
        <r>   -10.9828     0.0000     0.0000     0.0000     0.0000     0.0000     0.0000     0.0000     0.0000     0.0000 </r>
        <r>   -10.9033     0.0000     0.0000     0.0000     0.0000     0.0000     0.0000     0.0000     0.0000     0.0000 </r>
        <r>   -10.8237     0.0000     0.0000     0.0000     0.0000     0.0000     0.0000     0.0000     0.0000     0.0000 </r>
        <r>   -10.7442     0.0000     0.0000     0.0000     0.0000     0.0000     0.0000     0.0000     0.0000     0.0000 </r>
        <r>   -10.6646     0.0000     0.0000     0.0000     0.0000     0.0000     0.0000     0.0000     0.0000     0.0000 </r>
        <r>   -10.5851     0.0000     0.0000     0.0000     0.0000     0.0000     0.0000     0.0000     0.0000     0.0000 </r>
        <r>   -10.5056     0.0000     0.0000     0.0000     0.0000     0.0000     0.0000     0.0000     0.0000     0.0000 </r>
        <r>   -10.4260     0.0000     0.0000     0.0000     0.0000     0.0000     0.0000     0.0000     0.0000     0.0000 </r>
        <r>   -10.3465     0.0000     0.0000     0.0000     0.0000     0.0000     0.0000     0.0000     0.0000     0.0000 </r>
        <r>   -10.2669     0.0000     0.0000     0.0000     0.0000     0.0000     0.0000     0.0000     0.0000     0.0000 </r>
        <r>   -10.1874     0.0000     0.0000     0.0000     0.0000     0.0000     0.0000     0.0000     0.0000     0.0000 </r>
        <r>   -10.1078     0.0000     0.0000     0.0000     0.0000     0.0000     0.0000     0.0000     0.0000     0.0000 </r>
        <r>   -10.0283     0.0000     0.0000     0.0000     0.0000     0.0000     0.0000     0.0000     0.0000     0.0000 </r>
        <r>    -9.9488     0.0000     0.0000     0.0000     0.0000     0.0000     0.0000     0.0000     0.0000     0.0000 </r>
        <r>    -9.8692     0.0000     0.0000     0.0000     0.0000     0.0000     0.0000     0.0000     0.0000     0.0000 </r>
        <r>    -9.7897     0.0000     0.0000     0.0000     0.0000     0.0000     0.0000     0.0000     0.0000     0.0000 </r>
        <r>    -9.7101     0.0000     0.0000     0.0000     0.0000     0.0000     0.0000     0.0000     0.0000     0.0000 </r>
        <r>    -9.6306     0.0000     0.0000     0.0000     0.0000     0.0000     0.0000     0.0000     0.0000     0.0000 </r>
        <r>    -9.5511     0.0000     0.0000     0.0000     0.0000     0.0000     0.0000     0.0000     0.0000     0.0000 </r>
        <r>    -9.4715     0.0000     0.0000     0.0000     0.0000     0.0000     0.0000     0.0000     0.0000     0.0000 </r>
        <r>    -9.3920     0.0000     0.0000     0.0000     0.0000     0.0000     0.0000     0.0000     0.0000     0.0000 </r>
        <r>    -9.3124     0.0000     0.0000     0.0000     0.0000     0.0000     0.0000     0.0000     0.0000     0.0000 </r>
        <r>    -9.2329     0.0000     0.0000     0.0000     0.0000     0.0000     0.0000     0.0000     0.0000     0.0000 </r>
        <r>    -9.1534     0.0000     0.0000     0.0000     0.0000     0.0000     0.0000     0.0000     0.0000     0.0000 </r>
        <r>    -9.0738     0.0000     0.0000     0.0000     0.0000     0.0000     0.0000     0.0000     0.0000     0.0000 </r>
        <r>    -8.9943     0.0000     0.0000     0.0000     0.0000     0.0000     0.0000     0.0000     0.0000     0.0000 </r>
        <r>    -8.9147     0.0000     0.0000     0.0000     0.0000     0.0000     0.0000     0.0000     0.0000     0.0000 </r>
        <r>    -8.8352     0.0000     0.0000     0.0000     0.0000     0.0000     0.0000     0.0000     0.0000     0.0000 </r>
        <r>    -8.7556     0.0000     0.0000     0.0000     0.0000     0.0000     0.0000     0.0000     0.0000     0.0000 </r>
        <r>    -8.6761     0.0000     0.0000     0.0000     0.0000     0.0000     0.0000     0.0000     0.0000     0.0000 </r>
        <r>    -8.5966     0.0000     0.0000     0.0000     0.0000     0.0000     0.0000     0.0000     0.0000     0.0000 </r>
        <r>    -8.5170     0.0000     0.0000     0.0000     0.0000     0.0000     0.0000     0.0000     0.0000     0.0000 </r>
        <r>    -8.4375     0.0000     0.0000     0.0000     0.0000     0.0000     0.0000     0.0000     0.0000     0.0000 </r>
        <r>    -8.3579     0.0000     0.0000     0.0000     0.0000     0.0000     0.0000     0.0000     0.0000     0.0000 </r>
        <r>    -8.2784     0.0000     0.0000     0.0000     0.0000     0.0000     0.0000     0.0000     0.0000     0.0000 </r>
        <r>    -8.1989     0.0000     0.0000     0.0000     0.0000     0.0000     0.0000     0.0000     0.0000     0.0000 </r>
        <r>    -8.1193     0.0000     0.0000     0.0000     0.0000     0.0000     0.0000     0.0000     0.0000     0.0000 </r>
        <r>    -8.0398     0.0000     0.0000     0.0000     0.0000     0.0000     0.0000     0.0000     0.0000     0.0000 </r>
        <r>    -7.9602     0.0000     0.0000     0.0000     0.0000     0.0000     0.0000     0.0000     0.0000     0.0000 </r>
        <r>    -7.8807     0.0000     0.0000     0.0000     0.0000     0.0000     0.0000     0.0000     0.0000     0.0000 </r>
        <r>    -7.8012     0.0000     0.0000     0.0000     0.0000     0.0000     0.0000     0.0000     0.0000     0.0000 </r>
        <r>    -7.7216     0.0000     0.0000     0.0000     0.0000     0.0000     0.0000     0.0000     0.0000     0.0000 </r>
        <r>    -7.6421     0.0000     0.0000     0.0000     0.0000     0.0000     0.0000     0.0000     0.0000     0.0000 </r>
        <r>    -7.5625     0.0000     0.0000     0.0000     0.0000     0.0000     0.0000     0.0000     0.0000     0.0000 </r>
        <r>    -7.4830     0.0000     0.0000     0.0000     0.0000     0.0000     0.0000     0.0000     0.0000     0.0000 </r>
        <r>    -7.4034     0.0000     0.0000     0.0000     0.0000     0.0000     0.0000     0.0000     0.0000     0.0000 </r>
        <r>    -7.3239     0.0000     0.0000     0.0000     0.0000     0.0000     0.0000     0.0000     0.0000     0.0000 </r>
        <r>    -7.2444     0.0000     0.0000     0.0000     0.0000     0.0000     0.0000     0.0000     0.0000     0.0000 </r>
        <r>    -7.1648     0.0000     0.0000     0.0000     0.0000     0.0000     0.0000     0.0000     0.0000     0.0000 </r>
        <r>    -7.0853     0.0000     0.0000     0.0000     0.0000     0.0000     0.0000     0.0000     0.0000     0.0000 </r>
        <r>    -7.0057     0.0000     0.0000     0.0000     0.0000     0.0000     0.0000     0.0000     0.0000     0.0000 </r>
        <r>    -6.9262     0.0000     0.0000     0.0000     0.0000     0.0000     0.0000     0.0000     0.0000     0.0000 </r>
        <r>    -6.8467     0.0000     0.0000     0.0000     0.0000     0.0000     0.0000     0.0000     0.0000     0.0000 </r>
        <r>    -6.7671     0.0000     0.0000     0.0000     0.0000     0.0000     0.0000     0.0000     0.0000     0.0000 </r>
        <r>    -6.6876     0.0000     0.0000     0.0000     0.0000     0.0000     0.0000     0.0000     0.0000     0.0000 </r>
        <r>    -6.6080     0.0000     0.0000     0.0000     0.0000     0.0000     0.0000     0.0000     0.0000     0.0000 </r>
        <r>    -6.5285     0.0000     0.0000     0.0000     0.0000     0.0000     0.0000     0.0000     0.0000     0.0000 </r>
        <r>    -6.4490     0.0000     0.0000     0.0000     0.0000     0.0000     0.0000     0.0000     0.0000     0.0000 </r>
        <r>    -6.3694     0.0000     0.0000     0.0000     0.0000     0.0000     0.0000     0.0000     0.0000     0.0000 </r>
        <r>    -6.2899     0.0000     0.0000     0.0000     0.0000     0.0000     0.0000     0.0000     0.0000     0.0000 </r>
        <r>    -6.2103     0.0000     0.0000     0.0000     0.0000     0.0000     0.0000     0.0000     0.0000     0.0000 </r>
        <r>    -6.1308     0.0000     0.0000     0.0000     0.0000     0.0000     0.0000     0.0000     0.0000     0.0000 </r>
        <r>    -6.0512     0.0000     0.0000     0.0000     0.0000     0.0000     0.0000     0.0000     0.0000     0.0000 </r>
        <r>    -5.9717     0.0000     0.0000     0.0000     0.0000     0.0000     0.0000     0.0000     0.0000     0.0000 </r>
        <r>    -5.8922     0.0000     0.0000     0.0000     0.0000     0.0000     0.0000     0.0000     0.0000     0.0000 </r>
        <r>    -5.8126     0.0000     0.0045     0.0045     0.0045     0.0000     0.0000     0.0000     0.0000     0.0000 </r>
        <r>    -5.7331     0.0000     0.9821     0.9821     0.9813     0.0000     0.0000     0.0000     0.0000     0.0000 </r>
        <r>    -5.6535     0.0000     3.7908     3.7909     3.7891     0.0000     0.0000     0.0000     0.0000     0.0000 </r>
        <r>    -5.5740     0.0000     0.4472     0.4473     0.4472     0.0000     0.0000     0.0000     0.0000     0.0000 </r>
        <r>    -5.4945     0.0000     0.0008     0.0008     0.0008     0.0000     0.0000     0.0000     0.0000     0.0000 </r>
        <r>    -5.4149     0.0000     0.0000     0.0000     0.0000     0.0000     0.0000     0.0000     0.0000     0.0000 </r>
        <r>    -5.3354     0.0000     0.0000     0.0000     0.0000     0.0000     0.0000     0.0000     0.0000     0.0000 </r>
        <r>    -5.2558     0.0000     0.0000     0.0000     0.0000     0.0000     0.0000     0.0000     0.0000     0.0000 </r>
        <r>    -5.1763     0.0000     0.0000     0.0000     0.0000     0.0000     0.0000     0.0000     0.0000     0.0000 </r>
        <r>    -5.0968     0.0000     0.0000     0.0000     0.0000     0.0000     0.0000     0.0000     0.0000     0.0000 </r>
        <r>    -5.0172     0.0000     0.0000     0.0000     0.0000     0.0000     0.0000     0.0000     0.0000     0.0000 </r>
        <r>    -4.9377     0.0000     0.0000     0.0000     0.0000     0.0000     0.0000     0.0000     0.0000     0.0000 </r>
        <r>    -4.8581     0.0000     0.0000     0.0000     0.0000     0.0000     0.0000     0.0000     0.0000     0.0000 </r>
        <r>    -4.7786     0.0000     0.0000     0.0000     0.0000     0.0000     0.0000     0.0000     0.0000     0.0000 </r>
        <r>    -4.6990     0.0000     0.0000     0.0000     0.0000     0.0000     0.0000     0.0000     0.0000     0.0000 </r>
        <r>    -4.6195     0.0000     0.0000     0.0000     0.0000     0.0000     0.0000     0.0000     0.0000     0.0000 </r>
        <r>    -4.5400     0.0000     0.0000     0.0000     0.0000     0.0000     0.0000     0.0000     0.0000     0.0000 </r>
        <r>    -4.4604     0.0000     0.0000     0.0000     0.0000     0.0000     0.0000     0.0000     0.0000     0.0000 </r>
        <r>    -4.3809     0.0000     0.0000     0.0000     0.0000     0.0000     0.0000     0.0000     0.0000     0.0000 </r>
        <r>    -4.3013     0.0000     0.0000     0.0000     0.0000     0.0000     0.0000     0.0000     0.0000     0.0000 </r>
        <r>    -4.2218     0.0000     0.0000     0.0000     0.0000     0.0000     0.0000     0.0000     0.0000     0.0000 </r>
        <r>    -4.1423     0.0000     0.0000     0.0000     0.0000     0.0000     0.0000     0.0000     0.0000     0.0000 </r>
        <r>    -4.0627     0.0000     0.0000     0.0000     0.0000     0.0000     0.0000     0.0000     0.0000     0.0000 </r>
        <r>    -3.9832     0.0000     0.0000     0.0000     0.0000     0.0000     0.0000     0.0000     0.0000     0.0000 </r>
        <r>    -3.9036     0.0000     0.0000     0.0000     0.0000     0.0000     0.0000     0.0000     0.0000     0.0000 </r>
        <r>    -3.8241     0.0000     0.0000     0.0000     0.0000     0.0000     0.0000     0.0000     0.0000     0.0000 </r>
        <r>    -3.7446     0.0000     0.0000     0.0000     0.0000     0.0000     0.0000     0.0000     0.0000     0.0000 </r>
        <r>    -3.6650     0.0000     0.0000     0.0000     0.0000     0.0000     0.0000     0.0000     0.0000     0.0000 </r>
        <r>    -3.5855     0.0000     0.0000     0.0000     0.0000     0.0000     0.0000     0.0000     0.0000     0.0000 </r>
        <r>    -3.5059     0.0000     0.0000     0.0000     0.0000     0.0000     0.0000     0.0000     0.0000     0.0000 </r>
        <r>    -3.4264     0.0000     0.0000     0.0000     0.0000     0.0000     0.0000     0.0000     0.0000     0.0000 </r>
        <r>    -3.3468     0.0000     0.0000     0.0000     0.0000     0.0000     0.0000     0.0000     0.0000     0.0000 </r>
        <r>    -3.2673     0.0000     0.0000     0.0000     0.0000     0.0000     0.0000     0.0000     0.0000     0.0000 </r>
        <r>    -3.1878     0.0000     0.0000     0.0000     0.0000     0.0000     0.0000     0.0000     0.0000     0.0000 </r>
        <r>    -3.1082     0.0000     0.0000     0.0000     0.0000     0.0000     0.0000     0.0000     0.0000     0.0000 </r>
        <r>    -3.0287     0.0000     0.0000     0.0000     0.0000     0.0000     0.0000     0.0000     0.0000     0.0000 </r>
        <r>    -2.9491     0.0000     0.0000     0.0000     0.0000     0.0000     0.0000     0.0000     0.0000     0.0000 </r>
        <r>    -2.8696     0.0000     0.0000     0.0000     0.0000     0.0000     0.0000     0.0000     0.0000     0.0000 </r>
        <r>    -2.7901     0.0000     0.0000     0.0000     0.0000     0.0000     0.0000     0.0000     0.0000     0.0000 </r>
        <r>    -2.7105     0.0000     0.0000     0.0000     0.0000     0.0000     0.0000     0.0000     0.0000     0.0000 </r>
        <r>    -2.6310     0.0000     0.0000     0.0000     0.0000     0.0000     0.0000     0.0000     0.0000     0.0000 </r>
        <r>    -2.5514     0.0000     0.0000     0.0000     0.0000     0.0000     0.0000     0.0000     0.0000     0.0000 </r>
        <r>    -2.4719     0.0000     0.0000     0.0000     0.0000     0.0000     0.0000     0.0000     0.0000     0.0000 </r>
        <r>    -2.3924     0.0000     0.0000     0.0000     0.0000     0.0000     0.0000     0.0000     0.0000     0.0000 </r>
        <r>    -2.3128     0.0000     0.0000     0.0000     0.0000     0.0000     0.0000     0.0000     0.0000     0.0000 </r>
        <r>    -2.2333     0.0000     0.0000     0.0000     0.0000     0.0000     0.0000     0.0000     0.0000     0.0000 </r>
        <r>    -2.1537     0.0000     0.0000     0.0000     0.0000     0.0000     0.0000     0.0000     0.0000     0.0000 </r>
        <r>    -2.0742     0.0000     0.0000     0.0000     0.0000     0.0000     0.0000     0.0000     0.0000     0.0000 </r>
        <r>    -1.9946     0.0000     0.0000     0.0000     0.0000     0.0000     0.0000     0.0000     0.0000     0.0000 </r>
        <r>    -1.9151     0.0000     0.0000     0.0000     0.0000     0.0000     0.0000     0.0000     0.0000     0.0000 </r>
        <r>    -1.8356     0.0000     0.0000     0.0000     0.0000     0.0000     0.0000     0.0000     0.0000     0.0000 </r>
[...]
        <r>     4.2096     0.0002     0.0003     0.0011     0.0010     0.0328     0.0389     0.0001     0.0368     0.0002 </r>
        <r>     4.2891     0.0004     0.0005     0.0020     0.0019     0.0731     0.0690     0.0002     0.0663     0.0004 </r>
        <r>     4.3686     0.0000     0.0000     0.0001     0.0001     0.0047     0.0034     0.0000     0.0034     0.0000 </r>
        <r>     4.4482     0.0000     0.0001     0.0000     0.0002     0.0000     0.0001     0.0011     0.0000     0.0017 </r>
        <r>     4.5277     0.0000     0.0004     0.0000     0.0009     0.0000     0.0003     0.0054     0.0000     0.0081 </r>
        <r>     4.6073     0.0000     0.0001     0.0000     0.0001     0.0000     0.0000     0.0008     0.0000     0.0012 </r>
        <r>     4.6868     0.0001     0.0019     0.0008     0.0023     0.0000     0.0000     0.0004     0.0000     0.0008 </r>
        <r>     4.7664     0.0055     0.0695     0.0276     0.0917     0.0002     0.0001     0.0147     0.0001     0.0298 </r>
        <r>     4.8459     0.0112     0.0669     0.0444     0.0955     0.0010     0.0012     0.0147     0.0027     0.0326 </r>
        <r>     4.9254     0.0960     0.0246     0.0891     0.0168     0.0038     0.0054     0.0480     0.0125     0.0542 </r>
        <r>     5.0050     0.0499     0.0423     0.0177     0.0054     0.0005     0.0009     0.2646     0.0018     0.2361 </r>
        <r>     5.0845     0.0016     0.0054     0.0030     0.0004     0.0000     0.0000     0.1065     0.0000     0.0809 </r>
        <r>     5.1641     0.0000     0.0000     0.0000     0.0000     0.0000     0.0000     0.0014     0.0000     0.0010 </r>
        <r>     5.2436     0.0000     0.0000     0.0000     0.0000     0.0000     0.0000     0.0000     0.0000     0.0000 </r>
        <r>     5.3231     0.0000     0.0000     0.0000     0.0000     0.0000     0.0000     0.0000     0.0000     0.0000 </r>
        <r>     5.4027     0.0000     0.0000     0.0000     0.0000     0.0000     0.0000     0.0000     0.0000     0.0000 </r>
        <r>     5.4822     0.0000     0.0000     0.0000     0.0000     0.0000     0.0000     0.0000     0.0000     0.0000 </r>
        <r>     5.5618     0.0000     0.0000     0.0000     0.0000     0.0000     0.0000     0.0000     0.0000     0.0000 </r>
        <r>     5.6413     0.0000     0.0000     0.0000     0.0000     0.0000     0.0000     0.0000     0.0000     0.0000 </r>
        <r>     5.7208     0.0000     0.0000     0.0000     0.0000     0.0000     0.0000     0.0000     0.0000     0.0000 </r>
        <r>     5.8004     0.0000     0.0000     0.0000     0.0000     0.0000     0.0000     0.0000     0.0000     0.0000 </r>
        <r>     5.8799     0.0000     0.0000     0.0000     0.0000     0.0000     0.0000     0.0000     0.0000     0.0000 </r>
        <r>     5.9595     0.0000     0.0000     0.0000     0.0000     0.0000     0.0000     0.0000     0.0000     0.0000 </r>
        <r>     6.0390     0.0000     0.0000     0.0000     0.0000     0.0000     0.0000     0.0000     0.0000     0.0000 </r>
        <r>     6.1186     0.0000     0.0000     0.0000     0.0000     0.0000     0.0000     0.0000     0.0000     0.0000 </r>
        <r>     6.1981     0.0000     0.0000     0.0000     0.0000     0.0000     0.0000     0.0000     0.0000     0.0000 </r>
        <r>     6.2776     0.0000     0.0001     0.0000     0.0003     0.0005     0.0004     0.0000     0.0001     0.0000 </r>
        <r>     6.3572     0.0063     0.0105     0.0000     0.0185     0.0370     0.0412     0.0005     0.0191     0.0040 </r>
        <r>     6.4367     0.0333     0.0196     0.0001     0.0306     0.0701     0.1201     0.0027     0.0829     0.0134 </r>
        <r>     6.5163     0.0059     0.0014     0.0000     0.0015     0.0052     0.0158     0.0005     0.0138     0.0019 </r>
        <r>     6.5958     0.0000     0.0000     0.0000     0.0000     0.0000     0.0001     0.0001     0.0001     0.0000 </r>
        <r>     6.6753     0.0013     0.0005     0.0032     0.0009     0.0003     0.0075     0.0218     0.0049     0.0001 </r>
        <r>     6.7549     0.0045     0.0017     0.0110     0.0032     0.0011     0.0261     0.0762     0.0172     0.0003 </r>
        <r>     6.8344     0.0005     0.0002     0.0012     0.0003     0.0001     0.0028     0.0081     0.0018     0.0000 </r>
        <r>     6.9140     0.0000     0.0000     0.0000     0.0000     0.0000     0.0000     0.0000     0.0000     0.0000 </r>
        <r>     6.9935     0.0000     0.0000     0.0000     0.0000     0.0000     0.0000     0.0000     0.0000     0.0000 </r>
        <r>     7.0730     0.0000     0.0000     0.0000     0.0000     0.0000     0.0000     0.0000     0.0000     0.0000 </r>
        <r>     7.1526     0.0000     0.0000     0.0000     0.0000     0.0000     0.0000     0.0000     0.0000     0.0000 </r>
        <r>     7.2321     0.0000     0.0000     0.0000     0.0000     0.0000     0.0000     0.0000     0.0000     0.0000 </r>
        <r>     7.3117     0.0000     0.0000     0.0000     0.0000     0.0000     0.0000     0.0000     0.0000     0.0000 </r>
        <r>     7.3912     0.0000     0.0000     0.0000     0.0000     0.0000     0.0000     0.0000     0.0000     0.0000 </r>
        <r>     7.4708     0.0000     0.0000     0.0000     0.0000     0.0000     0.0000     0.0000     0.0000     0.0000 </r>
        <r>     7.5503     0.0000     0.0000     0.0000     0.0000     0.0000     0.0000     0.0000     0.0000     0.0000 </r>
        <r>     7.6298     0.0000     0.0000     0.0000     0.0000     0.0000     0.0000     0.0000     0.0000     0.0000 </r>
        <r>     7.7094     0.0000     0.0000     0.0000     0.0000     0.0000     0.0000     0.0000     0.0000     0.0000 </r>
        <r>     7.7889     0.0000     0.0000     0.0000     0.0000     0.0000     0.0000     0.0000     0.0000     0.0000 </r>
       </set>
      </set>
     </set>
    </array>
   </partial>
  </dos>
  <projected>
   <eigenvalues>
    <array>
     <dimension dim="1">band</dimension>
     <dimension dim="2">kpoint</dimension>
     <dimension dim="3">spin</dimension>
     <field>eigene</field>
     <field>occ</field>
     <set>
      <set comment="spin 1">
       <set comment="kpoint 1">
        <r>  -14.9888    1.0000 </r>
        <r>   -5.7019    1.0000 </r>
        <r>   -5.7019    1.0000 </r>
        <r>   -5.7019    1.0000 </r>
        <r>   -0.6752    0.0000 </r>
        <r>    0.8738    0.0000 </r>
        <r>    0.8742    0.0000 </r>
        <r>    1.0219    0.0000 </r>
        <r>    1.0625    0.0000 </r>
        <r>    1.0655    0.0000 </r>
        <r>    1.0683    0.0000 </r>
        <r>    1.6872    0.0000 </r>
        <r>    1.6874    0.0000 </r>
        <r>    1.6879    0.0000 </r>
        <r>    2.4947    0.0000 </r>
        <r>    2.4963    0.0000 </r>
        <r>    2.5981    0.0000 </r>
        <r>    2.6035    0.0000 </r>
        <r>    2.6202    0.0000 </r>
        <r>    2.6821    0.0000 </r>
        <r>    2.6856    0.0000 </r>
        <r>    2.8073    0.0000 </r>
        <r>    2.8377    0.0000 </r>
        <r>    3.6736    0.0000 </r>
        <r>    3.6757    0.0000 </r>
        <r>    3.6779    0.0000 </r>
        <r>    3.8578    0.0000 </r>
        <r>    3.9320    0.0000 </r>
        <r>    3.9323    0.0000 </r>
        <r>    4.2054    0.0000 </r>
        <r>    4.2396    0.0000 </r>
        <r>    4.3420    0.0000 </r>
        <r>    4.3793    0.0000 </r>
        <r>    5.3774    0.0000 </r>
        <r>    5.4333    0.0000 </r>
        <r>    6.2880    0.0000 </r>
       </set>
      </set>
      <set comment="spin 2">
       <set comment="kpoint 1">
        <r>  -12.7134    1.0000 </r>
        <r>   -3.4047    0.0000 </r>
        <r>   -3.4047    0.0000 </r>
        <r>   -3.4047    0.0000 </r>
        <r>    0.0481    0.0000 </r>
        <r>    1.5140    0.0000 </r>
        <r>    1.5140    0.0000 </r>
        <r>    1.6440    0.0000 </r>
        <r>    1.6954    0.0000 </r>
        <r>    1.6962    0.0000 </r>
        <r>    1.6965    0.0000 </r>
        <r>    2.7002    0.0000 </r>
        <r>    2.7009    0.0000 </r>
        <r>    2.7022    0.0000 </r>
        <r>    2.9771    0.0000 </r>
        <r>    2.9778    0.0000 </r>
        <r>    3.0966    0.0000 </r>
        <r>    3.0978    0.0000 </r>
        <r>    3.1056    0.0000 </r>
        <r>    3.3104    0.0000 </r>
        <r>    3.3142    0.0000 </r>
        <r>    3.3277    0.0000 </r>
        <r>    3.4532    0.0000 </r>
        <r>    4.2227    0.0000 </r>
        <r>    4.2235    0.0000 </r>
        <r>    4.2284    0.0000 </r>
        <r>    4.4842    0.0000 </r>
        <r>    4.7640    0.0000 </r>
        <r>    4.7675    0.0000 </r>
        <r>    4.8810    0.0000 </r>
        <r>    4.9096    0.0000 </r>
        <r>    4.9577    0.0000 </r>
        <r>    4.9950    0.0000 </r>
        <r>    6.3683    0.0000 </r>
        <r>    6.3982    0.0000 </r>
        <r>    6.7043    0.0000 </r>
       </set>
      </set>
     </set>
    </array>
   </eigenvalues>
   <array>
    <dimension dim="1">ion</dimension>
    <dimension dim="2">band</dimension>
    <dimension dim="3">kpoint</dimension>
    <dimension dim="4">spin</dimension>
    <field>    s</field>
    <field>   py</field>
    <field>   pz</field>
    <field>   px</field>
    <field>  dxy</field>
    <field>  dyz</field>
    <field>  dz2</field>
    <field>  dxz</field>
    <field>x2-y2</field>
    <set>
     <set comment="spin1">
      <set comment="kpoint 1">
       <set comment="band 1">
        <r>  0.6674  0.0000  0.0000  0.0000  0.0000  0.0000  0.0000  0.0000  0.0000 </r>
       </set>
       <set comment="band 2">
        <r>  0.0000  0.3177  0.0553  0.0426  0.0000  0.0000  0.0000  0.0000  0.0000 </r>
       </set>
       <set comment="band 3">
        <r>  0.0000  0.0586  0.3567  0.0004  0.0000  0.0000  0.0000  0.0000  0.0000 </r>
       </set>
       <set comment="band 4">
        <r>  0.0000  0.0394  0.0036  0.3724  0.0000  0.0000  0.0000  0.0000  0.0000 </r>
       </set>
       <set comment="band 5">
        <r>  0.0212  0.0000  0.0000  0.0000  0.0000  0.0000  0.0000  0.0000  0.0000 </r>
       </set>
       <set comment="band 6">
        <r>  0.0000  0.0000  0.0000  0.0000  0.0000  0.0000  0.0032  0.0000  0.0024 </r>
       </set>
       <set comment="band 7">
        <r>  0.0000  0.0000  0.0000  0.0000  0.0000  0.0000  0.0024  0.0000  0.0032 </r>
       </set>
       <set comment="band 8">
        <r>  0.0000  0.0098  0.0153  0.0045  0.0000  0.0000  0.0000  0.0000  0.0000 </r>
       </set>
       <set comment="band 9">
        <r>  0.0073  0.0042  0.0002  0.0154  0.0000  0.0000  0.0000  0.0000  0.0000 </r>
       </set>
       <set comment="band 10">
        <r>  0.0074  0.0126  0.0057  0.0006  0.0000  0.0000  0.0000  0.0000  0.0000 </r>
       </set>
       <set comment="band 11">
        <r>  0.0075  0.0023  0.0080  0.0093  0.0000  0.0000  0.0000  0.0000  0.0000 </r>
       </set>
       <set comment="band 12">
        <r>  0.0000  0.0000  0.0000  0.0000  0.0003  0.0010  0.0000  0.0173  0.0000 </r>
       </set>
       <set comment="band 13">
        <r>  0.0000  0.0000  0.0000  0.0000  0.0137  0.0036  0.0000  0.0009  0.0000 </r>
       </set>
       <set comment="band 14">
        <r>  0.0000  0.0000  0.0000  0.0001  0.0043  0.0137  0.0000  0.0003  0.0000 </r>
       </set>
       <set comment="band 15">
        <r>  0.0000  0.0000  0.0000  0.0000  0.0000  0.0000  0.0006  0.0000  0.0086 </r>
       </set>
       <set comment="band 16">
        <r>  0.0000  0.0000  0.0000  0.0000  0.0000  0.0000  0.0084  0.0000  0.0005 </r>
       </set>
       <set comment="band 17">
        <r>  0.0000  0.0001  0.0000  0.0017  0.0000  0.0000  0.0000  0.0000  0.0000 </r>
       </set>
       <set comment="band 18">
        <r>  0.0000  0.0011  0.0034  0.0015  0.0000  0.0000  0.0002  0.0000  0.0000 </r>
       </set>
       <set comment="band 19">
        <r>  0.0000  0.0026  0.0003  0.0051  0.0000  0.0000  0.0000  0.0000  0.0000 </r>
       </set>
       <set comment="band 20">
        <r>  0.0008  0.0001  0.0211  0.0084  0.0000  0.0000  0.0001  0.0000  0.0001 </r>
       </set>
       <set comment="band 21">
        <r>  0.0004  0.0196  0.0060  0.0079  0.0000  0.0000  0.0000  0.0000  0.0000 </r>
       </set>
       <set comment="band 22">
        <r>  0.0104  0.0046  0.0017  0.0082  0.0000  0.0000  0.0000  0.0000  0.0000 </r>
       </set>
       <set comment="band 23">
        <r>  0.0126  0.0074  0.0025  0.0015  0.0000  0.0000  0.0000  0.0000  0.0000 </r>
       </set>
       <set comment="band 24">
        <r>  0.0000  0.0001  0.0000  0.0000  0.0031  0.0053  0.0000  0.0067  0.0000 </r>
       </set>
       <set comment="band 25">
        <r>  0.0000  0.0000  0.0000  0.0000  0.0097  0.0049  0.0000  0.0000  0.0000 </r>
       </set>
       <set comment="band 26">
        <r>  0.0000  0.0000  0.0000  0.0000  0.0020  0.0047  0.0000  0.0080  0.0003 </r>
       </set>
       <set comment="band 27">
        <r>  0.0001  0.0001  0.0001  0.0006  0.0000  0.0000  0.0150  0.0000  0.0000 </r>
       </set>
       <set comment="band 28">
        <r>  0.0000  0.0000  0.0003  0.0001  0.0000  0.0000  0.0243  0.0000  0.0155 </r>
       </set>
       <set comment="band 29">
        <r>  0.0000  0.0001  0.0000  0.0001  0.0000  0.0000  0.0113  0.0000  0.0340 </r>
       </set>
       <set comment="band 30">
        <r>  0.0011  0.0043  0.0000  0.0014  0.0009  0.0000  0.0001  0.0004  0.0006 </r>
       </set>
       <set comment="band 31">
        <r>  0.0014  0.0017  0.0026  0.0008  0.0000  0.0001  0.0000  0.0004  0.0004 </r>
       </set>
       <set comment="band 32">
        <r>  0.0001  0.0006  0.0029  0.0029  0.0074  0.0001  0.0001  0.0012  0.0000 </r>
       </set>
       <set comment="band 33">
        <r>  0.0063  0.0000  0.0013  0.0015  0.0000  0.0001  0.0001  0.0000  0.0000 </r>
       </set>
       <set comment="band 34">
        <r>  0.0000  0.0001  0.0000  0.0001  0.0001  0.0545  0.0000  0.0031  0.0000 </r>
       </set>
       <set comment="band 35">
        <r>  0.0030  0.0004  0.0002  0.0005  0.0348  0.0001  0.0001  0.0000  0.0000 </r>
       </set>
       <set comment="band 36">
        <r>  0.0004  0.0002  0.0004  0.0000  0.0001  0.0011  0.0008  0.0132  0.0000 </r>
       </set>
      </set>
     </set>
     <set comment="spin2">
      <set comment="kpoint 1">
       <set comment="band 1">
        <r>  0.6599  0.0000  0.0000  0.0000  0.0000  0.0000  0.0000  0.0000  0.0000 </r>
       </set>
       <set comment="band 2">
        <r>  0.0000  0.2811  0.0708  0.0394  0.0000  0.0000  0.0000  0.0000  0.0000 </r>
       </set>
       <set comment="band 3">
        <r>  0.0000  0.0002  0.1528  0.2397  0.0000  0.0000  0.0000  0.0000  0.0000 </r>
       </set>
       <set comment="band 4">
        <r>  0.0000  0.1103  0.1689  0.1134  0.0000  0.0000  0.0000  0.0000  0.0000 </r>
       </set>
       <set comment="band 5">
        <r>  0.0124  0.0000  0.0000  0.0000  0.0000  0.0000  0.0000  0.0000  0.0000 </r>
       </set>
       <set comment="band 6">
        <r>  0.0000  0.0000  0.0000  0.0000  0.0000  0.0000  0.0008  0.0000  0.0012 </r>
       </set>
       <set comment="band 7">
        <r>  0.0000  0.0000  0.0000  0.0000  0.0000  0.0000  0.0012  0.0000  0.0008 </r>
       </set>
       <set comment="band 8">
        <r>  0.0210  0.0000  0.0000  0.0000  0.0000  0.0000  0.0000  0.0000  0.0000 </r>
       </set>
       <set comment="band 9">
        <r>  0.0000  0.0000  0.0117  0.0093  0.0000  0.0000  0.0000  0.0000  0.0000 </r>
       </set>
       <set comment="band 10">
        <r>  0.0000  0.0180  0.0014  0.0018  0.0000  0.0000  0.0000  0.0000  0.0000 </r>
       </set>
       <set comment="band 11">
        <r>  0.0000  0.0040  0.0072  0.0095  0.0000  0.0000  0.0000  0.0000  0.0000 </r>
       </set>
       <set comment="band 12">
        <r>  0.0000  0.0000  0.0000  0.0000  0.0000  0.0068  0.0000  0.0020  0.0000 </r>
       </set>
       <set comment="band 13">
        <r>  0.0000  0.0000  0.0000  0.0000  0.0014  0.0015  0.0000  0.0060  0.0000 </r>
       </set>
       <set comment="band 14">
        <r>  0.0000  0.0000  0.0000  0.0000  0.0075  0.0005  0.0000  0.0009  0.0000 </r>
       </set>
       <set comment="band 15">
        <r>  0.0000  0.0000  0.0000  0.0000  0.0000  0.0000  0.0038  0.0000  0.0002 </r>
       </set>
       <set comment="band 16">
        <r>  0.0000  0.0001  0.0000  0.0000  0.0000  0.0000  0.0001  0.0000  0.0037 </r>
       </set>
       <set comment="band 17">
        <r>  0.0000  0.0000  0.0000  0.0000  0.0000  0.0000  0.0000  0.0000  0.0000 </r>
       </set>
       <set comment="band 18">
        <r>  0.0000  0.0000  0.0001  0.0002  0.0000  0.0000  0.0000  0.0000  0.0000 </r>
       </set>
       <set comment="band 19">
        <r>  0.0000  0.0007  0.0000  0.0003  0.0000  0.0000  0.0000  0.0000  0.0000 </r>
       </set>
       <set comment="band 20">
        <r>  0.0001  0.0331  0.0046  0.0007  0.0000  0.0000  0.0000  0.0000  0.0000 </r>
       </set>
       <set comment="band 21">
        <r>  0.0001  0.0020  0.0019  0.0347  0.0000  0.0000  0.0000  0.0000  0.0000 </r>
       </set>
       <set comment="band 22">
        <r>  0.0000  0.0030  0.0312  0.0034  0.0000  0.0000  0.0001  0.0001  0.0000 </r>
       </set>
       <set comment="band 23">
        <r>  0.0239  0.0001  0.0000  0.0002  0.0000  0.0000  0.0000  0.0000  0.0000 </r>
       </set>
       <set comment="band 24">
        <r>  0.0000  0.0001  0.0002  0.0002  0.0001  0.0067  0.0000  0.0021  0.0000 </r>
       </set>
       <set comment="band 25">
        <r>  0.0000  0.0000  0.0001  0.0000  0.0000  0.0021  0.0000  0.0064  0.0000 </r>
       </set>
       <set comment="band 26">
        <r>  0.0000  0.0000  0.0000  0.0000  0.0087  0.0001  0.0000  0.0000  0.0000 </r>
       </set>
       <set comment="band 27">
        <r>  0.0000  0.0000  0.0000  0.0001  0.0000  0.0000  0.0006  0.0000  0.0009 </r>
       </set>
       <set comment="band 28">
        <r>  0.0003  0.0087  0.0039  0.0034  0.0000  0.0000  0.0017  0.0000  0.0022 </r>
       </set>
       <set comment="band 29">
        <r>  0.0006  0.0023  0.0004  0.0116  0.0000  0.0000  0.0007  0.0000  0.0027 </r>
       </set>
       <set comment="band 30">
        <r>  0.0003  0.0009  0.0095  0.0012  0.0004  0.0006  0.0001  0.0013  0.0016 </r>
       </set>
       <set comment="band 31">
        <r>  0.0116  0.0007  0.0000  0.0003  0.0000  0.0000  0.0015  0.0000  0.0002 </r>
       </set>
       <set comment="band 32">
        <r>  0.0001  0.0041  0.0001  0.0003  0.0000  0.0000  0.0129  0.0000  0.0148 </r>
       </set>
       <set comment="band 33">
        <r>  0.0002  0.0002  0.0006  0.0000  0.0000  0.0000  0.0190  0.0000  0.0133 </r>
       </set>
       <set comment="band 34">
        <r>  0.0002  0.0021  0.0000  0.0039  0.0074  0.0062  0.0000  0.0016  0.0005 </r>
       </set>
       <set comment="band 35">
        <r>  0.0034  0.0004  0.0000  0.0001  0.0016  0.0079  0.0003  0.0077  0.0010 </r>
       </set>
       <set comment="band 36">
        <r>  0.0005  0.0002  0.0012  0.0004  0.0001  0.0029  0.0085  0.0019  0.0000 </r>
       </set>
      </set>
     </set>
    </set>
   </array>
  </projected>
 </calculation>
 <structure name="finalpos" >
  <crystal>
   <varray name="basis" >
    <v>      10.00000000       0.00000000       0.00000000 </v>
    <v>       0.00000000      10.00000000       0.00000000 </v>
    <v>       0.00000000       0.00000000      10.00000000 </v>
   </varray>
   <i name="volume">   1000.00000000 </i>
   <varray name="rec_basis" >
    <v>       0.10000000       0.00000000       0.00000000 </v>
    <v>       0.00000000       0.10000000       0.00000000 </v>
    <v>       0.00000000       0.00000000       0.10000000 </v>
   </varray>
  </crystal>
  <varray name="positions" >
   <v>       0.50000000       0.50000000       0.50000000 </v>
  </varray>
 </structure>
</modeling>
