       N       E                     dE             d eps       ncg     rms          ort
DAV:   1     0.295013350446E+02    0.29501E+02   -0.14235E+03    36   0.107E+02
DAV:   2     0.148422465002E+02   -0.14659E+02   -0.14651E+02    36   0.142E+01
DAV:   3     0.104900215270E+02   -0.43522E+01   -0.43169E+01    36   0.872E+00
DAV:   4     0.593486640573E+01   -0.45552E+01   -0.45537E+01    36   0.448E+00
DAV:   5     0.266019782844E+01   -0.32747E+01   -0.32747E+01    36   0.677E+00
SDA:   6     0.334908774334E+01    0.68889E+00   -0.37346E+01    36   0.934E+01 0.000E+00
DMP:   7     0.799883431315E+00   -0.25492E+01   -0.12080E+01    36   0.179E+01 0.321E+01
DMP:   8     0.150685978604E+00   -0.64920E+00   -0.22317E+00    36   0.588E+00-0.792E-01
DMP:   9     0.140517903655E-01   -0.13663E+00   -0.15522E+00    36   0.396E+00-0.197E-01
DMP:  10    -0.869110845010E-01   -0.10096E+00   -0.64912E-01    36   0.124E+00 0.996E-01
DMP:  11    -0.125302878347E+00   -0.38392E-01   -0.23223E-01    36   0.478E-01 0.270E-01
DMP:  12    -0.143638054237E+00   -0.18335E-01   -0.23801E-01    36   0.442E-01 0.400E-01
DMP:  13    -0.617751744980E+00   -0.47411E+00   -0.17250E+01    36   0.325E+01 0.279E+01
DMP:  14    -0.129735030540E+01   -0.67960E+00   -0.18679E-01    36   0.338E-01 0.337E-01
DMP:  15    -0.130876096006E+01   -0.11411E-01   -0.78493E-02    36   0.118E-01 0.204E-01
DMP:  16    -0.131498516033E+01   -0.62242E-02   -0.39812E-02    36   0.557E-02 0.115E-01
DMP:  17    -0.131818711321E+01   -0.32020E-02   -0.19429E-02    36   0.255E-02 0.604E-02
DMP:  18    -0.131974687904E+01   -0.15598E-02   -0.88636E-03    36   0.110E-02 0.293E-02
DMP:  19    -0.132045910463E+01   -0.71223E-03   -0.39232E-03    36   0.470E-03 0.134E-02
DMP:  20    -0.132077527379E+01   -0.31617E-03   -0.17413E-03    36   0.208E-03 0.595E-03
DMP:  21    -0.132091655413E+01   -0.14128E-03   -0.77476E-04    36   0.916E-04 0.267E-03
DMP:  22    -0.132097947233E+01   -0.62918E-04   -0.33755E-04    36   0.393E-04 0.118E-03
DMP:  23    -0.132100693001E+01   -0.27458E-04   -0.14652E-04    36   0.171E-04 0.511E-04
   1 F= -.13210069E+01 E0= -.13210069E+01  d E =-.132101E+01  mag=     3.0000
