<?xml version="1.0" encoding="ISO-8859-1"?>
<modeling>
 <generator>
  <i name="program" type="string">vasp </i>
  <i name="version" type="string">5.4.4.18Apr17-6-g9f103f2a35  </i>
  <i name="subversion" type="string">(build Nov 08 2019 15:19:53) gamma-only         parallel </i>
  <i name="platform" type="string">LinuxIFC </i>
  <i name="date" type="string">2020 11 30 </i>
  <i name="time" type="string">09:30:40 </i>
 </generator>
 <incar>
  <i type="string" name="PREC">accurate</i>
  <i type="string" name="ALGO"> D</i>
  <i type="int" name="ISPIN">     2</i>
  <i type="int" name="NELM">   300</i>
  <i type="int" name="IBRION">     2</i>
  <i name="EDIFF">      0.00005000</i>
  <i type="int" name="NSW">    99</i>
  <i type="int" name="ISIF">     2</i>
  <i name="ENCUT">    520.00000000</i>
  <v name="MAGMOM">      0.60000000</v>
  <i type="string" name="LREAL"> Auto</i>
  <i type="int" name="ISMEAR">     0</i>
  <i name="SIGMA">      0.05000000</i>
  <i type="logical" name="LWAVE"> F  </i>
  <i type="int" name="LORBIT">    11</i>
  <i type="logical" name="LASPH"> T  </i>
  <v type="int" name="KPOINT_BSE">    -1     0     0     0</v>
  <i type="int" name="NELM">   300</i>
  <i type="logical" name="LASPH"> T  </i>
 </incar>
 <structure name="primitive_cell" >
  <crystal>
   <varray name="basis" >
    <v>      10.00000000       0.00000000       0.00000000 </v>
    <v>       0.00000000      10.00000000       0.00000000 </v>
    <v>       0.00000000       0.00000000      10.00000000 </v>
   </varray>
   <i name="volume">   1000.00000000 </i>
   <varray name="rec_basis" >
    <v>       0.10000000       0.00000000       0.00000000 </v>
    <v>       0.00000000       0.10000000       0.00000000 </v>
    <v>       0.00000000       0.00000000       0.10000000 </v>
   </varray>
  </crystal>
  <varray name="positions" >
   <v>      -0.50000000      -0.50000000      -0.50000000 </v>
  </varray>
 </structure>
 <varray name="primitive_index" >
  <v type="int" >        1 </v>
 </varray>
 <kpoints>
  <generation param="Gamma">
   <v type="int" name="divisions">       1        1        1 </v>
   <v name="usershift">      0.00000000       0.00000000       0.00000000 </v>
   <v name="genvec1">      1.00000000       0.00000000       0.00000000 </v>
   <v name="genvec2">      0.00000000       1.00000000       0.00000000 </v>
   <v name="genvec3">      0.00000000       0.00000000       1.00000000 </v>
   <v name="shift">      0.00000000       0.00000000       0.00000000 </v>
  </generation>
  <varray name="kpointlist" >
   <v>       0.00000000       0.00000000       0.00000000 </v>
  </varray>
  <varray name="weights" >
   <v>       1.00000000 </v>
  </varray>
 </kpoints>
 <parameters>
  <separator name="general" >
   <i type="string" name="SYSTEM">unknown system</i>
   <i type="logical" name="LCOMPAT"> F  </i>
  </separator>
  <separator name="electronic" >
   <i type="string" name="PREC">accura</i>
   <i name="ENMAX">    520.00000000</i>
   <i name="ENAUG">    265.42700000</i>
   <i name="EDIFF">      0.00005000</i>
   <i type="int" name="IALGO">    53</i>
   <i type="int" name="IWAVPR">    11</i>
   <i type="int" name="NBANDS">    36</i>
   <i name="NELECT">      5.00000000</i>
   <i type="int" name="TURBO">     0</i>
   <i type="int" name="IRESTART">     0</i>
   <i type="int" name="NREBOOT">     0</i>
   <i type="int" name="NMIN">     0</i>
   <i name="EREF">      0.00000000</i>
   <separator name="electronic smearing" >
    <i type="int" name="ISMEAR">     0</i>
    <i name="SIGMA">      0.05000000</i>
    <i name="KSPACING">      0.50000000</i>
    <i type="logical" name="KGAMMA"> T  </i>
   </separator>
   <separator name="electronic projectors" >
    <i type="logical" name="LREAL"> T  </i>
    <v name="ROPT">     -0.00025000</v>
    <i type="int" name="LMAXPAW">  -100</i>
    <i type="int" name="LMAXMIX">     2</i>
    <i type="logical" name="NLSPLINE"> F  </i>
   </separator>
   <separator name="electronic startup" >
    <i type="int" name="ISTART">     0</i>
    <i type="int" name="ICHARG">     2</i>
    <i type="int" name="INIWAV">     1</i>
   </separator>
   <separator name="electronic spin" >
    <i type="int" name="ISPIN">     2</i>
    <i type="logical" name="LNONCOLLINEAR"> F  </i>
    <v name="MAGMOM">      0.60000000</v>
    <i name="NUPDOWN">     -1.00000000</i>
    <i type="logical" name="LSORBIT"> F  </i>
    <v name="SAXIS">      0.00000000      0.00000000      1.00000000</v>
    <i type="logical" name="LSPIRAL"> F  </i>
    <v name="QSPIRAL">      0.00000000      0.00000000      0.00000000</v>
    <i type="logical" name="LZEROZ"> F  </i>
   </separator>
   <separator name="electronic exchange-correlation" >
    <i type="logical" name="LASPH"> T  </i>
    <i type="logical" name="LMETAGGA"> F  </i>
   </separator>
   <separator name="electronic convergence" >
    <i type="int" name="NELM">   300</i>
    <i type="int" name="NELMDL">    -5</i>
    <i type="int" name="NELMIN">     2</i>
    <i name="ENINI">    520.00000000</i>
    <separator name="electronic convergence detail" >
     <i type="logical" name="LDIAG"> T  </i>
     <i type="logical" name="LSUBROT"> F  </i>
     <i name="WEIMIN">      0.00100000</i>
     <i name="EBREAK">      0.00000035</i>
     <i name="DEPER">      0.30000000</i>
     <i type="int" name="NRMM">     4</i>
     <i name="TIME">      0.40000000</i>
    </separator>
   </separator>
   <separator name="electronic mixer" >
    <i name="AMIX">      0.40000000</i>
    <i name="BMIX">      1.00000000</i>
    <i name="AMIN">      0.10000000</i>
    <i name="AMIX_MAG">      1.60000000</i>
    <i name="BMIX_MAG">      1.00000000</i>
    <separator name="electronic mixer details" >
     <i type="int" name="IMIX">     4</i>
     <i type="logical" name="MIXFIRST"> F  </i>
     <i type="int" name="MAXMIX">   -45</i>
     <i name="WC">    100.00000000</i>
     <i type="int" name="INIMIX">     1</i>
     <i type="int" name="MIXPRE">     1</i>
     <i type="int" name="MREMOVE">     5</i>
    </separator>
   </separator>
   <separator name="electronic dipolcorrection" >
    <i type="logical" name="LDIPOL"> F  </i>
    <i type="logical" name="LMONO"> F  </i>
    <i type="int" name="IDIPOL">     0</i>
    <i name="EPSILON">      1.00000000</i>
    <v name="DIPOL">   -100.00000000   -100.00000000   -100.00000000</v>
    <i name="EFIELD">      0.00000000</i>
   </separator>
  </separator>
  <separator name="grids" >
   <i type="int" name="NGX">    80</i>
   <i type="int" name="NGY">    80</i>
   <i type="int" name="NGZ">    80</i>
   <i type="int" name="NGXF">   160</i>
   <i type="int" name="NGYF">   160</i>
   <i type="int" name="NGZF">   160</i>
   <i type="logical" name="ADDGRID"> F  </i>
  </separator>
  <separator name="ionic" >
   <i type="int" name="NSW">    99</i>
   <i type="int" name="IBRION">     2</i>
   <i type="int" name="MDALGO">     0</i>
   <i type="int" name="ISIF">     2</i>
   <i name="PSTRESS">      0.00000000</i>
   <i name="EDIFFG">      0.00050000</i>
   <i type="int" name="NFREE">     1</i>
   <i name="POTIM">      0.50000000</i>
   <i name="SMASS">     -3.00000000</i>
   <i name="SCALEE">      1.00000000</i>
  </separator>
  <separator name="ionic md" >
   <i name="TEBEG">      0.00010000</i>
   <i name="TEEND">      0.00010000</i>
   <i type="int" name="NBLOCK">     1</i>
   <i type="int" name="KBLOCK">    99</i>
   <i type="int" name="NPACO">   256</i>
   <i name="APACO">     16.00000000</i>
  </separator>
  <separator name="symmetry" >
   <i type="int" name="ISYM">     2</i>
   <i name="SYMPREC">      0.00001000</i>
  </separator>
  <separator name="dos" >
   <i type="int" name="LORBIT">    11</i>
   <v name="RWIGS">     -1.00000000</v>
   <i type="int" name="NEDOS">   301</i>
   <i name="EMIN">     10.00000000</i>
   <i name="EMAX">    -10.00000000</i>
   <i name="EFERMI">      0.00000000</i>
  </separator>
  <separator name="writing" >
   <i type="int" name="NWRITE">     2</i>
   <i type="logical" name="LWAVE"> F  </i>
   <i type="logical" name="LDOWNSAMPLE"> F  </i>
   <i type="logical" name="LCHARG"> T  </i>
   <i type="logical" name="LPARD"> F  </i>
   <i type="logical" name="LVTOT"> F  </i>
   <i type="logical" name="LVHAR"> F  </i>
   <i type="logical" name="LELF"> F  </i>
   <i type="logical" name="LOPTICS"> F  </i>
   <v name="STM">      0.00000000      0.00000000      0.00000000      0.00000000      0.00000000      0.00000000      0.00000000</v>
  </separator>
  <separator name="performance" >
   <i type="int" name="NPAR">    36</i>
   <i type="int" name="NSIM">     4</i>
   <i type="int" name="NBLK">    -1</i>
   <i type="logical" name="LPLANE"> T  </i>
   <i type="logical" name="LSCALAPACK"> T  </i>
   <i type="logical" name="LSCAAWARE"> F  </i>
   <i type="logical" name="LSCALU"> F  </i>
   <i type="logical" name="LASYNC"> F  </i>
   <i type="logical" name="LORBITALREAL"> F  </i>
  </separator>
  <separator name="miscellaneous" >
   <i type="int" name="IDIOT">     3</i>
   <i type="int" name="ISPECIAL">     0</i>
   <i type="logical" name="LMUSIC"> F  </i>
   <v name="POMASS">    208.98000000</v>
   <v name="DARWINR">      0.00000000</v>
   <v name="DARWINV">      1.00000000</v>
   <i type="logical" name="LCORR"> T  </i>
  </separator>
  <i type="logical" name="GGA_COMPAT"> T  </i>
  <i type="logical" name="LBERRY"> F  </i>
  <i type="int" name="ICORELEVEL">     0</i>
  <i type="logical" name="LDAU"> F  </i>
  <i type="int" name="I_CONSTRAINED_M">     0</i>
  <separator name="electronic exchange-correlation" >
   <i type="string" name="GGA">--</i>
   <i type="int" name="VOSKOWN">     0</i>
   <i type="logical" name="LHFCALC"> F  </i>
   <i type="string" name="PRECFOCK"></i>
   <i type="logical" name="LSYMGRAD"> F  </i>
   <i type="logical" name="LHFONE"> F  </i>
   <i type="logical" name="LRHFCALC"> F  </i>
   <i type="logical" name="LTHOMAS"> F  </i>
   <i type="logical" name="LMODELHF"> F  </i>
   <i name="ENCUT4O">     -1.00000000</i>
   <i type="int" name="EXXOEP">     0</i>
   <i type="int" name="FOURORBIT">     0</i>
   <i name="AEXX">      0.00000000</i>
   <i name="HFALPHA">      0.00000000</i>
   <i name="MCALPHA">      0.00000000</i>
   <i name="ALDAX">      1.00000000</i>
   <i name="AGGAX">      1.00000000</i>
   <i name="ALDAC">      1.00000000</i>
   <i name="AGGAC">      1.00000000</i>
   <i type="int" name="NKREDX">     1</i>
   <i type="int" name="NKREDY">     1</i>
   <i type="int" name="NKREDZ">     1</i>
   <i type="logical" name="SHIFTRED"> F  </i>
   <i type="logical" name="ODDONLY"> F  </i>
   <i type="logical" name="EVENONLY"> F  </i>
   <i type="int" name="LMAXFOCK">     0</i>
   <i type="int" name="NMAXFOCKAE">     0</i>
   <i type="logical" name="LFOCKAEDFT"> F  </i>
   <i name="HFSCREEN">      0.00000000</i>
   <i name="HFSCREENC">      0.00000000</i>
   <i type="int" name="NBANDSGWLOW">     0</i>
  </separator>
  <separator name="vdW DFT" >
   <i type="logical" name="LUSE_VDW"> F  </i>
   <i name="Zab_VDW">     -0.84910000</i>
   <i name="PARAM1">      0.12340000</i>
   <i name="PARAM2">      1.00000000</i>
   <i name="PARAM3">      0.00000000</i>
  </separator>
  <separator name="model GW" >
   <i type="int" name="MODEL_GW">     0</i>
   <i name="MODEL_EPS0">    600.00000000</i>
   <i name="MODEL_ALPHA">      1.00000000</i>
  </separator>
  <separator name="linear response parameters" >
   <i type="logical" name="LEPSILON"> F  </i>
   <i type="logical" name="LRPA"> F  </i>
   <i type="logical" name="LNABLA"> F  </i>
   <i type="logical" name="LVEL"> F  </i>
   <i type="int" name="KINTER">     0</i>
   <i name="CSHIFT">      0.10000000</i>
   <i name="OMEGAMAX">     -1.00000000</i>
   <i name="DEG_THRESHOLD">      0.00200000</i>
   <i name="RTIME">     -0.10000000</i>
   <i name="WPLASMAI">      0.00000000</i>
   <v name="DFIELD">      0.00000000      0.00000000      0.00000000</v>
   <v name="WPLASMA">      0.00000000      0.00000000      0.00000000      0.00000000      0.00000000      0.00000000      0.00000000      0.00000000      0.00000000</v>
  </separator>
  <separator name="orbital magnetization" >
   <i type="logical" name="NUCIND"> F  </i>
   <v name="MAGPOS">      0.00000000      0.00000000      0.00000000</v>
   <i type="logical" name="LNICSALL"> T  </i>
   <i type="logical" name="ORBITALMAG"> F  </i>
   <i type="logical" name="LMAGBLOCH"> F  </i>
   <i type="logical" name="LCHIMAG"> F  </i>
   <i type="logical" name="LGAUGE"> T  </i>
   <i type="int" name="MAGATOM">     0</i>
   <v name="MAGDIPOL">      0.00000000      0.00000000      0.00000000</v>
   <v name="AVECCONST">      0.00000000      0.00000000      0.00000000</v>
  </separator>
  <separator name="response functions" >
   <i type="logical" name="LADDER"> F  </i>
   <i type="logical" name="LRPAFORCE"> F  </i>
   <i type="logical" name="LFXC"> F  </i>
   <i type="logical" name="LHARTREE"> T  </i>
   <i type="int" name="IBSE">     0</i>
   <v type="int" name="KPOINT">    -1     0     0     0</v>
   <i type="logical" name="LTCTE"> F  </i>
   <i type="logical" name="LTETE"> F  </i>
   <i type="logical" name="LTRIPLET"> F  </i>
   <i type="logical" name="LFXCEPS"> F  </i>
   <i type="logical" name="LFXHEG"> F  </i>
   <i type="int" name="NATURALO">     2</i>
   <i type="logical" name="L2ORDER"> F  </i>
   <i type="logical" name="LMP2LT"> F  </i>
   <i type="logical" name="LUSEW"> F  </i>
   <i name="ENCUTGW">     -2.00000000</i>
   <i name="ENCUTGWSOFT">     -2.00000000</i>
   <i name="ENCUTLF">     -1.00000000</i>
   <i type="int" name="LMAXMP2">    -1</i>
   <i name="SCISSOR">      0.00000000</i>
   <i type="int" name="NOMEGA">     0</i>
   <i type="int" name="NOMEGAR">     0</i>
   <i type="int" name="NBANDSGW">    -1</i>
   <i type="int" name="NBANDSO">    -1</i>
   <i type="int" name="NBANDSV">    -1</i>
   <i type="int" name="NELM">   300</i>
   <i type="int" name="NELMHF">     1</i>
   <i type="int" name="DIM">     3</i>
   <i type="int" name="ANTIRES">     0</i>
   <i name="OMEGAMAX">    -30.00000000</i>
   <i name="OMEGAMIN">    -30.00000000</i>
   <i name="OMEGATL">   -200.00000000</i>
   <i type="int" name="OMEGAGRID">   140</i>
   <i name="CSHIFT">     -0.10000000</i>
   <i type="logical" name="SELFENERGY"> F  </i>
   <i type="logical" name="LSPECTRAL"> F  </i>
   <i type="logical" name="LSPECTRALGW"> F  </i>
   <i type="logical" name="LSINGLES"> F  </i>
   <i type="logical" name="LFERMIGW"> F  </i>
   <i type="logical" name="ODDONLYGW"> F  </i>
   <i type="logical" name="EVENONLYGW"> F  </i>
   <i type="int" name="NKREDLFX">     1</i>
   <i type="int" name="NKREDLFY">     1</i>
   <i type="int" name="NKREDLFZ">     1</i>
   <i type="int" name="MAXMEM">  2800</i>
   <i type="int" name="TELESCOPE">     0</i>
   <i type="int" name="TAUPAR">     1</i>
   <i type="int" name="OMEGAPAR">    -1</i>
   <i name="LAMBDA">      1.00000000</i>
  </separator>
  <separator name="External order field" >
   <i name="OFIELD_KAPPA">      0.00000000</i>
   <v name="OFIELD_K">      0.00000000      0.00000000      0.00000000</v>
   <i name="OFIELD_Q6_NEAR">      0.00000000</i>
   <i name="OFIELD_Q6_FAR">      0.00000000</i>
   <i name="OFIELD_A">      0.00000000</i>
  </separator>
 </parameters>
 <atominfo>
  <atoms>       1 </atoms>
  <types>       1 </types>
  <array name="atoms" >
   <dimension dim="1">ion</dimension>
   <field type="string">element</field>
   <field type="int">atomtype</field>
   <set>
    <rc><c>Bi</c><c>   1</c></rc>
   </set>
  </array>
  <array name="atomtypes" >
   <dimension dim="1">type</dimension>
   <field type="int">atomspertype</field>
   <field type="string">element</field>
   <field>mass</field>
   <field>valence</field>
   <field type="string">pseudopotential</field>
   <set>
    <rc><c>   1</c><c>Bi</c><c>    208.98000000</c><c>      5.00000000</c><c>  PAW_PBE Bi 08Apr2002                  </c></rc>
   </set>
  </array>
 </atominfo>
 <structure name="initialpos" >
  <crystal>
   <varray name="basis" >
    <v>      10.00000000       0.00000000       0.00000000 </v>
    <v>       0.00000000      10.00000000       0.00000000 </v>
    <v>       0.00000000       0.00000000      10.00000000 </v>
   </varray>
   <i name="volume">   1000.00000000 </i>
   <varray name="rec_basis" >
    <v>       0.10000000       0.00000000       0.00000000 </v>
    <v>       0.00000000       0.10000000       0.00000000 </v>
    <v>       0.00000000       0.00000000       0.10000000 </v>
   </varray>
  </crystal>
  <varray name="positions" >
   <v>       0.50000000       0.50000000       0.50000000 </v>
  </varray>
 </structure>
 <calculation>
  <scstep>
   <time name="total">    0.83    0.84</time>
   <energy>
    <i name="alphaZ">      0.05998805 </i>
    <i name="ewald">    -51.07060001 </i>
    <i name="hartreedc">    -64.61684936 </i>
    <i name="XCdc">   -111.20806214 </i>
    <i name="pawpsdc">    225.06534939 </i>
    <i name="pawaedc">   -108.13461581 </i>
    <i name="eentropy">     -0.00000008 </i>
    <i name="bandstr">    -11.40711590 </i>
    <i name="atom">    150.81324090 </i>
    <i name="e_fr_energy">     29.50133504 </i>
    <i name="e_wo_entrp">     29.50133513 </i>
    <i name="e_0_energy">     29.50133509 </i>
   </energy>
  </scstep>
  <scstep>
   <time name="total">    0.34    0.34</time>
   <energy>
    <i name="e_fr_energy">     14.84224650 </i>
    <i name="e_wo_entrp">     14.86239690 </i>
    <i name="e_0_energy">     14.85232170 </i>
   </energy>
  </scstep>
  <scstep>
   <time name="total">    0.34    0.34</time>
   <energy>
    <i name="e_fr_energy">     10.49002153 </i>
    <i name="e_wo_entrp">     10.49073022 </i>
    <i name="e_0_energy">     10.49037587 </i>
   </energy>
  </scstep>
  <scstep>
   <time name="total">    0.34    0.34</time>
   <energy>
    <i name="e_fr_energy">      5.93486641 </i>
    <i name="e_wo_entrp">      5.93486641 </i>
    <i name="e_0_energy">      5.93486641 </i>
   </energy>
  </scstep>
  <scstep>
   <time name="total">    0.57    0.57</time>
   <energy>
    <i name="e_fr_energy">      2.66019783 </i>
    <i name="e_wo_entrp">      2.66021006 </i>
    <i name="e_0_energy">      2.66020395 </i>
   </energy>
  </scstep>
  <scstep>
   <time name="total">    1.05    1.05</time>
   <energy>
    <i name="e_fr_energy">      3.34908774 </i>
    <i name="e_wo_entrp">      3.34909541 </i>
    <i name="e_0_energy">      3.34909158 </i>
   </energy>
  </scstep>
  <scstep>
   <time name="total">    0.91    0.91</time>
   <energy>
    <i name="e_fr_energy">      0.79988343 </i>
    <i name="e_wo_entrp">      0.79991877 </i>
    <i name="e_0_energy">      0.79990110 </i>
   </energy>
  </scstep>
  <scstep>
   <time name="total">    0.92    0.92</time>
   <energy>
    <i name="e_fr_energy">      0.15068598 </i>
    <i name="e_wo_entrp">      0.15097550 </i>
    <i name="e_0_energy">      0.15083074 </i>
   </energy>
  </scstep>
  <scstep>
   <time name="total">    0.91    0.91</time>
   <energy>
    <i name="e_fr_energy">      0.01405179 </i>
    <i name="e_wo_entrp">      0.01574418 </i>
    <i name="e_0_energy">      0.01489798 </i>
   </energy>
  </scstep>
  <scstep>
   <time name="total">    0.91    0.91</time>
   <energy>
    <i name="e_fr_energy">     -0.08691108 </i>
    <i name="e_wo_entrp">     -0.08091556 </i>
    <i name="e_0_energy">     -0.08391332 </i>
   </energy>
  </scstep>
  <scstep>
   <time name="total">    0.94    0.94</time>
   <energy>
    <i name="e_fr_energy">     -0.12530288 </i>
    <i name="e_wo_entrp">     -0.11224826 </i>
    <i name="e_0_energy">     -0.11877557 </i>
   </energy>
  </scstep>
  <scstep>
   <time name="total">    0.91    0.91</time>
   <energy>
    <i name="e_fr_energy">     -0.14363805 </i>
    <i name="e_wo_entrp">     -0.11291990 </i>
    <i name="e_0_energy">     -0.12827898 </i>
   </energy>
  </scstep>
  <scstep>
   <time name="total">    0.91    0.91</time>
   <energy>
    <i name="e_fr_energy">     -0.61775174 </i>
    <i name="e_wo_entrp">     -0.61770749 </i>
    <i name="e_0_energy">     -0.61772962 </i>
   </energy>
  </scstep>
  <scstep>
   <time name="total">    0.90    0.90</time>
   <energy>
    <i name="e_fr_energy">     -1.29735031 </i>
    <i name="e_wo_entrp">     -1.29735031 </i>
    <i name="e_0_energy">     -1.29735031 </i>
   </energy>
  </scstep>
  <scstep>
   <time name="total">    0.89    0.90</time>
   <energy>
    <i name="e_fr_energy">     -1.30876096 </i>
    <i name="e_wo_entrp">     -1.30876096 </i>
    <i name="e_0_energy">     -1.30876096 </i>
   </energy>
  </scstep>
  <scstep>
   <time name="total">    0.92    0.92</time>
   <energy>
    <i name="e_fr_energy">     -1.31498516 </i>
    <i name="e_wo_entrp">     -1.31498516 </i>
    <i name="e_0_energy">     -1.31498516 </i>
   </energy>
  </scstep>
  <scstep>
   <time name="total">    0.91    0.91</time>
   <energy>
    <i name="e_fr_energy">     -1.31818711 </i>
    <i name="e_wo_entrp">     -1.31818711 </i>
    <i name="e_0_energy">     -1.31818711 </i>
   </energy>
  </scstep>
  <scstep>
   <time name="total">    0.90    0.90</time>
   <energy>
    <i name="e_fr_energy">     -1.31974688 </i>
    <i name="e_wo_entrp">     -1.31974688 </i>
    <i name="e_0_energy">     -1.31974688 </i>
   </energy>
  </scstep>
  <scstep>
   <time name="total">    0.89    0.89</time>
   <energy>
    <i name="e_fr_energy">     -1.32045910 </i>
    <i name="e_wo_entrp">     -1.32045910 </i>
    <i name="e_0_energy">     -1.32045910 </i>
   </energy>
  </scstep>
  <scstep>
   <time name="total">    0.92    0.92</time>
   <energy>
    <i name="e_fr_energy">     -1.32077527 </i>
    <i name="e_wo_entrp">     -1.32077527 </i>
    <i name="e_0_energy">     -1.32077527 </i>
   </energy>
  </scstep>
  <scstep>
   <time name="total">    0.91    0.91</time>
   <energy>
    <i name="e_fr_energy">     -1.32091655 </i>
    <i name="e_wo_entrp">     -1.32091655 </i>
    <i name="e_0_energy">     -1.32091655 </i>
   </energy>
  </scstep>
  <scstep>
   <time name="total">    0.91    0.91</time>
   <energy>
    <i name="e_fr_energy">     -1.32097947 </i>
    <i name="e_wo_entrp">     -1.32097947 </i>
    <i name="e_0_energy">     -1.32097947 </i>
   </energy>
  </scstep>
  <scstep>
   <time name="total">    0.95    0.95</time>
   <energy>
    <i name="alphaZ">      0.05998805 </i>
    <i name="ewald">    -51.07060001 </i>
    <i name="hartreedc">    -65.50023621 </i>
    <i name="XCdc">   -110.33985601 </i>
    <i name="pawpsdc">    225.96568222 </i>
    <i name="pawaedc">   -109.09579572 </i>
    <i name="eentropy">     -0.00000000 </i>
    <i name="bandstr">    -42.15343014 </i>
    <i name="atom">    150.81324090 </i>
    <i name="e_fr_energy">     -1.32100693 </i>
    <i name="e_wo_entrp">     -1.32100693 </i>
    <i name="e_0_energy">     -1.32100693 </i>
   </energy>
  </scstep>
  <structure>
   <crystal>
    <varray name="basis" >
     <v>      10.00000000       0.00000000       0.00000000 </v>
     <v>       0.00000000      10.00000000       0.00000000 </v>
     <v>       0.00000000       0.00000000      10.00000000 </v>
    </varray>
    <i name="volume">   1000.00000000 </i>
    <varray name="rec_basis" >
     <v>       0.10000000       0.00000000       0.00000000 </v>
     <v>       0.00000000       0.10000000       0.00000000 </v>
     <v>       0.00000000       0.00000000       0.10000000 </v>
    </varray>
   </crystal>
   <varray name="positions" >
    <v>       0.50000000       0.50000000       0.50000000 </v>
   </varray>
  </structure>
  <varray name="forces" >
   <v>       0.00000000       0.00000000       0.00000000 </v>
  </varray>
  <varray name="stress" >
   <v>       0.03479933      -0.00000000       0.00000000 </v>
   <v>       0.00000000       0.03479933      -0.00000000 </v>
   <v>      -0.00000000       0.00000000       0.03479933 </v>
  </varray>
  <energy>
   <i name="e_fr_energy">     -1.32100693 </i>
   <i name="e_wo_entrp">     -1.32100693 </i>
   <i name="e_0_energy">     -0.00000000 </i>
  </energy>
  <time name="totalsc">   25.79   25.95</time>
  <eigenvalues>
   <array>
    <dimension dim="1">band</dimension>
    <dimension dim="2">kpoint</dimension>
    <dimension dim="3">spin</dimension>
    <field>eigene</field>
    <field>occ</field>
    <set>
     <set comment="spin 1">
      <set comment="kpoint 1">
       <r>  -14.6051    1.0000 </r>
       <r>   -4.8201    1.0000 </r>
       <r>   -4.8201    1.0000 </r>
       <r>   -4.8201    1.0000 </r>
       <r>   -0.7289    0.0000 </r>
       <r>    0.7293    0.0000 </r>
       <r>    0.7295    0.0000 </r>
       <r>    1.1172    0.0000 </r>
       <r>    1.1400    0.0000 </r>
       <r>    1.1495    0.0000 </r>
       <r>    1.1676    0.0000 </r>
       <r>    1.4801    0.0000 </r>
       <r>    1.4801    0.0000 </r>
       <r>    1.4811    0.0000 </r>
       <r>    2.4549    0.0000 </r>
       <r>    2.4557    0.0000 </r>
       <r>    2.4826    0.0000 </r>
       <r>    2.4898    0.0000 </r>
       <r>    2.4923    0.0000 </r>
       <r>    2.8585    0.0000 </r>
       <r>    2.8664    0.0000 </r>
       <r>    2.9061    0.0000 </r>
       <r>    3.0390    0.0000 </r>
       <r>    3.5753    0.0000 </r>
       <r>    3.6325    0.0000 </r>
       <r>    3.6336    0.0000 </r>
       <r>    3.6337    0.0000 </r>
       <r>    3.9058    0.0000 </r>
       <r>    3.9085    0.0000 </r>
       <r>    4.1883    0.0000 </r>
       <r>    4.2464    0.0000 </r>
       <r>    4.2645    0.0000 </r>
       <r>    4.2807    0.0000 </r>
       <r>    5.3976    0.0000 </r>
       <r>    5.6171    0.0000 </r>
       <r>    5.7246    0.0000 </r>
      </set>
     </set>
     <set comment="spin 2">
      <set comment="kpoint 1">
       <r>  -13.0882    1.0000 </r>
       <r>   -3.0253    0.0000 </r>
       <r>   -3.0253    0.0000 </r>
       <r>   -3.0250    0.0000 </r>
       <r>    0.1492    0.0000 </r>
       <r>    1.5802    0.0000 </r>
       <r>    1.5803    0.0000 </r>
       <r>    1.7644    0.0000 </r>
       <r>    1.8884    0.0000 </r>
       <r>    1.8889    0.0000 </r>
       <r>    1.8891    0.0000 </r>
       <r>    2.6668    0.0000 </r>
       <r>    2.6669    0.0000 </r>
       <r>    2.6669    0.0000 </r>
       <r>    3.0394    0.0000 </r>
       <r>    3.0400    0.0000 </r>
       <r>    3.1916    0.0000 </r>
       <r>    3.1932    0.0000 </r>
       <r>    3.1953    0.0000 </r>
       <r>    3.5952    0.0000 </r>
       <r>    3.5958    0.0000 </r>
       <r>    3.6020    0.0000 </r>
       <r>    3.6120    0.0000 </r>
       <r>    4.2765    0.0000 </r>
       <r>    4.2782    0.0000 </r>
       <r>    4.2809    0.0000 </r>
       <r>    4.5291    0.0000 </r>
       <r>    4.8879    0.0000 </r>
       <r>    4.8972    0.0000 </r>
       <r>    4.9022    0.0000 </r>
       <r>    4.9454    0.0000 </r>
       <r>    4.9630    0.0000 </r>
       <r>    5.0494    0.0000 </r>
       <r>    6.4215    0.0000 </r>
       <r>    6.4944    0.0000 </r>
       <r>    6.7150    0.0000 </r>
      </set>
     </set>
    </set>
   </array>
  </eigenvalues>
  <separator name="orbital magnetization" >
   <v name="MAGDIPOLOUT">      0.00000000      0.00000000      0.00000000</v>
  </separator>
  <dos>
   <i name="efermi">     -4.56066140 </i>
   <total>
    <array>
     <dimension dim="1">gridpoints</dimension>
     <dimension dim="2">spin</dimension>
     <field>energy</field>
     <field>total</field>
     <field>integrated</field>
     <set>
      <set comment="spin 1">
       <r>   -15.6711     0.0000     0.0000 </r>
       <r>   -15.5929     0.0000     0.0000 </r>
       <r>   -15.5147     0.0000     0.0000 </r>
       <r>   -15.4365     0.0000     0.0000 </r>
       <r>   -15.3584     0.0000     0.0000 </r>
       <r>   -15.2802     0.0000     0.0000 </r>
       <r>   -15.2020     0.0000     0.0000 </r>
       <r>   -15.1239     0.0000     0.0000 </r>
       <r>   -15.0457     0.0000     0.0000 </r>
       <r>   -14.9675     0.0000     0.0000 </r>
       <r>   -14.8893     0.0000     0.0000 </r>
       <r>   -14.8112     0.0000     0.0000 </r>
       <r>   -14.7330     0.0019     0.0001 </r>
       <r>   -14.6548     1.0177     0.0797 </r>
       <r>   -14.5766     9.0773     0.7893 </r>
       <r>   -14.4985     2.6787     0.9987 </r>
       <r>   -14.4203     0.0164     1.0000 </r>
       <r>   -14.3421     0.0000     1.0000 </r>
       <r>   -14.2639     0.0000     1.0000 </r>
       <r>   -14.1858     0.0000     1.0000 </r>
       <r>   -14.1076     0.0000     1.0000 </r>
       <r>   -14.0294     0.0000     1.0000 </r>
       <r>   -13.9513     0.0000     1.0000 </r>
       <r>   -13.8731     0.0000     1.0000 </r>
       <r>   -13.7949     0.0000     1.0000 </r>
       <r>   -13.7167     0.0000     1.0000 </r>
       <r>   -13.6386     0.0000     1.0000 </r>
       <r>   -13.5604     0.0000     1.0000 </r>
       <r>   -13.4822     0.0000     1.0000 </r>
       <r>   -13.4040     0.0000     1.0000 </r>
       <r>   -13.3259     0.0000     1.0000 </r>
       <r>   -13.2477     0.0000     1.0000 </r>
       <r>   -13.1695     0.0000     1.0000 </r>
       <r>   -13.0913     0.0000     1.0000 </r>
       <r>   -13.0132     0.0000     1.0000 </r>
       <r>   -12.9350     0.0000     1.0000 </r>
       <r>   -12.8568     0.0000     1.0000 </r>
       <r>   -12.7786     0.0000     1.0000 </r>
       <r>   -12.7005     0.0000     1.0000 </r>
       <r>   -12.6223     0.0000     1.0000 </r>
       <r>   -12.5441     0.0000     1.0000 </r>
       <r>   -12.4660     0.0000     1.0000 </r>
       <r>   -12.3878     0.0000     1.0000 </r>
       <r>   -12.3096     0.0000     1.0000 </r>
       <r>   -12.2314     0.0000     1.0000 </r>
       <r>   -12.1533     0.0000     1.0000 </r>
       <r>   -12.0751     0.0000     1.0000 </r>
       <r>   -11.9969     0.0000     1.0000 </r>
       <r>   -11.9187     0.0000     1.0000 </r>
       <r>   -11.8406     0.0000     1.0000 </r>
       <r>   -11.7624     0.0000     1.0000 </r>
       <r>   -11.6842     0.0000     1.0000 </r>
       <r>   -11.6060     0.0000     1.0000 </r>
       <r>   -11.5279     0.0000     1.0000 </r>
       <r>   -11.4497     0.0000     1.0000 </r>
       <r>   -11.3715     0.0000     1.0000 </r>
       <r>   -11.2934     0.0000     1.0000 </r>
       <r>   -11.2152     0.0000     1.0000 </r>
       <r>   -11.1370     0.0000     1.0000 </r>
       <r>   -11.0588     0.0000     1.0000 </r>
       <r>   -10.9807     0.0000     1.0000 </r>
       <r>   -10.9025     0.0000     1.0000 </r>
       <r>   -10.8243     0.0000     1.0000 </r>
       <r>   -10.7461     0.0000     1.0000 </r>
       <r>   -10.6680     0.0000     1.0000 </r>
       <r>   -10.5898     0.0000     1.0000 </r>
       <r>   -10.5116     0.0000     1.0000 </r>
       <r>   -10.4334     0.0000     1.0000 </r>
       <r>   -10.3553     0.0000     1.0000 </r>
       <r>   -10.2771     0.0000     1.0000 </r>
       <r>   -10.1989     0.0000     1.0000 </r>
       <r>   -10.1208     0.0000     1.0000 </r>
       <r>   -10.0426     0.0000     1.0000 </r>
       <r>    -9.9644     0.0000     1.0000 </r>
       <r>    -9.8862     0.0000     1.0000 </r>
       <r>    -9.8081     0.0000     1.0000 </r>
       <r>    -9.7299     0.0000     1.0000 </r>
       <r>    -9.6517     0.0000     1.0000 </r>
       <r>    -9.5735     0.0000     1.0000 </r>
       <r>    -9.4954     0.0000     1.0000 </r>
       <r>    -9.4172     0.0000     1.0000 </r>
       <r>    -9.3390     0.0000     1.0000 </r>
       <r>    -9.2608     0.0000     1.0000 </r>
       <r>    -9.1827     0.0000     1.0000 </r>
       <r>    -9.1045     0.0000     1.0000 </r>
       <r>    -9.0263     0.0000     1.0000 </r>
       <r>    -8.9481     0.0000     1.0000 </r>
       <r>    -8.8700     0.0000     1.0000 </r>
       <r>    -8.7918     0.0000     1.0000 </r>
       <r>    -8.7136     0.0000     1.0000 </r>
       <r>    -8.6355     0.0000     1.0000 </r>
       <r>    -8.5573     0.0000     1.0000 </r>
       <r>    -8.4791     0.0000     1.0000 </r>
       <r>    -8.4009     0.0000     1.0000 </r>
       <r>    -8.3228     0.0000     1.0000 </r>
       <r>    -8.2446     0.0000     1.0000 </r>
       <r>    -8.1664     0.0000     1.0000 </r>
       <r>    -8.0882     0.0000     1.0000 </r>
       <r>    -8.0101     0.0000     1.0000 </r>
       <r>    -7.9319     0.0000     1.0000 </r>
       <r>    -7.8537     0.0000     1.0000 </r>
       <r>    -7.7755     0.0000     1.0000 </r>
       <r>    -7.6974     0.0000     1.0000 </r>
       <r>    -7.6192     0.0000     1.0000 </r>
       <r>    -7.5410     0.0000     1.0000 </r>
       <r>    -7.4629     0.0000     1.0000 </r>
       <r>    -7.3847     0.0000     1.0000 </r>
       <r>    -7.3065     0.0000     1.0000 </r>
       <r>    -7.2283     0.0000     1.0000 </r>
       <r>    -7.1502     0.0000     1.0000 </r>
       <r>    -7.0720     0.0000     1.0000 </r>
       <r>    -6.9938     0.0000     1.0000 </r>
       <r>    -6.9156     0.0000     1.0000 </r>
       <r>    -6.8375     0.0000     1.0000 </r>
       <r>    -6.7593     0.0000     1.0000 </r>
       <r>    -6.6811     0.0000     1.0000 </r>
       <r>    -6.6029     0.0000     1.0000 </r>
       <r>    -6.5248     0.0000     1.0000 </r>
       <r>    -6.4466     0.0000     1.0000 </r>
       <r>    -6.3684     0.0000     1.0000 </r>
       <r>    -6.2902     0.0000     1.0000 </r>
       <r>    -6.2121     0.0000     1.0000 </r>
       <r>    -6.1339     0.0000     1.0000 </r>
       <r>    -6.0557     0.0000     1.0000 </r>
       <r>    -5.9776     0.0000     1.0000 </r>
       <r>    -5.8994     0.0000     1.0000 </r>
       <r>    -5.8212     0.0000     1.0000 </r>
       <r>    -5.7430     0.0000     1.0000 </r>
       <r>    -5.6649     0.0000     1.0000 </r>
       <r>    -5.5867     0.0000     1.0000 </r>
       <r>    -5.5085     0.0000     1.0000 </r>
       <r>    -5.4303     0.0000     1.0000 </r>
       <r>    -5.3522     0.0000     1.0000 </r>
       <r>    -5.2740     0.0000     1.0000 </r>
       <r>    -5.1958     0.0000     1.0000 </r>
       <r>    -5.1176     0.0000     1.0000 </r>
       <r>    -5.0395     0.0000     1.0000 </r>
       <r>    -4.9613     0.0012     1.0001 </r>
       <r>    -4.8831     1.4274     1.1117 </r>
       <r>    -4.8050    24.1073     2.9962 </r>
       <r>    -4.7268    12.6803     3.9875 </r>
       <r>    -4.6486     0.1598     4.0000 </r>
       <r>    -4.5704     0.0000     4.0000 </r>
       <r>    -4.4923     0.0000     4.0000 </r>
       <r>    -4.4141     0.0000     4.0000 </r>
       <r>    -4.3359     0.0000     4.0000 </r>
       <r>    -4.2577     0.0000     4.0000 </r>
       <r>    -4.1796     0.0000     4.0000 </r>
       <r>    -4.1014     0.0000     4.0000 </r>
       <r>    -4.0232     0.0000     4.0000 </r>
       <r>    -3.9450     0.0000     4.0000 </r>
       <r>    -3.8669     0.0000     4.0000 </r>
       <r>    -3.7887     0.0000     4.0000 </r>
       <r>    -3.7105     0.0000     4.0000 </r>
       <r>    -3.6324     0.0000     4.0000 </r>
       <r>    -3.5542     0.0000     4.0000 </r>
       <r>    -3.4760     0.0000     4.0000 </r>
       <r>    -3.3978     0.0000     4.0000 </r>
       <r>    -3.3197     0.0000     4.0000 </r>
       <r>    -3.2415     0.0000     4.0000 </r>
       <r>    -3.1633     0.0000     4.0000 </r>
       <r>    -3.0851     0.0000     4.0000 </r>
       <r>    -3.0070     0.0000     4.0000 </r>
       <r>    -2.9288     0.0000     4.0000 </r>
       <r>    -2.8506     0.0000     4.0000 </r>
       <r>    -2.7724     0.0000     4.0000 </r>
       <r>    -2.6943     0.0000     4.0000 </r>
       <r>    -2.6161     0.0000     4.0000 </r>
       <r>    -2.5379     0.0000     4.0000 </r>
       <r>    -2.4597     0.0000     4.0000 </r>
       <r>    -2.3816     0.0000     4.0000 </r>
       <r>    -2.3034     0.0000     4.0000 </r>
       <r>    -2.2252     0.0000     4.0000 </r>
       <r>    -2.1471     0.0000     4.0000 </r>
       <r>    -2.0689     0.0000     4.0000 </r>
       <r>    -1.9907     0.0000     4.0000 </r>
       <r>    -1.9125     0.0000     4.0000 </r>
       <r>    -1.8344     0.0000     4.0000 </r>
       <r>    -1.7562     0.0000     4.0000 </r>
       <r>    -1.6780     0.0000     4.0000 </r>
       <r>    -1.5998     0.0000     4.0000 </r>
       <r>    -1.5217     0.0000     4.0000 </r>
       <r>    -1.4435     0.0000     4.0000 </r>
       <r>    -1.3653     0.0000     4.0000 </r>
       <r>    -1.2871     0.0000     4.0000 </r>
       <r>    -1.2090     0.0000     4.0000 </r>
       <r>    -1.1308     0.0000     4.0000 </r>
       <r>    -1.0526     0.0000     4.0000 </r>
       <r>    -0.9745     0.0000     4.0000 </r>
       <r>    -0.8963     0.0000     4.0000 </r>
       <r>    -0.8181     0.0741     4.0058 </r>
       <r>    -0.7399     4.7492     4.3771 </r>
       <r>    -0.6618     7.5996     4.9711 </r>
       <r>    -0.5836     0.3689     5.0000 </r>
       <r>    -0.5054     0.0003     5.0000 </r>
       <r>    -0.4272     0.0000     5.0000 </r>
       <r>    -0.3491     0.0000     5.0000 </r>
       <r>    -0.2709     0.0000     5.0000 </r>
       <r>    -0.1927     0.0000     5.0000 </r>
       <r>    -0.1145     0.0000     5.0000 </r>
       <r>    -0.0364     0.0000     5.0000 </r>
       <r>     0.0418     0.0000     5.0000 </r>
       <r>     0.1200     0.0000     5.0000 </r>
       <r>     0.1981     0.0000     5.0000 </r>
       <r>     0.2763     0.0000     5.0000 </r>
       <r>     0.3545     0.0000     5.0000 </r>
       <r>     0.4327     0.0000     5.0000 </r>
       <r>     0.5108     0.0000     5.0000 </r>
       <r>     0.5890     0.0009     5.0001 </r>
       <r>     0.6672     1.0013     5.0783 </r>
       <r>     0.7454    16.2390     6.3478 </r>
       <r>     0.8235     8.2435     6.9922 </r>
       <r>     0.9017     0.0994     7.0000 </r>
       <r>     0.9799     0.0007     7.0001 </r>
       <r>     1.0581     0.8091     7.0633 </r>
       <r>     1.1362    20.9816     8.7035 </r>
       <r>     1.2144    27.5019    10.8534 </r>
       <r>     1.2926     1.8720    10.9998 </r>
       <r>     1.3708     0.0400    11.0029 </r>
       <r>     1.4489     7.1211    11.5596 </r>
       <r>     1.5271    27.6338    13.7198 </r>
       <r>     1.6053     3.5765    13.9994 </r>
       <r>     1.6834     0.0079    14.0000 </r>
       <r>     1.7616     0.0000    14.0000 </r>
       <r>     1.8398     0.0000    14.0000 </r>
       <r>     1.9180     0.0000    14.0000 </r>
       <r>     1.9961     0.0000    14.0000 </r>
       <r>     2.0743     0.0000    14.0000 </r>
       <r>     2.1525     0.0000    14.0000 </r>
       <r>     2.2307     0.0000    14.0000 </r>
       <r>     2.3088     0.0004    14.0000 </r>
       <r>     2.3870     0.7686    14.0601 </r>
       <r>     2.4652    24.7605    15.9957 </r>
       <r>     2.5434    35.9372    18.8051 </r>
       <r>     2.6215     2.4900    18.9997 </r>
       <r>     2.6997     0.0035    19.0000 </r>
       <r>     2.7779     0.2245    19.0176 </r>
       <r>     2.8560    11.7362    19.9350 </r>
       <r>     2.9342    23.1449    21.7443 </r>
       <r>     3.0124     6.1430    22.2245 </r>
       <r>     3.0906     8.9944    22.9277 </r>
       <r>     3.1687     0.9237    22.9999 </r>
       <r>     3.2469     0.0016    23.0000 </r>
       <r>     3.3251     0.0000    23.0000 </r>
       <r>     3.4033     0.0000    23.0000 </r>
       <r>     3.4814     0.0511    23.0040 </r>
       <r>     3.5596     4.8661    23.3844 </r>
       <r>     3.6378    28.5034    25.6126 </r>
       <r>     3.7160    17.3746    26.9708 </r>
       <r>     3.7941     0.3907    27.0014 </r>
       <r>     3.8723     4.1298    27.3242 </r>
       <r>     3.9505    18.6084    28.7789 </r>
       <r>     4.0287     2.8206    28.9994 </r>
       <r>     4.1068     0.1433    29.0106 </r>
       <r>     4.1850     6.5045    29.5191 </r>
       <r>     4.2632    24.8285    31.4600 </r>
       <r>     4.3413    18.9117    32.9384 </r>
       <r>     4.4195     0.7871    33.0000 </r>
       <r>     4.4977     0.0006    33.0000 </r>
       <r>     4.5759     0.0000    33.0000 </r>
       <r>     4.6540     0.0000    33.0000 </r>
       <r>     4.7322     0.0000    33.0000 </r>
       <r>     4.8104     0.0000    33.0000 </r>
       <r>     4.8886     0.0000    33.0000 </r>
       <r>     4.9667     0.0000    33.0000 </r>
       <r>     5.0449     0.0000    33.0000 </r>
       <r>     5.1231     0.0000    33.0000 </r>
       <r>     5.2013     0.0000    33.0000 </r>
       <r>     5.2794     0.0053    33.0004 </r>
       <r>     5.3576     1.6459    33.1291 </r>
       <r>     5.4358     9.3500    33.8600 </r>
       <r>     5.5139     1.8069    34.0013 </r>
       <r>     5.5921     3.0489    34.2396 </r>
       <r>     5.6703     9.6724    34.9957 </r>
       <r>     5.7485     9.6449    35.7497 </r>
       <r>     5.8266     3.1768    35.9980 </r>
       <r>     5.9048     0.0250    36.0000 </r>
       <r>     5.9830     0.0000    36.0000 </r>
       <r>     6.0612     0.0000    36.0000 </r>
       <r>     6.1393     0.0000    36.0000 </r>
       <r>     6.2175     0.0000    36.0000 </r>
       <r>     6.2957     0.0000    36.0000 </r>
       <r>     6.3739     0.0000    36.0000 </r>
       <r>     6.4520     0.0000    36.0000 </r>
       <r>     6.5302     0.0000    36.0000 </r>
       <r>     6.6084     0.0000    36.0000 </r>
       <r>     6.6865     0.0000    36.0000 </r>
       <r>     6.7647     0.0000    36.0000 </r>
       <r>     6.8429     0.0000    36.0000 </r>
       <r>     6.9211     0.0000    36.0000 </r>
       <r>     6.9992     0.0000    36.0000 </r>
       <r>     7.0774     0.0000    36.0000 </r>
       <r>     7.1556     0.0000    36.0000 </r>
       <r>     7.2338     0.0000    36.0000 </r>
       <r>     7.3119     0.0000    36.0000 </r>
       <r>     7.3901     0.0000    36.0000 </r>
       <r>     7.4683     0.0000    36.0000 </r>
       <r>     7.5465     0.0000    36.0000 </r>
       <r>     7.6246     0.0000    36.0000 </r>
       <r>     7.7028     0.0000    36.0000 </r>
       <r>     7.7810     0.0000    36.0000 </r>
      </set>
      <set comment="spin 2">
       <r>   -15.6711     0.0000     0.0000 </r>
       <r>   -15.5929     0.0000     0.0000 </r>
       <r>   -15.5147     0.0000     0.0000 </r>
       <r>   -15.4365     0.0000     0.0000 </r>
       <r>   -15.3584     0.0000     0.0000 </r>
       <r>   -15.2802     0.0000     0.0000 </r>
       <r>   -15.2020     0.0000     0.0000 </r>
       <r>   -15.1239     0.0000     0.0000 </r>
       <r>   -15.0457     0.0000     0.0000 </r>
       <r>   -14.9675     0.0000     0.0000 </r>
       <r>   -14.8893     0.0000     0.0000 </r>
       <r>   -14.8112     0.0000     0.0000 </r>
       <r>   -14.7330     0.0000     0.0000 </r>
       <r>   -14.6548     0.0000     0.0000 </r>
       <r>   -14.5766     0.0000     0.0000 </r>
       <r>   -14.4985     0.0000     0.0000 </r>
       <r>   -14.4203     0.0000     0.0000 </r>
       <r>   -14.3421     0.0000     0.0000 </r>
       <r>   -14.2639     0.0000     0.0000 </r>
       <r>   -14.1858     0.0000     0.0000 </r>
       <r>   -14.1076     0.0000     0.0000 </r>
       <r>   -14.0294     0.0000     0.0000 </r>
       <r>   -13.9513     0.0000     0.0000 </r>
       <r>   -13.8731     0.0000     0.0000 </r>
       <r>   -13.7949     0.0000     0.0000 </r>
       <r>   -13.7167     0.0000     0.0000 </r>
       <r>   -13.6386     0.0000     0.0000 </r>
       <r>   -13.5604     0.0000     0.0000 </r>
       <r>   -13.4822     0.0000     0.0000 </r>
       <r>   -13.4040     0.0000     0.0000 </r>
       <r>   -13.3259     0.0000     0.0000 </r>
       <r>   -13.2477     0.0000     0.0000 </r>
       <r>   -13.1695     0.1371     0.0107 </r>
       <r>   -13.0913     5.8052     0.4645 </r>
       <r>   -13.0132     6.6333     0.9831 </r>
       <r>   -12.9350     0.2163     1.0000 </r>
       <r>   -12.8568     0.0001     1.0000 </r>
       <r>   -12.7786     0.0000     1.0000 </r>
       <r>   -12.7005     0.0000     1.0000 </r>
       <r>   -12.6223     0.0000     1.0000 </r>
       <r>   -12.5441     0.0000     1.0000 </r>
       <r>   -12.4660     0.0000     1.0000 </r>
       <r>   -12.3878     0.0000     1.0000 </r>
       <r>   -12.3096     0.0000     1.0000 </r>
       <r>   -12.2314     0.0000     1.0000 </r>
       <r>   -12.1533     0.0000     1.0000 </r>
       <r>   -12.0751     0.0000     1.0000 </r>
       <r>   -11.9969     0.0000     1.0000 </r>
       <r>   -11.9187     0.0000     1.0000 </r>
       <r>   -11.8406     0.0000     1.0000 </r>
       <r>   -11.7624     0.0000     1.0000 </r>
       <r>   -11.6842     0.0000     1.0000 </r>
       <r>   -11.6060     0.0000     1.0000 </r>
       <r>   -11.5279     0.0000     1.0000 </r>
       <r>   -11.4497     0.0000     1.0000 </r>
       <r>   -11.3715     0.0000     1.0000 </r>
       <r>   -11.2934     0.0000     1.0000 </r>
       <r>   -11.2152     0.0000     1.0000 </r>
       <r>   -11.1370     0.0000     1.0000 </r>
       <r>   -11.0588     0.0000     1.0000 </r>
       <r>   -10.9807     0.0000     1.0000 </r>
       <r>   -10.9025     0.0000     1.0000 </r>
       <r>   -10.8243     0.0000     1.0000 </r>
       <r>   -10.7461     0.0000     1.0000 </r>
       <r>   -10.6680     0.0000     1.0000 </r>
       <r>   -10.5898     0.0000     1.0000 </r>
       <r>   -10.5116     0.0000     1.0000 </r>
       <r>   -10.4334     0.0000     1.0000 </r>
       <r>   -10.3553     0.0000     1.0000 </r>
       <r>   -10.2771     0.0000     1.0000 </r>
       <r>   -10.1989     0.0000     1.0000 </r>
       <r>   -10.1208     0.0000     1.0000 </r>
       <r>   -10.0426     0.0000     1.0000 </r>
       <r>    -9.9644     0.0000     1.0000 </r>
       <r>    -9.8862     0.0000     1.0000 </r>
       <r>    -9.8081     0.0000     1.0000 </r>
       <r>    -9.7299     0.0000     1.0000 </r>
       <r>    -9.6517     0.0000     1.0000 </r>
       <r>    -9.5735     0.0000     1.0000 </r>
       <r>    -9.4954     0.0000     1.0000 </r>
       <r>    -9.4172     0.0000     1.0000 </r>
       <r>    -9.3390     0.0000     1.0000 </r>
       <r>    -9.2608     0.0000     1.0000 </r>
       <r>    -9.1827     0.0000     1.0000 </r>
       <r>    -9.1045     0.0000     1.0000 </r>
       <r>    -9.0263     0.0000     1.0000 </r>
       <r>    -8.9481     0.0000     1.0000 </r>
       <r>    -8.8700     0.0000     1.0000 </r>
       <r>    -8.7918     0.0000     1.0000 </r>
       <r>    -8.7136     0.0000     1.0000 </r>
       <r>    -8.6355     0.0000     1.0000 </r>
       <r>    -8.5573     0.0000     1.0000 </r>
       <r>    -8.4791     0.0000     1.0000 </r>
       <r>    -8.4009     0.0000     1.0000 </r>
       <r>    -8.3228     0.0000     1.0000 </r>
       <r>    -8.2446     0.0000     1.0000 </r>
       <r>    -8.1664     0.0000     1.0000 </r>
       <r>    -8.0882     0.0000     1.0000 </r>
       <r>    -8.0101     0.0000     1.0000 </r>
       <r>    -7.9319     0.0000     1.0000 </r>
       <r>    -7.8537     0.0000     1.0000 </r>
       <r>    -7.7755     0.0000     1.0000 </r>
       <r>    -7.6974     0.0000     1.0000 </r>
       <r>    -7.6192     0.0000     1.0000 </r>
       <r>    -7.5410     0.0000     1.0000 </r>
       <r>    -7.4629     0.0000     1.0000 </r>
       <r>    -7.3847     0.0000     1.0000 </r>
       <r>    -7.3065     0.0000     1.0000 </r>
       <r>    -7.2283     0.0000     1.0000 </r>
       <r>    -7.1502     0.0000     1.0000 </r>
       <r>    -7.0720     0.0000     1.0000 </r>
       <r>    -6.9938     0.0000     1.0000 </r>
       <r>    -6.9156     0.0000     1.0000 </r>
       <r>    -6.8375     0.0000     1.0000 </r>
       <r>    -6.7593     0.0000     1.0000 </r>
       <r>    -6.6811     0.0000     1.0000 </r>
       <r>    -6.6029     0.0000     1.0000 </r>
       <r>    -6.5248     0.0000     1.0000 </r>
       <r>    -6.4466     0.0000     1.0000 </r>
       <r>    -6.3684     0.0000     1.0000 </r>
       <r>    -6.2902     0.0000     1.0000 </r>
       <r>    -6.2121     0.0000     1.0000 </r>
       <r>    -6.1339     0.0000     1.0000 </r>
       <r>    -6.0557     0.0000     1.0000 </r>
       <r>    -5.9776     0.0000     1.0000 </r>
       <r>    -5.8994     0.0000     1.0000 </r>
       <r>    -5.8212     0.0000     1.0000 </r>
       <r>    -5.7430     0.0000     1.0000 </r>
       <r>    -5.6649     0.0000     1.0000 </r>
       <r>    -5.5867     0.0000     1.0000 </r>
       <r>    -5.5085     0.0000     1.0000 </r>
       <r>    -5.4303     0.0000     1.0000 </r>
       <r>    -5.3522     0.0000     1.0000 </r>
       <r>    -5.2740     0.0000     1.0000 </r>
       <r>    -5.1958     0.0000     1.0000 </r>
       <r>    -5.1176     0.0000     1.0000 </r>
       <r>    -5.0395     0.0000     1.0000 </r>
       <r>    -4.9613     0.0000     1.0000 </r>
       <r>    -4.8831     0.0000     1.0000 </r>
       <r>    -4.8050     0.0000     1.0000 </r>
       <r>    -4.7268     0.0000     1.0000 </r>
       <r>    -4.6486     0.0000     1.0000 </r>
       <r>    -4.5704     0.0000     1.0000 </r>
       <r>    -4.4923     0.0000     1.0000 </r>
       <r>    -4.4141     0.0000     1.0000 </r>
       <r>    -4.3359     0.0000     1.0000 </r>
       <r>    -4.2577     0.0000     1.0000 </r>
       <r>    -4.1796     0.0000     1.0000 </r>
       <r>    -4.1014     0.0000     1.0000 </r>
       <r>    -4.0232     0.0000     1.0000 </r>
       <r>    -3.9450     0.0000     1.0000 </r>
       <r>    -3.8669     0.0000     1.0000 </r>
       <r>    -3.7887     0.0000     1.0000 </r>
       <r>    -3.7105     0.0000     1.0000 </r>
       <r>    -3.6324     0.0000     1.0000 </r>
       <r>    -3.5542     0.0000     1.0000 </r>
       <r>    -3.4760     0.0000     1.0000 </r>
       <r>    -3.3978     0.0000     1.0000 </r>
       <r>    -3.3197     0.0000     1.0000 </r>
       <r>    -3.2415     0.0000     1.0000 </r>
       <r>    -3.1633     0.0018     1.0001 </r>
       <r>    -3.0851     1.7221     1.1348 </r>
       <r>    -3.0070    25.0115     3.0900 </r>
       <r>    -2.9288    11.5178     3.9904 </r>
       <r>    -2.8506     0.1230     4.0000 </r>
       <r>    -2.7724     0.0000     4.0000 </r>
       <r>    -2.6943     0.0000     4.0000 </r>
       <r>    -2.6161     0.0000     4.0000 </r>
       <r>    -2.5379     0.0000     4.0000 </r>
       <r>    -2.4597     0.0000     4.0000 </r>
       <r>    -2.3816     0.0000     4.0000 </r>
       <r>    -2.3034     0.0000     4.0000 </r>
       <r>    -2.2252     0.0000     4.0000 </r>
       <r>    -2.1471     0.0000     4.0000 </r>
       <r>    -2.0689     0.0000     4.0000 </r>
       <r>    -1.9907     0.0000     4.0000 </r>
       <r>    -1.9125     0.0000     4.0000 </r>
       <r>    -1.8344     0.0000     4.0000 </r>
       <r>    -1.7562     0.0000     4.0000 </r>
       <r>    -1.6780     0.0000     4.0000 </r>
       <r>    -1.5998     0.0000     4.0000 </r>
       <r>    -1.5217     0.0000     4.0000 </r>
       <r>    -1.4435     0.0000     4.0000 </r>
       <r>    -1.3653     0.0000     4.0000 </r>
       <r>    -1.2871     0.0000     4.0000 </r>
       <r>    -1.2090     0.0000     4.0000 </r>
       <r>    -1.1308     0.0000     4.0000 </r>
       <r>    -1.0526     0.0000     4.0000 </r>
       <r>    -0.9745     0.0000     4.0000 </r>
       <r>    -0.8963     0.0000     4.0000 </r>
       <r>    -0.8181     0.0000     4.0000 </r>
       <r>    -0.7399     0.0000     4.0000 </r>
       <r>    -0.6618     0.0000     4.0000 </r>
       <r>    -0.5836     0.0000     4.0000 </r>
       <r>    -0.5054     0.0000     4.0000 </r>
       <r>    -0.4272     0.0000     4.0000 </r>
       <r>    -0.3491     0.0000     4.0000 </r>
       <r>    -0.2709     0.0000     4.0000 </r>
       <r>    -0.1927     0.0000     4.0000 </r>
       <r>    -0.1145     0.0000     4.0000 </r>
       <r>    -0.0364     0.0000     4.0000 </r>
       <r>     0.0418     0.0153     4.0012 </r>
       <r>     0.1200     2.6004     4.2045 </r>
       <r>     0.1981     9.1150     4.9170 </r>
       <r>     0.2763     1.0593     4.9998 </r>
       <r>     0.3545     0.0021     5.0000 </r>
       <r>     0.4327     0.0000     5.0000 </r>
       <r>     0.5108     0.0000     5.0000 </r>
       <r>     0.5890     0.0000     5.0000 </r>
       <r>     0.6672     0.0000     5.0000 </r>
       <r>     0.7454     0.0000     5.0000 </r>
       <r>     0.8235     0.0000     5.0000 </r>
       <r>     0.9017     0.0000     5.0000 </r>
       <r>     0.9799     0.0000     5.0000 </r>
       <r>     1.0581     0.0000     5.0000 </r>
       <r>     1.1362     0.0000     5.0000 </r>
       <r>     1.2144     0.0000     5.0000 </r>
       <r>     1.2926     0.0000     5.0000 </r>
       <r>     1.3708     0.0000     5.0000 </r>
       <r>     1.4489     0.0026     5.0002 </r>
       <r>     1.5271     1.6969     5.1329 </r>
       <r>     1.6053    17.7591     6.5212 </r>
       <r>     1.6834     6.2210     7.0075 </r>
       <r>     1.7616     5.8985     7.4686 </r>
       <r>     1.8398     9.7637     8.2318 </r>
       <r>     1.9180    27.5497    10.3855 </r>
       <r>     1.9961     7.8146    10.9964 </r>
       <r>     2.0743     0.0461    11.0000 </r>
       <r>     2.1525     0.0000    11.0000 </r>
       <r>     2.2307     0.0000    11.0000 </r>
       <r>     2.3088     0.0000    11.0000 </r>
       <r>     2.3870     0.0000    11.0000 </r>
       <r>     2.4652     0.0000    11.0000 </r>
       <r>     2.5434     0.0091    11.0007 </r>
       <r>     2.6215     3.8191    11.2993 </r>
       <r>     2.6997    27.7680    13.4700 </r>
       <r>     2.7779     6.7474    13.9975 </r>
       <r>     2.8560     0.0325    14.0000 </r>
       <r>     2.9342     0.0364    14.0028 </r>
       <r>     3.0124     5.5885    14.4397 </r>
       <r>     3.0906    18.1067    15.8552 </r>
       <r>     3.1687    11.1927    16.7302 </r>
       <r>     3.2469    26.5404    18.8049 </r>
       <r>     3.3251     2.4918    18.9997 </r>
       <r>     3.4033     0.0038    19.0000 </r>
       <r>     3.4814     0.0216    19.0017 </r>
       <r>     3.5596     6.3069    19.4947 </r>
       <r>     3.6378    36.9064    22.3798 </r>
       <r>     3.7160     7.8959    22.9971 </r>
       <r>     3.7941     0.0375    23.0000 </r>
       <r>     3.8723     0.0000    23.0000 </r>
       <r>     3.9505     0.0000    23.0000 </r>
       <r>     4.0287     0.0000    23.0000 </r>
       <r>     4.1068     0.0000    23.0000 </r>
       <r>     4.1850     0.1580    23.0124 </r>
       <r>     4.2632    12.5898    23.9965 </r>
       <r>     4.3413    24.1698    25.8860 </r>
       <r>     4.4195     1.4696    26.0009 </r>
       <r>     4.4977     2.3817    26.1871 </r>
       <r>     4.5759     9.2091    26.9070 </r>
       <r>     4.6540     1.1875    26.9998 </r>
       <r>     4.7322     0.0027    27.0000 </r>
       <r>     4.8104     0.3319    27.0260 </r>
       <r>     4.8886    16.7020    28.3316 </r>
       <r>     4.9667    36.7930    31.2078 </r>
       <r>     5.0449    15.7247    32.4371 </r>
       <r>     5.1231     6.9636    32.9815 </r>
       <r>     5.2013     0.2371    33.0000 </r>
       <r>     5.2794     0.0001    33.0000 </r>
       <r>     5.3576     0.0000    33.0000 </r>
       <r>     5.4358     0.0000    33.0000 </r>
       <r>     5.5139     0.0000    33.0000 </r>
       <r>     5.5921     0.0000    33.0000 </r>
       <r>     5.6703     0.0000    33.0000 </r>
       <r>     5.7485     0.0000    33.0000 </r>
       <r>     5.8266     0.0000    33.0000 </r>
       <r>     5.9048     0.0000    33.0000 </r>
       <r>     5.9830     0.0000    33.0000 </r>
       <r>     6.0612     0.0000    33.0000 </r>
       <r>     6.1393     0.0000    33.0000 </r>
       <r>     6.2175     0.0000    33.0000 </r>
       <r>     6.2957     0.0024    33.0002 </r>
       <r>     6.3739     1.1417    33.0894 </r>
       <r>     6.4520    10.6472    33.9218 </r>
       <r>     6.5302    11.7881    34.8433 </r>
       <r>     6.6084     2.0130    35.0007 </r>
       <r>     6.6865     2.6868    35.2107 </r>
       <r>     6.7647     9.0773    35.9203 </r>
       <r>     6.8429     1.0177    35.9999 </r>
       <r>     6.9211     0.0019    36.0000 </r>
       <r>     6.9992     0.0000    36.0000 </r>
       <r>     7.0774     0.0000    36.0000 </r>
       <r>     7.1556     0.0000    36.0000 </r>
       <r>     7.2338     0.0000    36.0000 </r>
       <r>     7.3119     0.0000    36.0000 </r>
       <r>     7.3901     0.0000    36.0000 </r>
       <r>     7.4683     0.0000    36.0000 </r>
       <r>     7.5465     0.0000    36.0000 </r>
       <r>     7.6246     0.0000    36.0000 </r>
       <r>     7.7028     0.0000    36.0000 </r>
       <r>     7.7810     0.0000    36.0000 </r>
      </set>
     </set>
    </array>
   </total>
   <partial>
    <array>
     <dimension dim="1">gridpoints</dimension>
     <dimension dim="2">spin</dimension>
     <dimension dim="3">ion</dimension>
     <field>energy</field>
     <field>    s</field>
     <field>   py</field>
     <field>   pz</field>
     <field>   px</field>
     <field>  dxy</field>
     <field>  dyz</field>
     <field>  dz2</field>
     <field>  dxz</field>
     <field>x2-y2</field>
     <set>
      <set comment="ion 1">
       <set comment="spin 1">
        <r>   -15.6711     0.0000     0.0000     0.0000     0.0000     0.0000     0.0000     0.0000     0.0000     0.0000 </r>
        <r>   -15.5929     0.0000     0.0000     0.0000     0.0000     0.0000     0.0000     0.0000     0.0000     0.0000 </r>
        <r>   -15.5147     0.0000     0.0000     0.0000     0.0000     0.0000     0.0000     0.0000     0.0000     0.0000 </r>
        <r>   -15.4365     0.0000     0.0000     0.0000     0.0000     0.0000     0.0000     0.0000     0.0000     0.0000 </r>
        <r>   -15.3584     0.0000     0.0000     0.0000     0.0000     0.0000     0.0000     0.0000     0.0000     0.0000 </r>
        <r>   -15.2802     0.0000     0.0000     0.0000     0.0000     0.0000     0.0000     0.0000     0.0000     0.0000 </r>
        <r>   -15.2020     0.0000     0.0000     0.0000     0.0000     0.0000     0.0000     0.0000     0.0000     0.0000 </r>
        <r>   -15.1239     0.0000     0.0000     0.0000     0.0000     0.0000     0.0000     0.0000     0.0000     0.0000 </r>
        <r>   -15.0457     0.0000     0.0000     0.0000     0.0000     0.0000     0.0000     0.0000     0.0000     0.0000 </r>
        <r>   -14.9675     0.0000     0.0000     0.0000     0.0000     0.0000     0.0000     0.0000     0.0000     0.0000 </r>
        <r>   -14.8893     0.0000     0.0000     0.0000     0.0000     0.0000     0.0000     0.0000     0.0000     0.0000 </r>
        <r>   -14.8112     0.0000     0.0000     0.0000     0.0000     0.0000     0.0000     0.0000     0.0000     0.0000 </r>
        <r>   -14.7330     0.0017     0.0000     0.0000     0.0000     0.0000     0.0000     0.0000     0.0000     0.0000 </r>
        <r>   -14.6548     0.8922     0.0000     0.0000     0.0000     0.0000     0.0000     0.0000     0.0000     0.0000 </r>
        <r>   -14.5766     7.9581     0.0000     0.0000     0.0000     0.0000     0.0000     0.0000     0.0000     0.0000 </r>
        <r>   -14.4985     2.3485     0.0000     0.0000     0.0000     0.0000     0.0000     0.0000     0.0000     0.0000 </r>
        <r>   -14.4203     0.0144     0.0000     0.0000     0.0000     0.0000     0.0000     0.0000     0.0000     0.0000 </r>
        <r>   -14.3421     0.0000     0.0000     0.0000     0.0000     0.0000     0.0000     0.0000     0.0000     0.0000 </r>
        <r>   -14.2639     0.0000     0.0000     0.0000     0.0000     0.0000     0.0000     0.0000     0.0000     0.0000 </r>
        <r>   -14.1858     0.0000     0.0000     0.0000     0.0000     0.0000     0.0000     0.0000     0.0000     0.0000 </r>
        <r>   -14.1076     0.0000     0.0000     0.0000     0.0000     0.0000     0.0000     0.0000     0.0000     0.0000 </r>
        <r>   -14.0294     0.0000     0.0000     0.0000     0.0000     0.0000     0.0000     0.0000     0.0000     0.0000 </r>
        <r>   -13.9513     0.0000     0.0000     0.0000     0.0000     0.0000     0.0000     0.0000     0.0000     0.0000 </r>
        <r>   -13.8731     0.0000     0.0000     0.0000     0.0000     0.0000     0.0000     0.0000     0.0000     0.0000 </r>
        <r>   -13.7949     0.0000     0.0000     0.0000     0.0000     0.0000     0.0000     0.0000     0.0000     0.0000 </r>
        <r>   -13.7167     0.0000     0.0000     0.0000     0.0000     0.0000     0.0000     0.0000     0.0000     0.0000 </r>
        <r>   -13.6386     0.0000     0.0000     0.0000     0.0000     0.0000     0.0000     0.0000     0.0000     0.0000 </r>
        <r>   -13.5604     0.0000     0.0000     0.0000     0.0000     0.0000     0.0000     0.0000     0.0000     0.0000 </r>
        <r>   -13.4822     0.0000     0.0000     0.0000     0.0000     0.0000     0.0000     0.0000     0.0000     0.0000 </r>
        <r>   -13.4040     0.0000     0.0000     0.0000     0.0000     0.0000     0.0000     0.0000     0.0000     0.0000 </r>
        <r>   -13.3259     0.0000     0.0000     0.0000     0.0000     0.0000     0.0000     0.0000     0.0000     0.0000 </r>
        <r>   -13.2477     0.0000     0.0000     0.0000     0.0000     0.0000     0.0000     0.0000     0.0000     0.0000 </r>
        <r>   -13.1695     0.0000     0.0000     0.0000     0.0000     0.0000     0.0000     0.0000     0.0000     0.0000 </r>
        <r>   -13.0913     0.0000     0.0000     0.0000     0.0000     0.0000     0.0000     0.0000     0.0000     0.0000 </r>
        <r>   -13.0132     0.0000     0.0000     0.0000     0.0000     0.0000     0.0000     0.0000     0.0000     0.0000 </r>
        <r>   -12.9350     0.0000     0.0000     0.0000     0.0000     0.0000     0.0000     0.0000     0.0000     0.0000 </r>
        <r>   -12.8568     0.0000     0.0000     0.0000     0.0000     0.0000     0.0000     0.0000     0.0000     0.0000 </r>
        <r>   -12.7786     0.0000     0.0000     0.0000     0.0000     0.0000     0.0000     0.0000     0.0000     0.0000 </r>
        <r>   -12.7005     0.0000     0.0000     0.0000     0.0000     0.0000     0.0000     0.0000     0.0000     0.0000 </r>
        <r>   -12.6223     0.0000     0.0000     0.0000     0.0000     0.0000     0.0000     0.0000     0.0000     0.0000 </r>
        <r>   -12.5441     0.0000     0.0000     0.0000     0.0000     0.0000     0.0000     0.0000     0.0000     0.0000 </r>
        <r>   -12.4660     0.0000     0.0000     0.0000     0.0000     0.0000     0.0000     0.0000     0.0000     0.0000 </r>
        <r>   -12.3878     0.0000     0.0000     0.0000     0.0000     0.0000     0.0000     0.0000     0.0000     0.0000 </r>
        <r>   -12.3096     0.0000     0.0000     0.0000     0.0000     0.0000     0.0000     0.0000     0.0000     0.0000 </r>
        <r>   -12.2314     0.0000     0.0000     0.0000     0.0000     0.0000     0.0000     0.0000     0.0000     0.0000 </r>
        <r>   -12.1533     0.0000     0.0000     0.0000     0.0000     0.0000     0.0000     0.0000     0.0000     0.0000 </r>
        <r>   -12.0751     0.0000     0.0000     0.0000     0.0000     0.0000     0.0000     0.0000     0.0000     0.0000 </r>
        <r>   -11.9969     0.0000     0.0000     0.0000     0.0000     0.0000     0.0000     0.0000     0.0000     0.0000 </r>
        <r>   -11.9187     0.0000     0.0000     0.0000     0.0000     0.0000     0.0000     0.0000     0.0000     0.0000 </r>
        <r>   -11.8406     0.0000     0.0000     0.0000     0.0000     0.0000     0.0000     0.0000     0.0000     0.0000 </r>
        <r>   -11.7624     0.0000     0.0000     0.0000     0.0000     0.0000     0.0000     0.0000     0.0000     0.0000 </r>
        <r>   -11.6842     0.0000     0.0000     0.0000     0.0000     0.0000     0.0000     0.0000     0.0000     0.0000 </r>
        <r>   -11.6060     0.0000     0.0000     0.0000     0.0000     0.0000     0.0000     0.0000     0.0000     0.0000 </r>
        <r>   -11.5279     0.0000     0.0000     0.0000     0.0000     0.0000     0.0000     0.0000     0.0000     0.0000 </r>
        <r>   -11.4497     0.0000     0.0000     0.0000     0.0000     0.0000     0.0000     0.0000     0.0000     0.0000 </r>
        <r>   -11.3715     0.0000     0.0000     0.0000     0.0000     0.0000     0.0000     0.0000     0.0000     0.0000 </r>
        <r>   -11.2934     0.0000     0.0000     0.0000     0.0000     0.0000     0.0000     0.0000     0.0000     0.0000 </r>
        <r>   -11.2152     0.0000     0.0000     0.0000     0.0000     0.0000     0.0000     0.0000     0.0000     0.0000 </r>
        <r>   -11.1370     0.0000     0.0000     0.0000     0.0000     0.0000     0.0000     0.0000     0.0000     0.0000 </r>
        <r>   -11.0588     0.0000     0.0000     0.0000     0.0000     0.0000     0.0000     0.0000     0.0000     0.0000 </r>
        <r>   -10.9807     0.0000     0.0000     0.0000     0.0000     0.0000     0.0000     0.0000     0.0000     0.0000 </r>
        <r>   -10.9025     0.0000     0.0000     0.0000     0.0000     0.0000     0.0000     0.0000     0.0000     0.0000 </r>
        <r>   -10.8243     0.0000     0.0000     0.0000     0.0000     0.0000     0.0000     0.0000     0.0000     0.0000 </r>
        <r>   -10.7461     0.0000     0.0000     0.0000     0.0000     0.0000     0.0000     0.0000     0.0000     0.0000 </r>
        <r>   -10.6680     0.0000     0.0000     0.0000     0.0000     0.0000     0.0000     0.0000     0.0000     0.0000 </r>
        <r>   -10.5898     0.0000     0.0000     0.0000     0.0000     0.0000     0.0000     0.0000     0.0000     0.0000 </r>
        <r>   -10.5116     0.0000     0.0000     0.0000     0.0000     0.0000     0.0000     0.0000     0.0000     0.0000 </r>
        <r>   -10.4334     0.0000     0.0000     0.0000     0.0000     0.0000     0.0000     0.0000     0.0000     0.0000 </r>
        <r>   -10.3553     0.0000     0.0000     0.0000     0.0000     0.0000     0.0000     0.0000     0.0000     0.0000 </r>
        <r>   -10.2771     0.0000     0.0000     0.0000     0.0000     0.0000     0.0000     0.0000     0.0000     0.0000 </r>
        <r>   -10.1989     0.0000     0.0000     0.0000     0.0000     0.0000     0.0000     0.0000     0.0000     0.0000 </r>
        <r>   -10.1208     0.0000     0.0000     0.0000     0.0000     0.0000     0.0000     0.0000     0.0000     0.0000 </r>
        <r>   -10.0426     0.0000     0.0000     0.0000     0.0000     0.0000     0.0000     0.0000     0.0000     0.0000 </r>
        <r>    -9.9644     0.0000     0.0000     0.0000     0.0000     0.0000     0.0000     0.0000     0.0000     0.0000 </r>
        <r>    -9.8862     0.0000     0.0000     0.0000     0.0000     0.0000     0.0000     0.0000     0.0000     0.0000 </r>
        <r>    -9.8081     0.0000     0.0000     0.0000     0.0000     0.0000     0.0000     0.0000     0.0000     0.0000 </r>
        <r>    -9.7299     0.0000     0.0000     0.0000     0.0000     0.0000     0.0000     0.0000     0.0000     0.0000 </r>
        <r>    -9.6517     0.0000     0.0000     0.0000     0.0000     0.0000     0.0000     0.0000     0.0000     0.0000 </r>
        <r>    -9.5735     0.0000     0.0000     0.0000     0.0000     0.0000     0.0000     0.0000     0.0000     0.0000 </r>
        <r>    -9.4954     0.0000     0.0000     0.0000     0.0000     0.0000     0.0000     0.0000     0.0000     0.0000 </r>
        <r>    -9.4172     0.0000     0.0000     0.0000     0.0000     0.0000     0.0000     0.0000     0.0000     0.0000 </r>
        <r>    -9.3390     0.0000     0.0000     0.0000     0.0000     0.0000     0.0000     0.0000     0.0000     0.0000 </r>
        <r>    -9.2608     0.0000     0.0000     0.0000     0.0000     0.0000     0.0000     0.0000     0.0000     0.0000 </r>
        <r>    -9.1827     0.0000     0.0000     0.0000     0.0000     0.0000     0.0000     0.0000     0.0000     0.0000 </r>
        <r>    -9.1045     0.0000     0.0000     0.0000     0.0000     0.0000     0.0000     0.0000     0.0000     0.0000 </r>
        <r>    -9.0263     0.0000     0.0000     0.0000     0.0000     0.0000     0.0000     0.0000     0.0000     0.0000 </r>
        <r>    -8.9481     0.0000     0.0000     0.0000     0.0000     0.0000     0.0000     0.0000     0.0000     0.0000 </r>
        <r>    -8.8700     0.0000     0.0000     0.0000     0.0000     0.0000     0.0000     0.0000     0.0000     0.0000 </r>
        <r>    -8.7918     0.0000     0.0000     0.0000     0.0000     0.0000     0.0000     0.0000     0.0000     0.0000 </r>
        <r>    -8.7136     0.0000     0.0000     0.0000     0.0000     0.0000     0.0000     0.0000     0.0000     0.0000 </r>
        <r>    -8.6355     0.0000     0.0000     0.0000     0.0000     0.0000     0.0000     0.0000     0.0000     0.0000 </r>
        <r>    -8.5573     0.0000     0.0000     0.0000     0.0000     0.0000     0.0000     0.0000     0.0000     0.0000 </r>
        <r>    -8.4791     0.0000     0.0000     0.0000     0.0000     0.0000     0.0000     0.0000     0.0000     0.0000 </r>
        <r>    -8.4009     0.0000     0.0000     0.0000     0.0000     0.0000     0.0000     0.0000     0.0000     0.0000 </r>
        <r>    -8.3228     0.0000     0.0000     0.0000     0.0000     0.0000     0.0000     0.0000     0.0000     0.0000 </r>
        <r>    -8.2446     0.0000     0.0000     0.0000     0.0000     0.0000     0.0000     0.0000     0.0000     0.0000 </r>
        <r>    -8.1664     0.0000     0.0000     0.0000     0.0000     0.0000     0.0000     0.0000     0.0000     0.0000 </r>
        <r>    -8.0882     0.0000     0.0000     0.0000     0.0000     0.0000     0.0000     0.0000     0.0000     0.0000 </r>
        <r>    -8.0101     0.0000     0.0000     0.0000     0.0000     0.0000     0.0000     0.0000     0.0000     0.0000 </r>
        <r>    -7.9319     0.0000     0.0000     0.0000     0.0000     0.0000     0.0000     0.0000     0.0000     0.0000 </r>
        <r>    -7.8537     0.0000     0.0000     0.0000     0.0000     0.0000     0.0000     0.0000     0.0000     0.0000 </r>
        <r>    -7.7755     0.0000     0.0000     0.0000     0.0000     0.0000     0.0000     0.0000     0.0000     0.0000 </r>
        <r>    -7.6974     0.0000     0.0000     0.0000     0.0000     0.0000     0.0000     0.0000     0.0000     0.0000 </r>
        <r>    -7.6192     0.0000     0.0000     0.0000     0.0000     0.0000     0.0000     0.0000     0.0000     0.0000 </r>
        <r>    -7.5410     0.0000     0.0000     0.0000     0.0000     0.0000     0.0000     0.0000     0.0000     0.0000 </r>
        <r>    -7.4629     0.0000     0.0000     0.0000     0.0000     0.0000     0.0000     0.0000     0.0000     0.0000 </r>
        <r>    -7.3847     0.0000     0.0000     0.0000     0.0000     0.0000     0.0000     0.0000     0.0000     0.0000 </r>
        <r>    -7.3065     0.0000     0.0000     0.0000     0.0000     0.0000     0.0000     0.0000     0.0000     0.0000 </r>
        <r>    -7.2283     0.0000     0.0000     0.0000     0.0000     0.0000     0.0000     0.0000     0.0000     0.0000 </r>
        <r>    -7.1502     0.0000     0.0000     0.0000     0.0000     0.0000     0.0000     0.0000     0.0000     0.0000 </r>
        <r>    -7.0720     0.0000     0.0000     0.0000     0.0000     0.0000     0.0000     0.0000     0.0000     0.0000 </r>
        <r>    -6.9938     0.0000     0.0000     0.0000     0.0000     0.0000     0.0000     0.0000     0.0000     0.0000 </r>
        <r>    -6.9156     0.0000     0.0000     0.0000     0.0000     0.0000     0.0000     0.0000     0.0000     0.0000 </r>
        <r>    -6.8375     0.0000     0.0000     0.0000     0.0000     0.0000     0.0000     0.0000     0.0000     0.0000 </r>
        <r>    -6.7593     0.0000     0.0000     0.0000     0.0000     0.0000     0.0000     0.0000     0.0000     0.0000 </r>
        <r>    -6.6811     0.0000     0.0000     0.0000     0.0000     0.0000     0.0000     0.0000     0.0000     0.0000 </r>
        <r>    -6.6029     0.0000     0.0000     0.0000     0.0000     0.0000     0.0000     0.0000     0.0000     0.0000 </r>
        <r>    -6.5248     0.0000     0.0000     0.0000     0.0000     0.0000     0.0000     0.0000     0.0000     0.0000 </r>
        <r>    -6.4466     0.0000     0.0000     0.0000     0.0000     0.0000     0.0000     0.0000     0.0000     0.0000 </r>
        <r>    -6.3684     0.0000     0.0000     0.0000     0.0000     0.0000     0.0000     0.0000     0.0000     0.0000 </r>
        <r>    -6.2902     0.0000     0.0000     0.0000     0.0000     0.0000     0.0000     0.0000     0.0000     0.0000 </r>
        <r>    -6.2121     0.0000     0.0000     0.0000     0.0000     0.0000     0.0000     0.0000     0.0000     0.0000 </r>
        <r>    -6.1339     0.0000     0.0000     0.0000     0.0000     0.0000     0.0000     0.0000     0.0000     0.0000 </r>
        <r>    -6.0557     0.0000     0.0000     0.0000     0.0000     0.0000     0.0000     0.0000     0.0000     0.0000 </r>
        <r>    -5.9776     0.0000     0.0000     0.0000     0.0000     0.0000     0.0000     0.0000     0.0000     0.0000 </r>
        <r>    -5.8994     0.0000     0.0000     0.0000     0.0000     0.0000     0.0000     0.0000     0.0000     0.0000 </r>
        <r>    -5.8212     0.0000     0.0000     0.0000     0.0000     0.0000     0.0000     0.0000     0.0000     0.0000 </r>
        <r>    -5.7430     0.0000     0.0000     0.0000     0.0000     0.0000     0.0000     0.0000     0.0000     0.0000 </r>
        <r>    -5.6649     0.0000     0.0000     0.0000     0.0000     0.0000     0.0000     0.0000     0.0000     0.0000 </r>
        <r>    -5.5867     0.0000     0.0000     0.0000     0.0000     0.0000     0.0000     0.0000     0.0000     0.0000 </r>
        <r>    -5.5085     0.0000     0.0000     0.0000     0.0000     0.0000     0.0000     0.0000     0.0000     0.0000 </r>
        <r>    -5.4303     0.0000     0.0000     0.0000     0.0000     0.0000     0.0000     0.0000     0.0000     0.0000 </r>
        <r>    -5.3522     0.0000     0.0000     0.0000     0.0000     0.0000     0.0000     0.0000     0.0000     0.0000 </r>
        <r>    -5.2740     0.0000     0.0000     0.0000     0.0000     0.0000     0.0000     0.0000     0.0000     0.0000 </r>
        <r>    -5.1958     0.0000     0.0000     0.0000     0.0000     0.0000     0.0000     0.0000     0.0000     0.0000 </r>
        <r>    -5.1176     0.0000     0.0000     0.0000     0.0000     0.0000     0.0000     0.0000     0.0000     0.0000 </r>
        <r>    -5.0395     0.0000     0.0000     0.0000     0.0000     0.0000     0.0000     0.0000     0.0000     0.0000 </r>
        <r>    -4.9613     0.0000     0.0002     0.0002     0.0002     0.0000     0.0000     0.0000     0.0000     0.0000 </r>
        <r>    -4.8831     0.0000     0.2720     0.2720     0.2719     0.0000     0.0000     0.0000     0.0000     0.0000 </r>
        <r>    -4.8050     0.0000     4.5931     4.5932     4.5917     0.0000     0.0000     0.0000     0.0000     0.0000 </r>
        <r>    -4.7268     0.0000     2.4159     2.4159     2.4154     0.0000     0.0000     0.0000     0.0000     0.0000 </r>
        <r>    -4.6486     0.0000     0.0304     0.0304     0.0304     0.0000     0.0000     0.0000     0.0000     0.0000 </r>
        <r>    -4.5704     0.0000     0.0000     0.0000     0.0000     0.0000     0.0000     0.0000     0.0000     0.0000 </r>
        <r>    -4.4923     0.0000     0.0000     0.0000     0.0000     0.0000     0.0000     0.0000     0.0000     0.0000 </r>
        <r>    -4.4141     0.0000     0.0000     0.0000     0.0000     0.0000     0.0000     0.0000     0.0000     0.0000 </r>
        <r>    -4.3359     0.0000     0.0000     0.0000     0.0000     0.0000     0.0000     0.0000     0.0000     0.0000 </r>
        <r>    -4.2577     0.0000     0.0000     0.0000     0.0000     0.0000     0.0000     0.0000     0.0000     0.0000 </r>
        <r>    -4.1796     0.0000     0.0000     0.0000     0.0000     0.0000     0.0000     0.0000     0.0000     0.0000 </r>
        <r>    -4.1014     0.0000     0.0000     0.0000     0.0000     0.0000     0.0000     0.0000     0.0000     0.0000 </r>
        <r>    -4.0232     0.0000     0.0000     0.0000     0.0000     0.0000     0.0000     0.0000     0.0000     0.0000 </r>
        <r>    -3.9450     0.0000     0.0000     0.0000     0.0000     0.0000     0.0000     0.0000     0.0000     0.0000 </r>
        <r>    -3.8669     0.0000     0.0000     0.0000     0.0000     0.0000     0.0000     0.0000     0.0000     0.0000 </r>
        <r>    -3.7887     0.0000     0.0000     0.0000     0.0000     0.0000     0.0000     0.0000     0.0000     0.0000 </r>
        <r>    -3.7105     0.0000     0.0000     0.0000     0.0000     0.0000     0.0000     0.0000     0.0000     0.0000 </r>
        <r>    -3.6324     0.0000     0.0000     0.0000     0.0000     0.0000     0.0000     0.0000     0.0000     0.0000 </r>
        <r>    -3.5542     0.0000     0.0000     0.0000     0.0000     0.0000     0.0000     0.0000     0.0000     0.0000 </r>
        <r>    -3.4760     0.0000     0.0000     0.0000     0.0000     0.0000     0.0000     0.0000     0.0000     0.0000 </r>
        <r>    -3.3978     0.0000     0.0000     0.0000     0.0000     0.0000     0.0000     0.0000     0.0000     0.0000 </r>
        <r>    -3.3197     0.0000     0.0000     0.0000     0.0000     0.0000     0.0000     0.0000     0.0000     0.0000 </r>
        <r>    -3.2415     0.0000     0.0000     0.0000     0.0000     0.0000     0.0000     0.0000     0.0000     0.0000 </r>
        <r>    -3.1633     0.0000     0.0000     0.0000     0.0000     0.0000     0.0000     0.0000     0.0000     0.0000 </r>
        <r>    -3.0851     0.0000     0.0000     0.0000     0.0000     0.0000     0.0000     0.0000     0.0000     0.0000 </r>
        <r>    -3.0070     0.0000     0.0000     0.0000     0.0000     0.0000     0.0000     0.0000     0.0000     0.0000 </r>
        <r>    -2.9288     0.0000     0.0000     0.0000     0.0000     0.0000     0.0000     0.0000     0.0000     0.0000 </r>
        <r>    -2.8506     0.0000     0.0000     0.0000     0.0000     0.0000     0.0000     0.0000     0.0000     0.0000 </r>
        <r>    -2.7724     0.0000     0.0000     0.0000     0.0000     0.0000     0.0000     0.0000     0.0000     0.0000 </r>
        <r>    -2.6943     0.0000     0.0000     0.0000     0.0000     0.0000     0.0000     0.0000     0.0000     0.0000 </r>
        <r>    -2.6161     0.0000     0.0000     0.0000     0.0000     0.0000     0.0000     0.0000     0.0000     0.0000 </r>
        <r>    -2.5379     0.0000     0.0000     0.0000     0.0000     0.0000     0.0000     0.0000     0.0000     0.0000 </r>
        <r>    -2.4597     0.0000     0.0000     0.0000     0.0000     0.0000     0.0000     0.0000     0.0000     0.0000 </r>
        <r>    -2.3816     0.0000     0.0000     0.0000     0.0000     0.0000     0.0000     0.0000     0.0000     0.0000 </r>
        <r>    -2.3034     0.0000     0.0000     0.0000     0.0000     0.0000     0.0000     0.0000     0.0000     0.0000 </r>
        <r>    -2.2252     0.0000     0.0000     0.0000     0.0000     0.0000     0.0000     0.0000     0.0000     0.0000 </r>
        <r>    -2.1471     0.0000     0.0000     0.0000     0.0000     0.0000     0.0000     0.0000     0.0000     0.0000 </r>
        <r>    -2.0689     0.0000     0.0000     0.0000     0.0000     0.0000     0.0000     0.0000     0.0000     0.0000 </r>
        <r>    -1.9907     0.0000     0.0000     0.0000     0.0000     0.0000     0.0000     0.0000     0.0000     0.0000 </r>
[...]
        <r>     4.2632     0.0001     0.0006     0.0007     0.0003     0.1392     0.1320     0.0002     0.1403     0.0003 </r>
        <r>     4.3413     0.0001     0.0011     0.0013     0.0007     0.2633     0.2735     0.0004     0.2541     0.0006 </r>
        <r>     4.4195     0.0000     0.0001     0.0001     0.0000     0.0155     0.0179     0.0000     0.0143     0.0001 </r>
        <r>     4.4977     0.0000     0.0027     0.0000     0.0000     0.0000     0.0002     0.0027     0.0000     0.0106 </r>
        <r>     4.5759     0.0000     0.0106     0.0001     0.0001     0.0000     0.0007     0.0103     0.0000     0.0410 </r>
        <r>     4.6540     0.0000     0.0014     0.0000     0.0000     0.0000     0.0001     0.0013     0.0000     0.0053 </r>
        <r>     4.7322     0.0000     0.0000     0.0000     0.0000     0.0000     0.0000     0.0000     0.0000     0.0000 </r>
        <r>     4.8104     0.0001     0.0025     0.0031     0.0024     0.0000     0.0000     0.0003     0.0000     0.0004 </r>
        <r>     4.8886     0.0033     0.1119     0.1474     0.1208     0.0016     0.0022     0.0553     0.0006     0.0849 </r>
        <r>     4.9667     0.0084     0.1540     0.1930     0.1747     0.0024     0.0033     0.9369     0.0010     1.0026 </r>
        <r>     5.0449     0.1062     0.0104     0.0082     0.0160     0.0001     0.0002     0.6495     0.0001     0.5126 </r>
        <r>     5.1231     0.1274     0.0005     0.0002     0.0080     0.0000     0.0000     0.0171     0.0000     0.0090 </r>
        <r>     5.2013     0.0044     0.0000     0.0000     0.0003     0.0000     0.0000     0.0001     0.0000     0.0000 </r>
        <r>     5.2794     0.0000     0.0000     0.0000     0.0000     0.0000     0.0000     0.0000     0.0000     0.0000 </r>
        <r>     5.3576     0.0000     0.0000     0.0000     0.0000     0.0000     0.0000     0.0000     0.0000     0.0000 </r>
        <r>     5.4358     0.0000     0.0000     0.0000     0.0000     0.0000     0.0000     0.0000     0.0000     0.0000 </r>
        <r>     5.5139     0.0000     0.0000     0.0000     0.0000     0.0000     0.0000     0.0000     0.0000     0.0000 </r>
        <r>     5.5921     0.0000     0.0000     0.0000     0.0000     0.0000     0.0000     0.0000     0.0000     0.0000 </r>
        <r>     5.6703     0.0000     0.0000     0.0000     0.0000     0.0000     0.0000     0.0000     0.0000     0.0000 </r>
        <r>     5.7485     0.0000     0.0000     0.0000     0.0000     0.0000     0.0000     0.0000     0.0000     0.0000 </r>
        <r>     5.8266     0.0000     0.0000     0.0000     0.0000     0.0000     0.0000     0.0000     0.0000     0.0000 </r>
        <r>     5.9048     0.0000     0.0000     0.0000     0.0000     0.0000     0.0000     0.0000     0.0000     0.0000 </r>
        <r>     5.9830     0.0000     0.0000     0.0000     0.0000     0.0000     0.0000     0.0000     0.0000     0.0000 </r>
        <r>     6.0612     0.0000     0.0000     0.0000     0.0000     0.0000     0.0000     0.0000     0.0000     0.0000 </r>
        <r>     6.1393     0.0000     0.0000     0.0000     0.0000     0.0000     0.0000     0.0000     0.0000     0.0000 </r>
        <r>     6.2175     0.0000     0.0000     0.0000     0.0000     0.0000     0.0000     0.0000     0.0000     0.0000 </r>
        <r>     6.2957     0.0000     0.0000     0.0000     0.0000     0.0000     0.0001     0.0000     0.0001     0.0000 </r>
        <r>     6.3739     0.0026     0.0001     0.0016     0.0010     0.0013     0.0524     0.0007     0.0591     0.0005 </r>
        <r>     6.4520     0.0211     0.0113     0.0143     0.0126     0.0429     0.4241     0.0064     0.4806     0.0105 </r>
        <r>     6.5302     0.0058     0.0697     0.0121     0.0331     0.2111     0.1200     0.0068     0.1512     0.0426 </r>
        <r>     6.6084     0.0001     0.0148     0.0019     0.0066     0.0445     0.0020     0.0014     0.0063     0.0088 </r>
        <r>     6.6865     0.0025     0.0005     0.0025     0.0015     0.0187     0.0078     0.0480     0.1011     0.0001 </r>
        <r>     6.7647     0.0083     0.0015     0.0084     0.0049     0.0626     0.0263     0.1628     0.3424     0.0001 </r>
        <r>     6.8429     0.0009     0.0002     0.0009     0.0006     0.0070     0.0029     0.0183     0.0384     0.0000 </r>
        <r>     6.9211     0.0000     0.0000     0.0000     0.0000     0.0000     0.0000     0.0000     0.0001     0.0000 </r>
        <r>     6.9992     0.0000     0.0000     0.0000     0.0000     0.0000     0.0000     0.0000     0.0000     0.0000 </r>
        <r>     7.0774     0.0000     0.0000     0.0000     0.0000     0.0000     0.0000     0.0000     0.0000     0.0000 </r>
        <r>     7.1556     0.0000     0.0000     0.0000     0.0000     0.0000     0.0000     0.0000     0.0000     0.0000 </r>
        <r>     7.2338     0.0000     0.0000     0.0000     0.0000     0.0000     0.0000     0.0000     0.0000     0.0000 </r>
        <r>     7.3119     0.0000     0.0000     0.0000     0.0000     0.0000     0.0000     0.0000     0.0000     0.0000 </r>
        <r>     7.3901     0.0000     0.0000     0.0000     0.0000     0.0000     0.0000     0.0000     0.0000     0.0000 </r>
        <r>     7.4683     0.0000     0.0000     0.0000     0.0000     0.0000     0.0000     0.0000     0.0000     0.0000 </r>
        <r>     7.5465     0.0000     0.0000     0.0000     0.0000     0.0000     0.0000     0.0000     0.0000     0.0000 </r>
        <r>     7.6246     0.0000     0.0000     0.0000     0.0000     0.0000     0.0000     0.0000     0.0000     0.0000 </r>
        <r>     7.7028     0.0000     0.0000     0.0000     0.0000     0.0000     0.0000     0.0000     0.0000     0.0000 </r>
        <r>     7.7810     0.0000     0.0000     0.0000     0.0000     0.0000     0.0000     0.0000     0.0000     0.0000 </r>
       </set>
      </set>
     </set>
    </array>
   </partial>
  </dos>
  <projected>
   <eigenvalues>
    <array>
     <dimension dim="1">band</dimension>
     <dimension dim="2">kpoint</dimension>
     <dimension dim="3">spin</dimension>
     <field>eigene</field>
     <field>occ</field>
     <set>
      <set comment="spin 1">
       <set comment="kpoint 1">
        <r>  -14.6051    1.0000 </r>
        <r>   -4.8201    1.0000 </r>
        <r>   -4.8201    1.0000 </r>
        <r>   -4.8201    1.0000 </r>
        <r>   -0.7289    0.0000 </r>
        <r>    0.7293    0.0000 </r>
        <r>    0.7295    0.0000 </r>
        <r>    1.1172    0.0000 </r>
        <r>    1.1400    0.0000 </r>
        <r>    1.1495    0.0000 </r>
        <r>    1.1676    0.0000 </r>
        <r>    1.4801    0.0000 </r>
        <r>    1.4801    0.0000 </r>
        <r>    1.4811    0.0000 </r>
        <r>    2.4549    0.0000 </r>
        <r>    2.4557    0.0000 </r>
        <r>    2.4826    0.0000 </r>
        <r>    2.4898    0.0000 </r>
        <r>    2.4923    0.0000 </r>
        <r>    2.8585    0.0000 </r>
        <r>    2.8664    0.0000 </r>
        <r>    2.9061    0.0000 </r>
        <r>    3.0390    0.0000 </r>
        <r>    3.5753    0.0000 </r>
        <r>    3.6325    0.0000 </r>
        <r>    3.6336    0.0000 </r>
        <r>    3.6337    0.0000 </r>
        <r>    3.9058    0.0000 </r>
        <r>    3.9085    0.0000 </r>
        <r>    4.1883    0.0000 </r>
        <r>    4.2464    0.0000 </r>
        <r>    4.2645    0.0000 </r>
        <r>    4.2807    0.0000 </r>
        <r>    5.3976    0.0000 </r>
        <r>    5.6171    0.0000 </r>
        <r>    5.7246    0.0000 </r>
       </set>
      </set>
      <set comment="spin 2">
       <set comment="kpoint 1">
        <r>  -13.0882    1.0000 </r>
        <r>   -3.0253    0.0000 </r>
        <r>   -3.0253    0.0000 </r>
        <r>   -3.0250    0.0000 </r>
        <r>    0.1492    0.0000 </r>
        <r>    1.5802    0.0000 </r>
        <r>    1.5803    0.0000 </r>
        <r>    1.7644    0.0000 </r>
        <r>    1.8884    0.0000 </r>
        <r>    1.8889    0.0000 </r>
        <r>    1.8891    0.0000 </r>
        <r>    2.6668    0.0000 </r>
        <r>    2.6669    0.0000 </r>
        <r>    2.6669    0.0000 </r>
        <r>    3.0394    0.0000 </r>
        <r>    3.0400    0.0000 </r>
        <r>    3.1916    0.0000 </r>
        <r>    3.1932    0.0000 </r>
        <r>    3.1953    0.0000 </r>
        <r>    3.5952    0.0000 </r>
        <r>    3.5958    0.0000 </r>
        <r>    3.6020    0.0000 </r>
        <r>    3.6120    0.0000 </r>
        <r>    4.2765    0.0000 </r>
        <r>    4.2782    0.0000 </r>
        <r>    4.2809    0.0000 </r>
        <r>    4.5291    0.0000 </r>
        <r>    4.8879    0.0000 </r>
        <r>    4.8972    0.0000 </r>
        <r>    4.9022    0.0000 </r>
        <r>    4.9454    0.0000 </r>
        <r>    4.9630    0.0000 </r>
        <r>    5.0494    0.0000 </r>
        <r>    6.4215    0.0000 </r>
        <r>    6.4944    0.0000 </r>
        <r>    6.7150    0.0000 </r>
       </set>
      </set>
     </set>
    </array>
   </eigenvalues>
   <array>
    <dimension dim="1">ion</dimension>
    <dimension dim="2">band</dimension>
    <dimension dim="3">kpoint</dimension>
    <dimension dim="4">spin</dimension>
    <field>    s</field>
    <field>   py</field>
    <field>   pz</field>
    <field>   px</field>
    <field>  dxy</field>
    <field>  dyz</field>
    <field>  dz2</field>
    <field>  dxz</field>
    <field>x2-y2</field>
    <set>
     <set comment="spin1">
      <set comment="kpoint 1">
       <set comment="band 1">
        <r>  0.8767  0.0000  0.0000  0.0000  0.0000  0.0000  0.0000  0.0000  0.0000 </r>
       </set>
       <set comment="band 2">
        <r>  0.0000  0.0360  0.5329  0.0027  0.0000  0.0000  0.0000  0.0000  0.0000 </r>
       </set>
       <set comment="band 3">
        <r>  0.0000  0.5148  0.0306  0.0262  0.0000  0.0000  0.0000  0.0000  0.0000 </r>
       </set>
       <set comment="band 4">
        <r>  0.0000  0.0208  0.0081  0.5425  0.0000  0.0000  0.0000  0.0000  0.0000 </r>
       </set>
       <set comment="band 5">
        <r>  0.0268  0.0000  0.0000  0.0000  0.0000  0.0000  0.0000  0.0000  0.0000 </r>
       </set>
       <set comment="band 6">
        <r>  0.0000  0.0000  0.0000  0.0000  0.0000  0.0000  0.0109  0.0000  0.0099 </r>
       </set>
       <set comment="band 7">
        <r>  0.0000  0.0000  0.0000  0.0000  0.0000  0.0000  0.0098  0.0000  0.0108 </r>
       </set>
       <set comment="band 8">
        <r>  0.0000  0.0144  0.0225  0.0062  0.0000  0.0000  0.0000  0.0000  0.0000 </r>
       </set>
       <set comment="band 9">
        <r>  0.0047  0.0011  0.0113  0.0227  0.0004  0.0000  0.0000  0.0000  0.0000 </r>
       </set>
       <set comment="band 10">
        <r>  0.0090  0.0140  0.0010  0.0135  0.0001  0.0000  0.0000  0.0000  0.0000 </r>
       </set>
       <set comment="band 11">
        <r>  0.0141  0.0125  0.0079  0.0000  0.0000  0.0000  0.0000  0.0000  0.0000 </r>
       </set>
       <set comment="band 12">
        <r>  0.0000  0.0000  0.0000  0.0001  0.0449  0.0095  0.0000  0.0022  0.0000 </r>
       </set>
       <set comment="band 13">
        <r>  0.0000  0.0000  0.0000  0.0002  0.0109  0.0443  0.0000  0.0014  0.0000 </r>
       </set>
       <set comment="band 14">
        <r>  0.0000  0.0000  0.0000  0.0000  0.0007  0.0031  0.0000  0.0535  0.0000 </r>
       </set>
       <set comment="band 15">
        <r>  0.0000  0.0000  0.0000  0.0000  0.0000  0.0000  0.0015  0.0000  0.0263 </r>
       </set>
       <set comment="band 16">
        <r>  0.0000  0.0000  0.0000  0.0000  0.0000  0.0000  0.0257  0.0000  0.0014 </r>
       </set>
       <set comment="band 17">
        <r>  0.0000  0.0000  0.0000  0.0002  0.0000  0.0000  0.0001  0.0000  0.0000 </r>
       </set>
       <set comment="band 18">
        <r>  0.0000  0.0008  0.0003  0.0009  0.0000  0.0000  0.0006  0.0000  0.0000 </r>
       </set>
       <set comment="band 19">
        <r>  0.0000  0.0001  0.0002  0.0004  0.0000  0.0000  0.0001  0.0000  0.0000 </r>
       </set>
       <set comment="band 20">
        <r>  0.0010  0.0189  0.0095  0.0223  0.0000  0.0000  0.0000  0.0000  0.0002 </r>
       </set>
       <set comment="band 21">
        <r>  0.0006  0.0095  0.0145  0.0278  0.0000  0.0000  0.0001  0.0000  0.0000 </r>
       </set>
       <set comment="band 22">
        <r>  0.0069  0.0140  0.0264  0.0010  0.0000  0.0000  0.0001  0.0001  0.0001 </r>
       </set>
       <set comment="band 23">
        <r>  0.0251  0.0107  0.0017  0.0001  0.0000  0.0000  0.0000  0.0000  0.0001 </r>
       </set>
       <set comment="band 24">
        <r>  0.0000  0.0000  0.0004  0.0001  0.0000  0.0000  0.0013  0.0002  0.0021 </r>
       </set>
       <set comment="band 25">
        <r>  0.0000  0.0001  0.0000  0.0000  0.0063  0.0140  0.0000  0.0185  0.0000 </r>
       </set>
       <set comment="band 26">
        <r>  0.0000  0.0000  0.0000  0.0000  0.0054  0.0131  0.0000  0.0196  0.0004 </r>
       </set>
       <set comment="band 27">
        <r>  0.0000  0.0000  0.0000  0.0000  0.0266  0.0115  0.0000  0.0000  0.0000 </r>
       </set>
       <set comment="band 28">
        <r>  0.0000  0.0001  0.0003  0.0004  0.0000  0.0000  0.0139  0.0001  0.1133 </r>
       </set>
       <set comment="band 29">
        <r>  0.0000  0.0000  0.0000  0.0000  0.0000  0.0000  0.1174  0.0000  0.0151 </r>
       </set>
       <set comment="band 30">
        <r>  0.0023  0.0045  0.0001  0.0010  0.0008  0.0000  0.0000  0.0007  0.0013 </r>
       </set>
       <set comment="band 31">
        <r>  0.0037  0.0000  0.0026  0.0027  0.0000  0.0000  0.0001  0.0001  0.0001 </r>
       </set>
       <set comment="band 32">
        <r>  0.0002  0.0009  0.0028  0.0029  0.0139  0.0020  0.0000  0.0024  0.0001 </r>
       </set>
       <set comment="band 33">
        <r>  0.0045  0.0016  0.0014  0.0001  0.0001  0.0003  0.0001  0.0006  0.0004 </r>
       </set>
       <set comment="band 34">
        <r>  0.0000  0.0000  0.0000  0.0001  0.0258  0.1103  0.0002  0.0172  0.0000 </r>
       </set>
       <set comment="band 35">
        <r>  0.0096  0.0002  0.0005  0.0003  0.0525  0.0079  0.0002  0.0010  0.0003 </r>
       </set>
       <set comment="band 36">
        <r>  0.0001  0.0001  0.0006  0.0003  0.0009  0.0073  0.0030  0.0726  0.0001 </r>
       </set>
      </set>
     </set>
     <set comment="spin2">
      <set comment="kpoint 1">
       <set comment="band 1">
        <r>  0.8606  0.0000  0.0000  0.0000  0.0000  0.0000  0.0000  0.0000  0.0000 </r>
       </set>
       <set comment="band 2">
        <r>  0.0000  0.0035  0.5375  0.0030  0.0000  0.0000  0.0000  0.0000  0.0000 </r>
       </set>
       <set comment="band 3">
        <r>  0.0000  0.0012  0.0027  0.5394  0.0000  0.0000  0.0000  0.0000  0.0000 </r>
       </set>
       <set comment="band 4">
        <r>  0.0000  0.5369  0.0037  0.0009  0.0000  0.0000  0.0000  0.0000  0.0000 </r>
       </set>
       <set comment="band 5">
        <r>  0.0166  0.0000  0.0000  0.0000  0.0000  0.0000  0.0000  0.0000  0.0000 </r>
       </set>
       <set comment="band 6">
        <r>  0.0000  0.0000  0.0000  0.0000  0.0000  0.0000  0.0055  0.0000  0.0048 </r>
       </set>
       <set comment="band 7">
        <r>  0.0000  0.0000  0.0000  0.0000  0.0000  0.0000  0.0048  0.0000  0.0055 </r>
       </set>
       <set comment="band 8">
        <r>  0.0270  0.0000  0.0000  0.0000  0.0000  0.0000  0.0000  0.0000  0.0000 </r>
       </set>
       <set comment="band 9">
        <r>  0.0000  0.0000  0.0206  0.0089  0.0000  0.0000  0.0000  0.0000  0.0000 </r>
       </set>
       <set comment="band 10">
        <r>  0.0000  0.0166  0.0036  0.0094  0.0000  0.0000  0.0000  0.0000  0.0000 </r>
       </set>
       <set comment="band 11">
        <r>  0.0000  0.0143  0.0051  0.0107  0.0000  0.0000  0.0000  0.0000  0.0000 </r>
       </set>
       <set comment="band 12">
        <r>  0.0000  0.0000  0.0000  0.0000  0.0032  0.0071  0.0000  0.0308  0.0000 </r>
       </set>
       <set comment="band 13">
        <r>  0.0000  0.0000  0.0000  0.0000  0.0187  0.0126  0.0000  0.0098  0.0000 </r>
       </set>
       <set comment="band 14">
        <r>  0.0000  0.0000  0.0000  0.0000  0.0193  0.0211  0.0000  0.0006  0.0000 </r>
       </set>
       <set comment="band 15">
        <r>  0.0000  0.0000  0.0000  0.0000  0.0000  0.0000  0.0180  0.0000  0.0001 </r>
       </set>
       <set comment="band 16">
        <r>  0.0000  0.0000  0.0000  0.0000  0.0000  0.0000  0.0001  0.0000  0.0179 </r>
       </set>
       <set comment="band 17">
        <r>  0.0000  0.0000  0.0001  0.0000  0.0000  0.0000  0.0000  0.0000  0.0001 </r>
       </set>
       <set comment="band 18">
        <r>  0.0000  0.0001  0.0001  0.0000  0.0000  0.0000  0.0000  0.0000  0.0000 </r>
       </set>
       <set comment="band 19">
        <r>  0.0000  0.0001  0.0000  0.0001  0.0000  0.0000  0.0000  0.0000  0.0000 </r>
       </set>
       <set comment="band 20">
        <r>  0.0000  0.0388  0.0152  0.0000  0.0000  0.0000  0.0000  0.0000  0.0000 </r>
       </set>
       <set comment="band 21">
        <r>  0.0001  0.0006  0.0020  0.0522  0.0000  0.0000  0.0001  0.0001  0.0000 </r>
       </set>
       <set comment="band 22">
        <r>  0.0000  0.0154  0.0328  0.0026  0.0001  0.0000  0.0001  0.0002  0.0001 </r>
       </set>
       <set comment="band 23">
        <r>  0.0333  0.0000  0.0000  0.0001  0.0000  0.0000  0.0000  0.0000  0.0000 </r>
       </set>
       <set comment="band 24">
        <r>  0.0000  0.0001  0.0001  0.0000  0.0000  0.0045  0.0000  0.0275  0.0001 </r>
       </set>
       <set comment="band 25">
        <r>  0.0000  0.0001  0.0001  0.0000  0.0327  0.0001  0.0000  0.0001  0.0000 </r>
       </set>
       <set comment="band 26">
        <r>  0.0000  0.0000  0.0000  0.0000  0.0001  0.0287  0.0000  0.0045  0.0000 </r>
       </set>
       <set comment="band 27">
        <r>  0.0000  0.0011  0.0000  0.0000  0.0000  0.0001  0.0011  0.0000  0.0045 </r>
       </set>
       <set comment="band 28">
        <r>  0.0001  0.0099  0.0072  0.0068  0.0000  0.0000  0.0011  0.0000  0.0004 </r>
       </set>
       <set comment="band 29">
        <r>  0.0000  0.0021  0.0195  0.0045  0.0002  0.0004  0.0005  0.0001  0.0012 </r>
       </set>
       <set comment="band 30">
        <r>  0.0005  0.0086  0.0006  0.0124  0.0001  0.0001  0.0000  0.0000  0.0024 </r>
       </set>
       <set comment="band 31">
        <r>  0.0001  0.0011  0.0000  0.0000  0.0000  0.0000  0.0371  0.0000  0.0821 </r>
       </set>
       <set comment="band 32">
        <r>  0.0001  0.0000  0.0001  0.0003  0.0000  0.0000  0.0904  0.0000  0.0395 </r>
       </set>
       <set comment="band 33">
        <r>  0.0187  0.0001  0.0000  0.0012  0.0000  0.0000  0.0006  0.0000  0.0002 </r>
       </set>
       <set comment="band 34">
        <r>  0.0023  0.0000  0.0014  0.0008  0.0011  0.0461  0.0006  0.0520  0.0004 </r>
       </set>
       <set comment="band 35">
        <r>  0.0000  0.0075  0.0009  0.0033  0.0223  0.0007  0.0006  0.0025  0.0045 </r>
       </set>
       <set comment="band 36">
        <r>  0.0009  0.0002  0.0009  0.0005  0.0069  0.0029  0.0179  0.0377  0.0000 </r>
       </set>
      </set>
     </set>
    </set>
   </array>
  </projected>
 </calculation>
 <structure name="finalpos" >
  <crystal>
   <varray name="basis" >
    <v>      10.00000000       0.00000000       0.00000000 </v>
    <v>       0.00000000      10.00000000       0.00000000 </v>
    <v>       0.00000000       0.00000000      10.00000000 </v>
   </varray>
   <i name="volume">   1000.00000000 </i>
   <varray name="rec_basis" >
    <v>       0.10000000       0.00000000       0.00000000 </v>
    <v>       0.00000000       0.10000000       0.00000000 </v>
    <v>       0.00000000       0.00000000       0.10000000 </v>
   </varray>
  </crystal>
  <varray name="positions" >
   <v>       0.50000000       0.50000000       0.50000000 </v>
  </varray>
 </structure>
</modeling>
