       N       E                     dE             d eps       ncg     rms          ort
DAV:   1     0.805619465642E+02    0.80562E+02   -0.24455E+03    36   0.172E+02
DAV:   2     0.659226809922E+02   -0.14639E+02   -0.14616E+02    36   0.245E+01
DAV:   3     0.423255772160E+02   -0.23597E+02   -0.22851E+02    36   0.674E+00
DAV:   4     0.106275909915E+02   -0.31698E+02   -0.30587E+02    36   0.293E+01
DAV:   5     0.221083453807E+01   -0.84168E+01   -0.84168E+01    36   0.143E+01
SDA:   6     0.234315413020E+01    0.13232E+00   -0.41664E+01    36   0.104E+02 0.000E+00
DMP:   7     0.391627382264E+00   -0.19515E+01   -0.41219E+00    36   0.117E+01-0.355E+00
DMP:   8     0.225956656235E+00   -0.16567E+00   -0.41710E+00    36   0.115E+01-0.286E+00
DMP:   9     0.764909662325E-02   -0.21831E+00   -0.44069E-01    36   0.962E-01 0.366E-01
DMP:  10     0.191494909908E-01    0.11500E-01   -0.34757E-01    36   0.153E+00-0.172E+00
DMP:  11    -0.668923981141E-02   -0.25839E-01   -0.28194E-01    36   0.549E-01 0.408E-01
DMP:  12    -0.211280664109E-01   -0.14439E-01   -0.33886E-02    36   0.791E-02 0.147E-02
DMP:  13    -0.223308532105E-01   -0.12028E-02   -0.29715E-02    36   0.841E-02-0.257E-02
DMP:  14    -0.242130288802E-01   -0.18822E-02   -0.10040E-02    36   0.176E-02 0.197E-02
DMP:  15    -0.246273148296E-01   -0.41429E-03   -0.18269E-03    36   0.626E-03-0.443E-03
DMP:  16    -0.247343139665E-01   -0.10700E-03   -0.21305E-03    36   0.506E-03 0.706E-04
DMP:  17    -0.248805434892E-01   -0.14623E-03   -0.74535E-04    36   0.112E-03 0.195E-03
DMP:  18    -0.249205571644E-01   -0.40014E-04   -0.17362E-04    36   0.383E-04 0.134E-04
   1 F= -.24920557E-01 E0= -.24920557E-01  d E =-.249206E-01  mag=     0.0000
