<?xml version="1.0" encoding="ISO-8859-1"?>
<modeling>
 <generator>
  <i name="program" type="string">vasp </i>
  <i name="version" type="string">5.4.4.18Apr17-6-g9f103f2a35  </i>
  <i name="subversion" type="string">(build Nov 08 2019 15:19:53) gamma-only         parallel </i>
  <i name="platform" type="string">LinuxIFC </i>
  <i name="date" type="string">2020 11 30 </i>
  <i name="time" type="string">09:31:39 </i>
 </generator>
 <incar>
  <i type="string" name="PREC">accurate</i>
  <i type="string" name="ALGO"> D</i>
  <i type="int" name="ISPIN">     2</i>
  <i type="int" name="NELM">   300</i>
  <i type="int" name="IBRION">     2</i>
  <i name="EDIFF">      0.00005000</i>
  <i type="int" name="NSW">    99</i>
  <i type="int" name="ISIF">     2</i>
  <i name="ENCUT">    520.00000000</i>
  <v name="MAGMOM">      0.60000000</v>
  <i type="string" name="LREAL"> Auto</i>
  <i type="int" name="ISMEAR">     0</i>
  <i name="SIGMA">      0.05000000</i>
  <i type="logical" name="LWAVE"> F  </i>
  <i type="int" name="LORBIT">    11</i>
  <i type="logical" name="LASPH"> T  </i>
  <v type="int" name="KPOINT_BSE">    -1     0     0     0</v>
  <i type="int" name="NELM">   300</i>
  <i type="logical" name="LASPH"> T  </i>
 </incar>
 <structure name="primitive_cell" >
  <crystal>
   <varray name="basis" >
    <v>      10.00000000       0.00000000       0.00000000 </v>
    <v>       0.00000000      10.00000000       0.00000000 </v>
    <v>       0.00000000       0.00000000      10.00000000 </v>
   </varray>
   <i name="volume">   1000.00000000 </i>
   <varray name="rec_basis" >
    <v>       0.10000000       0.00000000       0.00000000 </v>
    <v>       0.00000000       0.10000000       0.00000000 </v>
    <v>       0.00000000       0.00000000       0.10000000 </v>
   </varray>
  </crystal>
  <varray name="positions" >
   <v>      -0.50000000      -0.50000000      -0.50000000 </v>
  </varray>
 </structure>
 <varray name="primitive_index" >
  <v type="int" >        1 </v>
 </varray>
 <kpoints>
  <generation param="Gamma">
   <v type="int" name="divisions">       1        1        1 </v>
   <v name="usershift">      0.00000000       0.00000000       0.00000000 </v>
   <v name="genvec1">      1.00000000       0.00000000       0.00000000 </v>
   <v name="genvec2">      0.00000000       1.00000000       0.00000000 </v>
   <v name="genvec3">      0.00000000       0.00000000       1.00000000 </v>
   <v name="shift">      0.00000000       0.00000000       0.00000000 </v>
  </generation>
  <varray name="kpointlist" >
   <v>       0.00000000       0.00000000       0.00000000 </v>
  </varray>
  <varray name="weights" >
   <v>       1.00000000 </v>
  </varray>
 </kpoints>
 <parameters>
  <separator name="general" >
   <i type="string" name="SYSTEM">unknown system</i>
   <i type="logical" name="LCOMPAT"> F  </i>
  </separator>
  <separator name="electronic" >
   <i type="string" name="PREC">accura</i>
   <i name="ENMAX">    520.00000000</i>
   <i name="ENAUG">    482.93000000</i>
   <i name="EDIFF">      0.00005000</i>
   <i type="int" name="IALGO">    53</i>
   <i type="int" name="IWAVPR">    11</i>
   <i type="int" name="NBANDS">    36</i>
   <i name="NELECT">      8.00000000</i>
   <i type="int" name="TURBO">     0</i>
   <i type="int" name="IRESTART">     0</i>
   <i type="int" name="NREBOOT">     0</i>
   <i type="int" name="NMIN">     0</i>
   <i name="EREF">      0.00000000</i>
   <separator name="electronic smearing" >
    <i type="int" name="ISMEAR">     0</i>
    <i name="SIGMA">      0.05000000</i>
    <i name="KSPACING">      0.50000000</i>
    <i type="logical" name="KGAMMA"> T  </i>
   </separator>
   <separator name="electronic projectors" >
    <i type="logical" name="LREAL"> T  </i>
    <v name="ROPT">     -0.00025000</v>
    <i type="int" name="LMAXPAW">  -100</i>
    <i type="int" name="LMAXMIX">     2</i>
    <i type="logical" name="NLSPLINE"> F  </i>
   </separator>
   <separator name="electronic startup" >
    <i type="int" name="ISTART">     0</i>
    <i type="int" name="ICHARG">     2</i>
    <i type="int" name="INIWAV">     1</i>
   </separator>
   <separator name="electronic spin" >
    <i type="int" name="ISPIN">     2</i>
    <i type="logical" name="LNONCOLLINEAR"> F  </i>
    <v name="MAGMOM">      0.60000000</v>
    <i name="NUPDOWN">     -1.00000000</i>
    <i type="logical" name="LSORBIT"> F  </i>
    <v name="SAXIS">      0.00000000      0.00000000      1.00000000</v>
    <i type="logical" name="LSPIRAL"> F  </i>
    <v name="QSPIRAL">      0.00000000      0.00000000      0.00000000</v>
    <i type="logical" name="LZEROZ"> F  </i>
   </separator>
   <separator name="electronic exchange-correlation" >
    <i type="logical" name="LASPH"> T  </i>
    <i type="logical" name="LMETAGGA"> F  </i>
   </separator>
   <separator name="electronic convergence" >
    <i type="int" name="NELM">   300</i>
    <i type="int" name="NELMDL">    -5</i>
    <i type="int" name="NELMIN">     2</i>
    <i name="ENINI">    520.00000000</i>
    <separator name="electronic convergence detail" >
     <i type="logical" name="LDIAG"> T  </i>
     <i type="logical" name="LSUBROT"> F  </i>
     <i name="WEIMIN">      0.00100000</i>
     <i name="EBREAK">      0.00000035</i>
     <i name="DEPER">      0.30000000</i>
     <i type="int" name="NRMM">     4</i>
     <i name="TIME">      0.40000000</i>
    </separator>
   </separator>
   <separator name="electronic mixer" >
    <i name="AMIX">      0.40000000</i>
    <i name="BMIX">      1.00000000</i>
    <i name="AMIN">      0.10000000</i>
    <i name="AMIX_MAG">      1.60000000</i>
    <i name="BMIX_MAG">      1.00000000</i>
    <separator name="electronic mixer details" >
     <i type="int" name="IMIX">     4</i>
     <i type="logical" name="MIXFIRST"> F  </i>
     <i type="int" name="MAXMIX">   -45</i>
     <i name="WC">    100.00000000</i>
     <i type="int" name="INIMIX">     1</i>
     <i type="int" name="MIXPRE">     1</i>
     <i type="int" name="MREMOVE">     5</i>
    </separator>
   </separator>
   <separator name="electronic dipolcorrection" >
    <i type="logical" name="LDIPOL"> F  </i>
    <i type="logical" name="LMONO"> F  </i>
    <i type="int" name="IDIPOL">     0</i>
    <i name="EPSILON">      1.00000000</i>
    <v name="DIPOL">   -100.00000000   -100.00000000   -100.00000000</v>
    <i name="EFIELD">      0.00000000</i>
   </separator>
  </separator>
  <separator name="grids" >
   <i type="int" name="NGX">    80</i>
   <i type="int" name="NGY">    80</i>
   <i type="int" name="NGZ">    80</i>
   <i type="int" name="NGXF">   160</i>
   <i type="int" name="NGYF">   160</i>
   <i type="int" name="NGZF">   160</i>
   <i type="logical" name="ADDGRID"> F  </i>
  </separator>
  <separator name="ionic" >
   <i type="int" name="NSW">    99</i>
   <i type="int" name="IBRION">     2</i>
   <i type="int" name="MDALGO">     0</i>
   <i type="int" name="ISIF">     2</i>
   <i name="PSTRESS">      0.00000000</i>
   <i name="EDIFFG">      0.00050000</i>
   <i type="int" name="NFREE">     1</i>
   <i name="POTIM">      0.50000000</i>
   <i name="SMASS">     -3.00000000</i>
   <i name="SCALEE">      1.00000000</i>
  </separator>
  <separator name="ionic md" >
   <i name="TEBEG">      0.00010000</i>
   <i name="TEEND">      0.00010000</i>
   <i type="int" name="NBLOCK">     1</i>
   <i type="int" name="KBLOCK">    99</i>
   <i type="int" name="NPACO">   256</i>
   <i name="APACO">     16.00000000</i>
  </separator>
  <separator name="symmetry" >
   <i type="int" name="ISYM">     2</i>
   <i name="SYMPREC">      0.00001000</i>
  </separator>
  <separator name="dos" >
   <i type="int" name="LORBIT">    11</i>
   <v name="RWIGS">     -1.00000000</v>
   <i type="int" name="NEDOS">   301</i>
   <i name="EMIN">     10.00000000</i>
   <i name="EMAX">    -10.00000000</i>
   <i name="EFERMI">      0.00000000</i>
  </separator>
  <separator name="writing" >
   <i type="int" name="NWRITE">     2</i>
   <i type="logical" name="LWAVE"> F  </i>
   <i type="logical" name="LDOWNSAMPLE"> F  </i>
   <i type="logical" name="LCHARG"> T  </i>
   <i type="logical" name="LPARD"> F  </i>
   <i type="logical" name="LVTOT"> F  </i>
   <i type="logical" name="LVHAR"> F  </i>
   <i type="logical" name="LELF"> F  </i>
   <i type="logical" name="LOPTICS"> F  </i>
   <v name="STM">      0.00000000      0.00000000      0.00000000      0.00000000      0.00000000      0.00000000      0.00000000</v>
  </separator>
  <separator name="performance" >
   <i type="int" name="NPAR">    36</i>
   <i type="int" name="NSIM">     4</i>
   <i type="int" name="NBLK">    -1</i>
   <i type="logical" name="LPLANE"> T  </i>
   <i type="logical" name="LSCALAPACK"> T  </i>
   <i type="logical" name="LSCAAWARE"> F  </i>
   <i type="logical" name="LSCALU"> F  </i>
   <i type="logical" name="LASYNC"> F  </i>
   <i type="logical" name="LORBITALREAL"> F  </i>
  </separator>
  <separator name="miscellaneous" >
   <i type="int" name="IDIOT">     3</i>
   <i type="int" name="ISPECIAL">     0</i>
   <i type="logical" name="LMUSIC"> F  </i>
   <v name="POMASS">     39.94900000</v>
   <v name="DARWINR">      0.00000000</v>
   <v name="DARWINV">      1.00000000</v>
   <i type="logical" name="LCORR"> T  </i>
  </separator>
  <i type="logical" name="GGA_COMPAT"> T  </i>
  <i type="logical" name="LBERRY"> F  </i>
  <i type="int" name="ICORELEVEL">     0</i>
  <i type="logical" name="LDAU"> F  </i>
  <i type="int" name="I_CONSTRAINED_M">     0</i>
  <separator name="electronic exchange-correlation" >
   <i type="string" name="GGA">--</i>
   <i type="int" name="VOSKOWN">     0</i>
   <i type="logical" name="LHFCALC"> F  </i>
   <i type="string" name="PRECFOCK"></i>
   <i type="logical" name="LSYMGRAD"> F  </i>
   <i type="logical" name="LHFONE"> F  </i>
   <i type="logical" name="LRHFCALC"> F  </i>
   <i type="logical" name="LTHOMAS"> F  </i>
   <i type="logical" name="LMODELHF"> F  </i>
   <i name="ENCUT4O">     -1.00000000</i>
   <i type="int" name="EXXOEP">     0</i>
   <i type="int" name="FOURORBIT">     0</i>
   <i name="AEXX">      0.00000000</i>
   <i name="HFALPHA">      0.00000000</i>
   <i name="MCALPHA">      0.00000000</i>
   <i name="ALDAX">      1.00000000</i>
   <i name="AGGAX">      1.00000000</i>
   <i name="ALDAC">      1.00000000</i>
   <i name="AGGAC">      1.00000000</i>
   <i type="int" name="NKREDX">     1</i>
   <i type="int" name="NKREDY">     1</i>
   <i type="int" name="NKREDZ">     1</i>
   <i type="logical" name="SHIFTRED"> F  </i>
   <i type="logical" name="ODDONLY"> F  </i>
   <i type="logical" name="EVENONLY"> F  </i>
   <i type="int" name="LMAXFOCK">     0</i>
   <i type="int" name="NMAXFOCKAE">     0</i>
   <i type="logical" name="LFOCKAEDFT"> F  </i>
   <i name="HFSCREEN">      0.00000000</i>
   <i name="HFSCREENC">      0.00000000</i>
   <i type="int" name="NBANDSGWLOW">     0</i>
  </separator>
  <separator name="vdW DFT" >
   <i type="logical" name="LUSE_VDW"> F  </i>
   <i name="Zab_VDW">     -0.84910000</i>
   <i name="PARAM1">      0.12340000</i>
   <i name="PARAM2">      1.00000000</i>
   <i name="PARAM3">      0.00000000</i>
  </separator>
  <separator name="model GW" >
   <i type="int" name="MODEL_GW">     0</i>
   <i name="MODEL_EPS0">    600.00000000</i>
   <i name="MODEL_ALPHA">      1.00000000</i>
  </separator>
  <separator name="linear response parameters" >
   <i type="logical" name="LEPSILON"> F  </i>
   <i type="logical" name="LRPA"> F  </i>
   <i type="logical" name="LNABLA"> F  </i>
   <i type="logical" name="LVEL"> F  </i>
   <i type="int" name="KINTER">     0</i>
   <i name="CSHIFT">      0.10000000</i>
   <i name="OMEGAMAX">     -1.00000000</i>
   <i name="DEG_THRESHOLD">      0.00200000</i>
   <i name="RTIME">     -0.10000000</i>
   <i name="WPLASMAI">      0.00000000</i>
   <v name="DFIELD">      0.00000000      0.00000000      0.00000000</v>
   <v name="WPLASMA">      0.00000000      0.00000000      0.00000000      0.00000000      0.00000000      0.00000000      0.00000000      0.00000000      0.00000000</v>
  </separator>
  <separator name="orbital magnetization" >
   <i type="logical" name="NUCIND"> F  </i>
   <v name="MAGPOS">      0.00000000      0.00000000      0.00000000</v>
   <i type="logical" name="LNICSALL"> T  </i>
   <i type="logical" name="ORBITALMAG"> F  </i>
   <i type="logical" name="LMAGBLOCH"> F  </i>
   <i type="logical" name="LCHIMAG"> F  </i>
   <i type="logical" name="LGAUGE"> T  </i>
   <i type="int" name="MAGATOM">     0</i>
   <v name="MAGDIPOL">      0.00000000      0.00000000      0.00000000</v>
   <v name="AVECCONST">      0.00000000      0.00000000      0.00000000</v>
  </separator>
  <separator name="response functions" >
   <i type="logical" name="LADDER"> F  </i>
   <i type="logical" name="LRPAFORCE"> F  </i>
   <i type="logical" name="LFXC"> F  </i>
   <i type="logical" name="LHARTREE"> T  </i>
   <i type="int" name="IBSE">     0</i>
   <v type="int" name="KPOINT">    -1     0     0     0</v>
   <i type="logical" name="LTCTE"> F  </i>
   <i type="logical" name="LTETE"> F  </i>
   <i type="logical" name="LTRIPLET"> F  </i>
   <i type="logical" name="LFXCEPS"> F  </i>
   <i type="logical" name="LFXHEG"> F  </i>
   <i type="int" name="NATURALO">     2</i>
   <i type="logical" name="L2ORDER"> F  </i>
   <i type="logical" name="LMP2LT"> F  </i>
   <i type="logical" name="LUSEW"> F  </i>
   <i name="ENCUTGW">     -2.00000000</i>
   <i name="ENCUTGWSOFT">     -2.00000000</i>
   <i name="ENCUTLF">     -1.00000000</i>
   <i type="int" name="LMAXMP2">    -1</i>
   <i name="SCISSOR">      0.00000000</i>
   <i type="int" name="NOMEGA">     0</i>
   <i type="int" name="NOMEGAR">     0</i>
   <i type="int" name="NBANDSGW">    -1</i>
   <i type="int" name="NBANDSO">    -1</i>
   <i type="int" name="NBANDSV">    -1</i>
   <i type="int" name="NELM">   300</i>
   <i type="int" name="NELMHF">     1</i>
   <i type="int" name="DIM">     3</i>
   <i type="int" name="ANTIRES">     0</i>
   <i name="OMEGAMAX">    -30.00000000</i>
   <i name="OMEGAMIN">    -30.00000000</i>
   <i name="OMEGATL">   -200.00000000</i>
   <i type="int" name="OMEGAGRID">   140</i>
   <i name="CSHIFT">     -0.10000000</i>
   <i type="logical" name="SELFENERGY"> F  </i>
   <i type="logical" name="LSPECTRAL"> F  </i>
   <i type="logical" name="LSPECTRALGW"> F  </i>
   <i type="logical" name="LSINGLES"> F  </i>
   <i type="logical" name="LFERMIGW"> F  </i>
   <i type="logical" name="ODDONLYGW"> F  </i>
   <i type="logical" name="EVENONLYGW"> F  </i>
   <i type="int" name="NKREDLFX">     1</i>
   <i type="int" name="NKREDLFY">     1</i>
   <i type="int" name="NKREDLFZ">     1</i>
   <i type="int" name="MAXMEM">  2800</i>
   <i type="int" name="TELESCOPE">     0</i>
   <i type="int" name="TAUPAR">     1</i>
   <i type="int" name="OMEGAPAR">    -1</i>
   <i name="LAMBDA">      1.00000000</i>
  </separator>
  <separator name="External order field" >
   <i name="OFIELD_KAPPA">      0.00000000</i>
   <v name="OFIELD_K">      0.00000000      0.00000000      0.00000000</v>
   <i name="OFIELD_Q6_NEAR">      0.00000000</i>
   <i name="OFIELD_Q6_FAR">      0.00000000</i>
   <i name="OFIELD_A">      0.00000000</i>
  </separator>
 </parameters>
 <atominfo>
  <atoms>       1 </atoms>
  <types>       1 </types>
  <array name="atoms" >
   <dimension dim="1">ion</dimension>
   <field type="string">element</field>
   <field type="int">atomtype</field>
   <set>
    <rc><c>Ar</c><c>   1</c></rc>
   </set>
  </array>
  <array name="atomtypes" >
   <dimension dim="1">type</dimension>
   <field type="int">atomspertype</field>
   <field type="string">element</field>
   <field>mass</field>
   <field>valence</field>
   <field type="string">pseudopotential</field>
   <set>
    <rc><c>   1</c><c>Ar</c><c>     39.94900000</c><c>      8.00000000</c><c>  PAW_PBE Ar 07Sep2000                  </c></rc>
   </set>
  </array>
 </atominfo>
 <structure name="initialpos" >
  <crystal>
   <varray name="basis" >
    <v>      10.00000000       0.00000000       0.00000000 </v>
    <v>       0.00000000      10.00000000       0.00000000 </v>
    <v>       0.00000000       0.00000000      10.00000000 </v>
   </varray>
   <i name="volume">   1000.00000000 </i>
   <varray name="rec_basis" >
    <v>       0.10000000       0.00000000       0.00000000 </v>
    <v>       0.00000000       0.10000000       0.00000000 </v>
    <v>       0.00000000       0.00000000       0.10000000 </v>
   </varray>
  </crystal>
  <varray name="positions" >
   <v>       0.50000000       0.50000000       0.50000000 </v>
  </varray>
 </structure>
 <calculation>
  <scstep>
   <time name="total">    0.66    0.67</time>
   <energy>
    <i name="alphaZ">      0.14779546 </i>
    <i name="ewald">   -130.74073603 </i>
    <i name="hartreedc">   -364.47458023 </i>
    <i name="XCdc">     29.18881584 </i>
    <i name="pawpsdc">    464.36053981 </i>
    <i name="pawaedc">   -468.85234650 </i>
    <i name="eentropy">     -0.00230224 </i>
    <i name="bandstr">    -28.10965379 </i>
    <i name="atom">    579.04441424 </i>
    <i name="e_fr_energy">     80.56194656 </i>
    <i name="e_wo_entrp">     80.56424880 </i>
    <i name="e_0_energy">     80.56309768 </i>
   </energy>
  </scstep>
  <scstep>
   <time name="total">    0.39    0.39</time>
   <energy>
    <i name="e_fr_energy">     65.92268099 </i>
    <i name="e_wo_entrp">     65.95668645 </i>
    <i name="e_0_energy">     65.93968372 </i>
   </energy>
  </scstep>
  <scstep>
   <time name="total">    0.38    0.38</time>
   <energy>
    <i name="e_fr_energy">     42.32557722 </i>
    <i name="e_wo_entrp">     42.34321799 </i>
    <i name="e_0_energy">     42.33439760 </i>
   </energy>
  </scstep>
  <scstep>
   <time name="total">    0.38    0.38</time>
   <energy>
    <i name="e_fr_energy">     10.62759099 </i>
    <i name="e_wo_entrp">     10.62759099 </i>
    <i name="e_0_energy">     10.62759099 </i>
   </energy>
  </scstep>
  <scstep>
   <time name="total">    0.61    0.61</time>
   <energy>
    <i name="e_fr_energy">      2.21083454 </i>
    <i name="e_wo_entrp">      2.21083454 </i>
    <i name="e_0_energy">      2.21083454 </i>
   </energy>
  </scstep>
  <scstep>
   <time name="total">    0.74    0.76</time>
   <energy>
    <i name="e_fr_energy">      2.34315413 </i>
    <i name="e_wo_entrp">      2.34315413 </i>
    <i name="e_0_energy">      2.34315413 </i>
   </energy>
  </scstep>
  <scstep>
   <time name="total">    0.70    0.70</time>
   <energy>
    <i name="e_fr_energy">      0.39162738 </i>
    <i name="e_wo_entrp">      0.39162738 </i>
    <i name="e_0_energy">      0.39162738 </i>
   </energy>
  </scstep>
  <scstep>
   <time name="total">    0.70    0.70</time>
   <energy>
    <i name="e_fr_energy">      0.22595666 </i>
    <i name="e_wo_entrp">      0.22595666 </i>
    <i name="e_0_energy">      0.22595666 </i>
   </energy>
  </scstep>
  <scstep>
   <time name="total">    0.70    0.70</time>
   <energy>
    <i name="e_fr_energy">      0.00764910 </i>
    <i name="e_wo_entrp">      0.00764910 </i>
    <i name="e_0_energy">      0.00764910 </i>
   </energy>
  </scstep>
  <scstep>
   <time name="total">    0.69    0.69</time>
   <energy>
    <i name="e_fr_energy">      0.01914949 </i>
    <i name="e_wo_entrp">      0.01914949 </i>
    <i name="e_0_energy">      0.01914949 </i>
   </energy>
  </scstep>
  <scstep>
   <time name="total">    0.69    0.69</time>
   <energy>
    <i name="e_fr_energy">     -0.00668924 </i>
    <i name="e_wo_entrp">     -0.00668924 </i>
    <i name="e_0_energy">     -0.00668924 </i>
   </energy>
  </scstep>
  <scstep>
   <time name="total">    0.70    0.70</time>
   <energy>
    <i name="e_fr_energy">     -0.02112807 </i>
    <i name="e_wo_entrp">     -0.02112807 </i>
    <i name="e_0_energy">     -0.02112807 </i>
   </energy>
  </scstep>
  <scstep>
   <time name="total">    0.69    0.69</time>
   <energy>
    <i name="e_fr_energy">     -0.02233085 </i>
    <i name="e_wo_entrp">     -0.02233085 </i>
    <i name="e_0_energy">     -0.02233085 </i>
   </energy>
  </scstep>
  <scstep>
   <time name="total">    0.69    0.69</time>
   <energy>
    <i name="e_fr_energy">     -0.02421303 </i>
    <i name="e_wo_entrp">     -0.02421303 </i>
    <i name="e_0_energy">     -0.02421303 </i>
   </energy>
  </scstep>
  <scstep>
   <time name="total">    0.70    0.70</time>
   <energy>
    <i name="e_fr_energy">     -0.02462731 </i>
    <i name="e_wo_entrp">     -0.02462731 </i>
    <i name="e_0_energy">     -0.02462731 </i>
   </energy>
  </scstep>
  <scstep>
   <time name="total">    0.70    0.70</time>
   <energy>
    <i name="e_fr_energy">     -0.02473431 </i>
    <i name="e_wo_entrp">     -0.02473431 </i>
    <i name="e_0_energy">     -0.02473431 </i>
   </energy>
  </scstep>
  <scstep>
   <time name="total">    0.69    0.69</time>
   <energy>
    <i name="e_fr_energy">     -0.02488054 </i>
    <i name="e_wo_entrp">     -0.02488054 </i>
    <i name="e_0_energy">     -0.02488054 </i>
   </energy>
  </scstep>
  <scstep>
   <time name="total">    0.75    0.75</time>
   <energy>
    <i name="alphaZ">      0.14779546 </i>
    <i name="ewald">   -130.74073603 </i>
    <i name="hartreedc">   -364.49184454 </i>
    <i name="XCdc">     29.15731878 </i>
    <i name="pawpsdc">    464.26969888 </i>
    <i name="pawaedc">   -468.76292567 </i>
    <i name="eentropy">     -0.00000000 </i>
    <i name="bandstr">   -108.64864167 </i>
    <i name="atom">    579.04441424 </i>
    <i name="e_fr_energy">     -0.02492056 </i>
    <i name="e_wo_entrp">     -0.02492056 </i>
    <i name="e_0_energy">     -0.02492056 </i>
   </energy>
  </scstep>
  <structure>
   <crystal>
    <varray name="basis" >
     <v>      10.00000000       0.00000000       0.00000000 </v>
     <v>       0.00000000      10.00000000       0.00000000 </v>
     <v>       0.00000000       0.00000000      10.00000000 </v>
    </varray>
    <i name="volume">   1000.00000000 </i>
    <varray name="rec_basis" >
     <v>       0.10000000       0.00000000       0.00000000 </v>
     <v>       0.00000000       0.10000000       0.00000000 </v>
     <v>       0.00000000       0.00000000       0.10000000 </v>
    </varray>
   </crystal>
   <varray name="positions" >
    <v>       0.50000000       0.50000000       0.50000000 </v>
   </varray>
  </structure>
  <varray name="forces" >
   <v>       0.00000000       0.00000000       0.00000000 </v>
  </varray>
  <varray name="stress" >
   <v>      -0.04365689      -0.00000000      -0.00000000 </v>
   <v>      -0.00000000      -0.04365689       0.00000000 </v>
   <v>      -0.00000000       0.00000000      -0.04365689 </v>
  </varray>
  <energy>
   <i name="e_fr_energy">     -0.02492056 </i>
   <i name="e_wo_entrp">     -0.02492056 </i>
   <i name="e_0_energy">     -0.00000000 </i>
  </energy>
  <time name="totalsc">   22.92   23.11</time>
  <eigenvalues>
   <array>
    <dimension dim="1">band</dimension>
    <dimension dim="2">kpoint</dimension>
    <dimension dim="3">spin</dimension>
    <field>eigene</field>
    <field>occ</field>
    <set>
     <set comment="spin 1">
      <set comment="kpoint 1">
       <r>  -24.0945    1.0000 </r>
       <r>  -10.0767    1.0000 </r>
       <r>  -10.0767    1.0000 </r>
       <r>  -10.0767    1.0000 </r>
       <r>   -0.3504    0.0000 </r>
       <r>    1.1309    0.0000 </r>
       <r>    1.2574    0.0000 </r>
       <r>    1.2596    0.0000 </r>
       <r>    1.2627    0.0000 </r>
       <r>    1.4140    0.0000 </r>
       <r>    1.4143    0.0000 </r>
       <r>    2.5510    0.0000 </r>
       <r>    2.5534    0.0000 </r>
       <r>    2.5574    0.0000 </r>
       <r>    2.7646    0.0000 </r>
       <r>    2.8097    0.0000 </r>
       <r>    2.8216    0.0000 </r>
       <r>    2.8504    0.0000 </r>
       <r>    2.8832    0.0000 </r>
       <r>    2.8833    0.0000 </r>
       <r>    2.9250    0.0000 </r>
       <r>    2.9578    0.0000 </r>
       <r>    3.0059    0.0000 </r>
       <r>    4.1049    0.0000 </r>
       <r>    4.1090    0.0000 </r>
       <r>    4.1155    0.0000 </r>
       <r>    4.4297    0.0000 </r>
       <r>    4.4679    0.0000 </r>
       <r>    4.5579    0.0000 </r>
       <r>    4.5965    0.0000 </r>
       <r>    4.6757    0.0000 </r>
       <r>    4.7340    0.0000 </r>
       <r>    5.0218    0.0000 </r>
       <r>    6.0328    0.0000 </r>
       <r>    6.1761    0.0000 </r>
       <r>    6.5471    0.0000 </r>
      </set>
     </set>
     <set comment="spin 2">
      <set comment="kpoint 1">
       <r>  -24.0943    1.0000 </r>
       <r>  -10.0766    1.0000 </r>
       <r>  -10.0766    1.0000 </r>
       <r>  -10.0766    1.0000 </r>
       <r>   -0.3509    0.0000 </r>
       <r>    1.1313    0.0000 </r>
       <r>    1.2589    0.0000 </r>
       <r>    1.2619    0.0000 </r>
       <r>    1.2657    0.0000 </r>
       <r>    1.4116    0.0000 </r>
       <r>    1.4129    0.0000 </r>
       <r>    2.5508    0.0000 </r>
       <r>    2.5512    0.0000 </r>
       <r>    2.5533    0.0000 </r>
       <r>    2.7288    0.0000 </r>
       <r>    2.7438    0.0000 </r>
       <r>    2.7801    0.0000 </r>
       <r>    2.8691    0.0000 </r>
       <r>    2.8740    0.0000 </r>
       <r>    2.8929    0.0000 </r>
       <r>    2.9761    0.0000 </r>
       <r>    2.9952    0.0000 </r>
       <r>    3.0168    0.0000 </r>
       <r>    4.1097    0.0000 </r>
       <r>    4.1155    0.0000 </r>
       <r>    4.1158    0.0000 </r>
       <r>    4.4543    0.0000 </r>
       <r>    4.5158    0.0000 </r>
       <r>    4.5180    0.0000 </r>
       <r>    4.5978    0.0000 </r>
       <r>    4.6161    0.0000 </r>
       <r>    4.7059    0.0000 </r>
       <r>    4.7794    0.0000 </r>
       <r>    6.0759    0.0000 </r>
       <r>    6.3339    0.0000 </r>
       <r>    6.4892    0.0000 </r>
      </set>
     </set>
    </set>
   </array>
  </eigenvalues>
  <separator name="orbital magnetization" >
   <v name="MAGDIPOLOUT">      0.00000000      0.00000000      0.00000000</v>
  </separator>
  <dos>
   <i name="efermi">     -9.77080719 </i>
   <total>
    <array>
     <dimension dim="1">gridpoints</dimension>
     <dimension dim="2">spin</dimension>
     <field>energy</field>
     <field>total</field>
     <field>integrated</field>
     <set>
      <set comment="spin 1">
       <r>   -25.6266     0.0000     0.0000 </r>
       <r>   -25.5142     0.0000     0.0000 </r>
       <r>   -25.4019     0.0000     0.0000 </r>
       <r>   -25.2895     0.0000     0.0000 </r>
       <r>   -25.1772     0.0000     0.0000 </r>
       <r>   -25.0648     0.0000     0.0000 </r>
       <r>   -24.9525     0.0000     0.0000 </r>
       <r>   -24.8401     0.0000     0.0000 </r>
       <r>   -24.7278     0.0000     0.0000 </r>
       <r>   -24.6154     0.0000     0.0000 </r>
       <r>   -24.5031     0.0000     0.0000 </r>
       <r>   -24.3907     0.0000     0.0000 </r>
       <r>   -24.2783     0.0000     0.0000 </r>
       <r>   -24.1660     0.1920     0.0216 </r>
       <r>   -24.0536     7.6055     0.8761 </r>
       <r>   -23.9413     1.1030     1.0000 </r>
       <r>   -23.8289     0.0001     1.0000 </r>
       <r>   -23.7166     0.0000     1.0000 </r>
       <r>   -23.6042     0.0000     1.0000 </r>
       <r>   -23.4919     0.0000     1.0000 </r>
       <r>   -23.3795     0.0000     1.0000 </r>
       <r>   -23.2672     0.0000     1.0000 </r>
       <r>   -23.1548     0.0000     1.0000 </r>
       <r>   -23.0425     0.0000     1.0000 </r>
       <r>   -22.9301     0.0000     1.0000 </r>
       <r>   -22.8178     0.0000     1.0000 </r>
       <r>   -22.7054     0.0000     1.0000 </r>
       <r>   -22.5931     0.0000     1.0000 </r>
       <r>   -22.4807     0.0000     1.0000 </r>
       <r>   -22.3684     0.0000     1.0000 </r>
       <r>   -22.2560     0.0000     1.0000 </r>
       <r>   -22.1436     0.0000     1.0000 </r>
       <r>   -22.0313     0.0000     1.0000 </r>
       <r>   -21.9189     0.0000     1.0000 </r>
       <r>   -21.8066     0.0000     1.0000 </r>
       <r>   -21.6942     0.0000     1.0000 </r>
       <r>   -21.5819     0.0000     1.0000 </r>
       <r>   -21.4695     0.0000     1.0000 </r>
       <r>   -21.3572     0.0000     1.0000 </r>
       <r>   -21.2448     0.0000     1.0000 </r>
       <r>   -21.1325     0.0000     1.0000 </r>
       <r>   -21.0201     0.0000     1.0000 </r>
       <r>   -20.9078     0.0000     1.0000 </r>
       <r>   -20.7954     0.0000     1.0000 </r>
       <r>   -20.6831     0.0000     1.0000 </r>
       <r>   -20.5707     0.0000     1.0000 </r>
       <r>   -20.4584     0.0000     1.0000 </r>
       <r>   -20.3460     0.0000     1.0000 </r>
       <r>   -20.2337     0.0000     1.0000 </r>
       <r>   -20.1213     0.0000     1.0000 </r>
       <r>   -20.0089     0.0000     1.0000 </r>
       <r>   -19.8966     0.0000     1.0000 </r>
       <r>   -19.7842     0.0000     1.0000 </r>
       <r>   -19.6719     0.0000     1.0000 </r>
       <r>   -19.5595     0.0000     1.0000 </r>
       <r>   -19.4472     0.0000     1.0000 </r>
       <r>   -19.3348     0.0000     1.0000 </r>
       <r>   -19.2225     0.0000     1.0000 </r>
       <r>   -19.1101     0.0000     1.0000 </r>
       <r>   -18.9978     0.0000     1.0000 </r>
       <r>   -18.8854     0.0000     1.0000 </r>
       <r>   -18.7731     0.0000     1.0000 </r>
       <r>   -18.6607     0.0000     1.0000 </r>
       <r>   -18.5484     0.0000     1.0000 </r>
       <r>   -18.4360     0.0000     1.0000 </r>
       <r>   -18.3237     0.0000     1.0000 </r>
       <r>   -18.2113     0.0000     1.0000 </r>
       <r>   -18.0990     0.0000     1.0000 </r>
       <r>   -17.9866     0.0000     1.0000 </r>
       <r>   -17.8742     0.0000     1.0000 </r>
       <r>   -17.7619     0.0000     1.0000 </r>
       <r>   -17.6495     0.0000     1.0000 </r>
       <r>   -17.5372     0.0000     1.0000 </r>
       <r>   -17.4248     0.0000     1.0000 </r>
       <r>   -17.3125     0.0000     1.0000 </r>
       <r>   -17.2001     0.0000     1.0000 </r>
       <r>   -17.0878     0.0000     1.0000 </r>
       <r>   -16.9754     0.0000     1.0000 </r>
       <r>   -16.8631     0.0000     1.0000 </r>
       <r>   -16.7507     0.0000     1.0000 </r>
       <r>   -16.6384     0.0000     1.0000 </r>
       <r>   -16.5260     0.0000     1.0000 </r>
       <r>   -16.4137     0.0000     1.0000 </r>
       <r>   -16.3013     0.0000     1.0000 </r>
       <r>   -16.1890     0.0000     1.0000 </r>
       <r>   -16.0766     0.0000     1.0000 </r>
       <r>   -15.9642     0.0000     1.0000 </r>
       <r>   -15.8519     0.0000     1.0000 </r>
       <r>   -15.7395     0.0000     1.0000 </r>
       <r>   -15.6272     0.0000     1.0000 </r>
       <r>   -15.5148     0.0000     1.0000 </r>
       <r>   -15.4025     0.0000     1.0000 </r>
       <r>   -15.2901     0.0000     1.0000 </r>
       <r>   -15.1778     0.0000     1.0000 </r>
       <r>   -15.0654     0.0000     1.0000 </r>
       <r>   -14.9531     0.0000     1.0000 </r>
       <r>   -14.8407     0.0000     1.0000 </r>
       <r>   -14.7284     0.0000     1.0000 </r>
       <r>   -14.6160     0.0000     1.0000 </r>
       <r>   -14.5037     0.0000     1.0000 </r>
       <r>   -14.3913     0.0000     1.0000 </r>
       <r>   -14.2790     0.0000     1.0000 </r>
       <r>   -14.1666     0.0000     1.0000 </r>
       <r>   -14.0543     0.0000     1.0000 </r>
       <r>   -13.9419     0.0000     1.0000 </r>
       <r>   -13.8295     0.0000     1.0000 </r>
       <r>   -13.7172     0.0000     1.0000 </r>
       <r>   -13.6048     0.0000     1.0000 </r>
       <r>   -13.4925     0.0000     1.0000 </r>
       <r>   -13.3801     0.0000     1.0000 </r>
       <r>   -13.2678     0.0000     1.0000 </r>
       <r>   -13.1554     0.0000     1.0000 </r>
       <r>   -13.0431     0.0000     1.0000 </r>
       <r>   -12.9307     0.0000     1.0000 </r>
       <r>   -12.8184     0.0000     1.0000 </r>
       <r>   -12.7060     0.0000     1.0000 </r>
       <r>   -12.5937     0.0000     1.0000 </r>
       <r>   -12.4813     0.0000     1.0000 </r>
       <r>   -12.3690     0.0000     1.0000 </r>
       <r>   -12.2566     0.0000     1.0000 </r>
       <r>   -12.1443     0.0000     1.0000 </r>
       <r>   -12.0319     0.0000     1.0000 </r>
       <r>   -11.9196     0.0000     1.0000 </r>
       <r>   -11.8072     0.0000     1.0000 </r>
       <r>   -11.6948     0.0000     1.0000 </r>
       <r>   -11.5825     0.0000     1.0000 </r>
       <r>   -11.4701     0.0000     1.0000 </r>
       <r>   -11.3578     0.0000     1.0000 </r>
       <r>   -11.2454     0.0000     1.0000 </r>
       <r>   -11.1331     0.0000     1.0000 </r>
       <r>   -11.0207     0.0000     1.0000 </r>
       <r>   -10.9084     0.0000     1.0000 </r>
       <r>   -10.7960     0.0000     1.0000 </r>
       <r>   -10.6837     0.0000     1.0000 </r>
       <r>   -10.5713     0.0000     1.0000 </r>
       <r>   -10.4590     0.0000     1.0000 </r>
       <r>   -10.3466     0.0000     1.0000 </r>
       <r>   -10.2343     0.0001     1.0000 </r>
       <r>   -10.1219     2.6808     1.3012 </r>
       <r>   -10.0096    23.2514     3.9136 </r>
       <r>    -9.8972     0.7693     4.0000 </r>
       <r>    -9.7849     0.0000     4.0000 </r>
       <r>    -9.6725     0.0000     4.0000 </r>
       <r>    -9.5601     0.0000     4.0000 </r>
       <r>    -9.4478     0.0000     4.0000 </r>
       <r>    -9.3354     0.0000     4.0000 </r>
       <r>    -9.2231     0.0000     4.0000 </r>
       <r>    -9.1107     0.0000     4.0000 </r>
       <r>    -8.9984     0.0000     4.0000 </r>
       <r>    -8.8860     0.0000     4.0000 </r>
       <r>    -8.7737     0.0000     4.0000 </r>
       <r>    -8.6613     0.0000     4.0000 </r>
       <r>    -8.5490     0.0000     4.0000 </r>
       <r>    -8.4366     0.0000     4.0000 </r>
       <r>    -8.3243     0.0000     4.0000 </r>
       <r>    -8.2119     0.0000     4.0000 </r>
       <r>    -8.0996     0.0000     4.0000 </r>
       <r>    -7.9872     0.0000     4.0000 </r>
       <r>    -7.8749     0.0000     4.0000 </r>
       <r>    -7.7625     0.0000     4.0000 </r>
       <r>    -7.6501     0.0000     4.0000 </r>
       <r>    -7.5378     0.0000     4.0000 </r>
       <r>    -7.4254     0.0000     4.0000 </r>
       <r>    -7.3131     0.0000     4.0000 </r>
       <r>    -7.2007     0.0000     4.0000 </r>
       <r>    -7.0884     0.0000     4.0000 </r>
       <r>    -6.9760     0.0000     4.0000 </r>
       <r>    -6.8637     0.0000     4.0000 </r>
       <r>    -6.7513     0.0000     4.0000 </r>
       <r>    -6.6390     0.0000     4.0000 </r>
       <r>    -6.5266     0.0000     4.0000 </r>
       <r>    -6.4143     0.0000     4.0000 </r>
       <r>    -6.3019     0.0000     4.0000 </r>
       <r>    -6.1896     0.0000     4.0000 </r>
       <r>    -6.0772     0.0000     4.0000 </r>
       <r>    -5.9649     0.0000     4.0000 </r>
       <r>    -5.8525     0.0000     4.0000 </r>
       <r>    -5.7402     0.0000     4.0000 </r>
       <r>    -5.6278     0.0000     4.0000 </r>
       <r>    -5.5154     0.0000     4.0000 </r>
       <r>    -5.4031     0.0000     4.0000 </r>
       <r>    -5.2907     0.0000     4.0000 </r>
       <r>    -5.1784     0.0000     4.0000 </r>
       <r>    -5.0660     0.0000     4.0000 </r>
       <r>    -4.9537     0.0000     4.0000 </r>
       <r>    -4.8413     0.0000     4.0000 </r>
       <r>    -4.7290     0.0000     4.0000 </r>
       <r>    -4.6166     0.0000     4.0000 </r>
       <r>    -4.5043     0.0000     4.0000 </r>
       <r>    -4.3919     0.0000     4.0000 </r>
       <r>    -4.2796     0.0000     4.0000 </r>
       <r>    -4.1672     0.0000     4.0000 </r>
       <r>    -4.0549     0.0000     4.0000 </r>
       <r>    -3.9425     0.0000     4.0000 </r>
       <r>    -3.8302     0.0000     4.0000 </r>
       <r>    -3.7178     0.0000     4.0000 </r>
       <r>    -3.6055     0.0000     4.0000 </r>
       <r>    -3.4931     0.0000     4.0000 </r>
       <r>    -3.3807     0.0000     4.0000 </r>
       <r>    -3.2684     0.0000     4.0000 </r>
       <r>    -3.1560     0.0000     4.0000 </r>
       <r>    -3.0437     0.0000     4.0000 </r>
       <r>    -2.9313     0.0000     4.0000 </r>
       <r>    -2.8190     0.0000     4.0000 </r>
       <r>    -2.7066     0.0000     4.0000 </r>
       <r>    -2.5943     0.0000     4.0000 </r>
       <r>    -2.4819     0.0000     4.0000 </r>
       <r>    -2.3696     0.0000     4.0000 </r>
       <r>    -2.2572     0.0000     4.0000 </r>
       <r>    -2.1449     0.0000     4.0000 </r>
       <r>    -2.0325     0.0000     4.0000 </r>
       <r>    -1.9202     0.0000     4.0000 </r>
       <r>    -1.8078     0.0000     4.0000 </r>
       <r>    -1.6955     0.0000     4.0000 </r>
       <r>    -1.5831     0.0000     4.0000 </r>
       <r>    -1.4708     0.0000     4.0000 </r>
       <r>    -1.3584     0.0000     4.0000 </r>
       <r>    -1.2460     0.0000     4.0000 </r>
       <r>    -1.1337     0.0000     4.0000 </r>
       <r>    -1.0213     0.0000     4.0000 </r>
       <r>    -0.9090     0.0000     4.0000 </r>
       <r>    -0.7966     0.0000     4.0000 </r>
       <r>    -0.6843     0.0000     4.0000 </r>
       <r>    -0.5719     0.0000     4.0000 </r>
       <r>    -0.4596     0.0090     4.0010 </r>
       <r>    -0.3472     4.7620     4.5360 </r>
       <r>    -0.2349     4.1247     4.9995 </r>
       <r>    -0.1225     0.0048     5.0000 </r>
       <r>    -0.0102     0.0000     5.0000 </r>
       <r>     0.1022     0.0000     5.0000 </r>
       <r>     0.2145     0.0000     5.0000 </r>
       <r>     0.3269     0.0000     5.0000 </r>
       <r>     0.4392     0.0000     5.0000 </r>
       <r>     0.5516     0.0000     5.0000 </r>
       <r>     0.6639     0.0000     5.0000 </r>
       <r>     0.7763     0.0000     5.0000 </r>
       <r>     0.8887     0.0000     5.0000 </r>
       <r>     1.0010     0.0011     5.0001 </r>
       <r>     1.1134     2.7603     5.3102 </r>
       <r>     1.2257    10.5688     6.4977 </r>
       <r>     1.3381    22.1860     8.9903 </r>
       <r>     1.4504    15.1726    10.6950 </r>
       <r>     1.5628     2.7142    11.0000 </r>
       <r>     1.6751     0.0002    11.0000 </r>
       <r>     1.7875     0.0000    11.0000 </r>
       <r>     1.8998     0.0000    11.0000 </r>
       <r>     2.0122     0.0000    11.0000 </r>
       <r>     2.1245     0.0000    11.0000 </r>
       <r>     2.2369     0.0000    11.0000 </r>
       <r>     2.3492     0.0000    11.0000 </r>
       <r>     2.4616     0.1227    11.0138 </r>
       <r>     2.5739    18.9358    13.1413 </r>
       <r>     2.6863     7.7630    14.0135 </r>
       <r>     2.7987    13.7340    15.5565 </r>
       <r>     2.9110    39.1909    19.9597 </r>
       <r>     3.0234    23.9861    22.6546 </r>
       <r>     3.1357     3.0730    22.9999 </r>
       <r>     3.2481     0.0011    23.0000 </r>
       <r>     3.3604     0.0000    23.0000 </r>
       <r>     3.4728     0.0000    23.0000 </r>
       <r>     3.5851     0.0000    23.0000 </r>
       <r>     3.6975     0.0000    23.0000 </r>
       <r>     3.8098     0.0000    23.0000 </r>
       <r>     3.9222     0.0000    23.0000 </r>
       <r>     4.0345     0.4611    23.0518 </r>
       <r>     4.1469    22.2614    25.5529 </r>
       <r>     4.2592     3.9788    26.0000 </r>
       <r>     4.3716     0.4748    26.0533 </r>
       <r>     4.4839    14.0447    27.6313 </r>
       <r>     4.5963    15.4801    29.3705 </r>
       <r>     4.7086    15.0449    31.0608 </r>
       <r>     4.8210     8.2974    31.9931 </r>
       <r>     4.9334     0.1168    32.0062 </r>
       <r>     5.0457     6.6277    32.7508 </r>
       <r>     5.1581     2.2171    32.9999 </r>
       <r>     5.2704     0.0005    33.0000 </r>
       <r>     5.3828     0.0000    33.0000 </r>
       <r>     5.4951     0.0000    33.0000 </r>
       <r>     5.6075     0.0000    33.0000 </r>
       <r>     5.7198     0.0000    33.0000 </r>
       <r>     5.8322     0.0000    33.0000 </r>
       <r>     5.9445     0.0556    33.0062 </r>
       <r>     6.0569     6.6384    33.7521 </r>
       <r>     6.1692     5.9730    34.4232 </r>
       <r>     6.2816     5.1215    34.9986 </r>
       <r>     6.3939     0.0127    35.0000 </r>
       <r>     6.5063     1.1030    35.1239 </r>
       <r>     6.6186     7.6055    35.9784 </r>
       <r>     6.7310     0.1920    36.0000 </r>
       <r>     6.8433     0.0000    36.0000 </r>
       <r>     6.9557     0.0000    36.0000 </r>
       <r>     7.0681     0.0000    36.0000 </r>
       <r>     7.1804     0.0000    36.0000 </r>
       <r>     7.2928     0.0000    36.0000 </r>
       <r>     7.4051     0.0000    36.0000 </r>
       <r>     7.5175     0.0000    36.0000 </r>
       <r>     7.6298     0.0000    36.0000 </r>
       <r>     7.7422     0.0000    36.0000 </r>
       <r>     7.8545     0.0000    36.0000 </r>
       <r>     7.9669     0.0000    36.0000 </r>
       <r>     8.0792     0.0000    36.0000 </r>
      </set>
      <set comment="spin 2">
       <r>   -25.6266     0.0000     0.0000 </r>
       <r>   -25.5142     0.0000     0.0000 </r>
       <r>   -25.4019     0.0000     0.0000 </r>
       <r>   -25.2895     0.0000     0.0000 </r>
       <r>   -25.1772     0.0000     0.0000 </r>
       <r>   -25.0648     0.0000     0.0000 </r>
       <r>   -24.9525     0.0000     0.0000 </r>
       <r>   -24.8401     0.0000     0.0000 </r>
       <r>   -24.7278     0.0000     0.0000 </r>
       <r>   -24.6154     0.0000     0.0000 </r>
       <r>   -24.5031     0.0000     0.0000 </r>
       <r>   -24.3907     0.0000     0.0000 </r>
       <r>   -24.2783     0.0000     0.0000 </r>
       <r>   -24.1660     0.1900     0.0213 </r>
       <r>   -24.0536     7.5994     0.8752 </r>
       <r>   -23.9413     1.1111     1.0000 </r>
       <r>   -23.8289     0.0001     1.0000 </r>
       <r>   -23.7166     0.0000     1.0000 </r>
       <r>   -23.6042     0.0000     1.0000 </r>
       <r>   -23.4919     0.0000     1.0000 </r>
       <r>   -23.3795     0.0000     1.0000 </r>
       <r>   -23.2672     0.0000     1.0000 </r>
       <r>   -23.1548     0.0000     1.0000 </r>
       <r>   -23.0425     0.0000     1.0000 </r>
       <r>   -22.9301     0.0000     1.0000 </r>
       <r>   -22.8178     0.0000     1.0000 </r>
       <r>   -22.7054     0.0000     1.0000 </r>
       <r>   -22.5931     0.0000     1.0000 </r>
       <r>   -22.4807     0.0000     1.0000 </r>
       <r>   -22.3684     0.0000     1.0000 </r>
       <r>   -22.2560     0.0000     1.0000 </r>
       <r>   -22.1436     0.0000     1.0000 </r>
       <r>   -22.0313     0.0000     1.0000 </r>
       <r>   -21.9189     0.0000     1.0000 </r>
       <r>   -21.8066     0.0000     1.0000 </r>
       <r>   -21.6942     0.0000     1.0000 </r>
       <r>   -21.5819     0.0000     1.0000 </r>
       <r>   -21.4695     0.0000     1.0000 </r>
       <r>   -21.3572     0.0000     1.0000 </r>
       <r>   -21.2448     0.0000     1.0000 </r>
       <r>   -21.1325     0.0000     1.0000 </r>
       <r>   -21.0201     0.0000     1.0000 </r>
       <r>   -20.9078     0.0000     1.0000 </r>
       <r>   -20.7954     0.0000     1.0000 </r>
       <r>   -20.6831     0.0000     1.0000 </r>
       <r>   -20.5707     0.0000     1.0000 </r>
       <r>   -20.4584     0.0000     1.0000 </r>
       <r>   -20.3460     0.0000     1.0000 </r>
       <r>   -20.2337     0.0000     1.0000 </r>
       <r>   -20.1213     0.0000     1.0000 </r>
       <r>   -20.0089     0.0000     1.0000 </r>
       <r>   -19.8966     0.0000     1.0000 </r>
       <r>   -19.7842     0.0000     1.0000 </r>
       <r>   -19.6719     0.0000     1.0000 </r>
       <r>   -19.5595     0.0000     1.0000 </r>
       <r>   -19.4472     0.0000     1.0000 </r>
       <r>   -19.3348     0.0000     1.0000 </r>
       <r>   -19.2225     0.0000     1.0000 </r>
       <r>   -19.1101     0.0000     1.0000 </r>
       <r>   -18.9978     0.0000     1.0000 </r>
       <r>   -18.8854     0.0000     1.0000 </r>
       <r>   -18.7731     0.0000     1.0000 </r>
       <r>   -18.6607     0.0000     1.0000 </r>
       <r>   -18.5484     0.0000     1.0000 </r>
       <r>   -18.4360     0.0000     1.0000 </r>
       <r>   -18.3237     0.0000     1.0000 </r>
       <r>   -18.2113     0.0000     1.0000 </r>
       <r>   -18.0990     0.0000     1.0000 </r>
       <r>   -17.9866     0.0000     1.0000 </r>
       <r>   -17.8742     0.0000     1.0000 </r>
       <r>   -17.7619     0.0000     1.0000 </r>
       <r>   -17.6495     0.0000     1.0000 </r>
       <r>   -17.5372     0.0000     1.0000 </r>
       <r>   -17.4248     0.0000     1.0000 </r>
       <r>   -17.3125     0.0000     1.0000 </r>
       <r>   -17.2001     0.0000     1.0000 </r>
       <r>   -17.0878     0.0000     1.0000 </r>
       <r>   -16.9754     0.0000     1.0000 </r>
       <r>   -16.8631     0.0000     1.0000 </r>
       <r>   -16.7507     0.0000     1.0000 </r>
       <r>   -16.6384     0.0000     1.0000 </r>
       <r>   -16.5260     0.0000     1.0000 </r>
       <r>   -16.4137     0.0000     1.0000 </r>
       <r>   -16.3013     0.0000     1.0000 </r>
       <r>   -16.1890     0.0000     1.0000 </r>
       <r>   -16.0766     0.0000     1.0000 </r>
       <r>   -15.9642     0.0000     1.0000 </r>
       <r>   -15.8519     0.0000     1.0000 </r>
       <r>   -15.7395     0.0000     1.0000 </r>
       <r>   -15.6272     0.0000     1.0000 </r>
       <r>   -15.5148     0.0000     1.0000 </r>
       <r>   -15.4025     0.0000     1.0000 </r>
       <r>   -15.2901     0.0000     1.0000 </r>
       <r>   -15.1778     0.0000     1.0000 </r>
       <r>   -15.0654     0.0000     1.0000 </r>
       <r>   -14.9531     0.0000     1.0000 </r>
       <r>   -14.8407     0.0000     1.0000 </r>
       <r>   -14.7284     0.0000     1.0000 </r>
       <r>   -14.6160     0.0000     1.0000 </r>
       <r>   -14.5037     0.0000     1.0000 </r>
       <r>   -14.3913     0.0000     1.0000 </r>
       <r>   -14.2790     0.0000     1.0000 </r>
       <r>   -14.1666     0.0000     1.0000 </r>
       <r>   -14.0543     0.0000     1.0000 </r>
       <r>   -13.9419     0.0000     1.0000 </r>
       <r>   -13.8295     0.0000     1.0000 </r>
       <r>   -13.7172     0.0000     1.0000 </r>
       <r>   -13.6048     0.0000     1.0000 </r>
       <r>   -13.4925     0.0000     1.0000 </r>
       <r>   -13.3801     0.0000     1.0000 </r>
       <r>   -13.2678     0.0000     1.0000 </r>
       <r>   -13.1554     0.0000     1.0000 </r>
       <r>   -13.0431     0.0000     1.0000 </r>
       <r>   -12.9307     0.0000     1.0000 </r>
       <r>   -12.8184     0.0000     1.0000 </r>
       <r>   -12.7060     0.0000     1.0000 </r>
       <r>   -12.5937     0.0000     1.0000 </r>
       <r>   -12.4813     0.0000     1.0000 </r>
       <r>   -12.3690     0.0000     1.0000 </r>
       <r>   -12.2566     0.0000     1.0000 </r>
       <r>   -12.1443     0.0000     1.0000 </r>
       <r>   -12.0319     0.0000     1.0000 </r>
       <r>   -11.9196     0.0000     1.0000 </r>
       <r>   -11.8072     0.0000     1.0000 </r>
       <r>   -11.6948     0.0000     1.0000 </r>
       <r>   -11.5825     0.0000     1.0000 </r>
       <r>   -11.4701     0.0000     1.0000 </r>
       <r>   -11.3578     0.0000     1.0000 </r>
       <r>   -11.2454     0.0000     1.0000 </r>
       <r>   -11.1331     0.0000     1.0000 </r>
       <r>   -11.0207     0.0000     1.0000 </r>
       <r>   -10.9084     0.0000     1.0000 </r>
       <r>   -10.7960     0.0000     1.0000 </r>
       <r>   -10.6837     0.0000     1.0000 </r>
       <r>   -10.5713     0.0000     1.0000 </r>
       <r>   -10.4590     0.0000     1.0000 </r>
       <r>   -10.3466     0.0000     1.0000 </r>
       <r>   -10.2343     0.0001     1.0000 </r>
       <r>   -10.1219     2.6687     1.2998 </r>
       <r>   -10.0096    23.2590     3.9131 </r>
       <r>    -9.8972     0.7739     4.0000 </r>
       <r>    -9.7849     0.0000     4.0000 </r>
       <r>    -9.6725     0.0000     4.0000 </r>
       <r>    -9.5601     0.0000     4.0000 </r>
       <r>    -9.4478     0.0000     4.0000 </r>
       <r>    -9.3354     0.0000     4.0000 </r>
       <r>    -9.2231     0.0000     4.0000 </r>
       <r>    -9.1107     0.0000     4.0000 </r>
       <r>    -8.9984     0.0000     4.0000 </r>
       <r>    -8.8860     0.0000     4.0000 </r>
       <r>    -8.7737     0.0000     4.0000 </r>
       <r>    -8.6613     0.0000     4.0000 </r>
       <r>    -8.5490     0.0000     4.0000 </r>
       <r>    -8.4366     0.0000     4.0000 </r>
       <r>    -8.3243     0.0000     4.0000 </r>
       <r>    -8.2119     0.0000     4.0000 </r>
       <r>    -8.0996     0.0000     4.0000 </r>
       <r>    -7.9872     0.0000     4.0000 </r>
       <r>    -7.8749     0.0000     4.0000 </r>
       <r>    -7.7625     0.0000     4.0000 </r>
       <r>    -7.6501     0.0000     4.0000 </r>
       <r>    -7.5378     0.0000     4.0000 </r>
       <r>    -7.4254     0.0000     4.0000 </r>
       <r>    -7.3131     0.0000     4.0000 </r>
       <r>    -7.2007     0.0000     4.0000 </r>
       <r>    -7.0884     0.0000     4.0000 </r>
       <r>    -6.9760     0.0000     4.0000 </r>
       <r>    -6.8637     0.0000     4.0000 </r>
       <r>    -6.7513     0.0000     4.0000 </r>
       <r>    -6.6390     0.0000     4.0000 </r>
       <r>    -6.5266     0.0000     4.0000 </r>
       <r>    -6.4143     0.0000     4.0000 </r>
       <r>    -6.3019     0.0000     4.0000 </r>
       <r>    -6.1896     0.0000     4.0000 </r>
       <r>    -6.0772     0.0000     4.0000 </r>
       <r>    -5.9649     0.0000     4.0000 </r>
       <r>    -5.8525     0.0000     4.0000 </r>
       <r>    -5.7402     0.0000     4.0000 </r>
       <r>    -5.6278     0.0000     4.0000 </r>
       <r>    -5.5154     0.0000     4.0000 </r>
       <r>    -5.4031     0.0000     4.0000 </r>
       <r>    -5.2907     0.0000     4.0000 </r>
       <r>    -5.1784     0.0000     4.0000 </r>
       <r>    -5.0660     0.0000     4.0000 </r>
       <r>    -4.9537     0.0000     4.0000 </r>
       <r>    -4.8413     0.0000     4.0000 </r>
       <r>    -4.7290     0.0000     4.0000 </r>
       <r>    -4.6166     0.0000     4.0000 </r>
       <r>    -4.5043     0.0000     4.0000 </r>
       <r>    -4.3919     0.0000     4.0000 </r>
       <r>    -4.2796     0.0000     4.0000 </r>
       <r>    -4.1672     0.0000     4.0000 </r>
       <r>    -4.0549     0.0000     4.0000 </r>
       <r>    -3.9425     0.0000     4.0000 </r>
       <r>    -3.8302     0.0000     4.0000 </r>
       <r>    -3.7178     0.0000     4.0000 </r>
       <r>    -3.6055     0.0000     4.0000 </r>
       <r>    -3.4931     0.0000     4.0000 </r>
       <r>    -3.3807     0.0000     4.0000 </r>
       <r>    -3.2684     0.0000     4.0000 </r>
       <r>    -3.1560     0.0000     4.0000 </r>
       <r>    -3.0437     0.0000     4.0000 </r>
       <r>    -2.9313     0.0000     4.0000 </r>
       <r>    -2.8190     0.0000     4.0000 </r>
       <r>    -2.7066     0.0000     4.0000 </r>
       <r>    -2.5943     0.0000     4.0000 </r>
       <r>    -2.4819     0.0000     4.0000 </r>
       <r>    -2.3696     0.0000     4.0000 </r>
       <r>    -2.2572     0.0000     4.0000 </r>
       <r>    -2.1449     0.0000     4.0000 </r>
       <r>    -2.0325     0.0000     4.0000 </r>
       <r>    -1.9202     0.0000     4.0000 </r>
       <r>    -1.8078     0.0000     4.0000 </r>
       <r>    -1.6955     0.0000     4.0000 </r>
       <r>    -1.5831     0.0000     4.0000 </r>
       <r>    -1.4708     0.0000     4.0000 </r>
       <r>    -1.3584     0.0000     4.0000 </r>
       <r>    -1.2460     0.0000     4.0000 </r>
       <r>    -1.1337     0.0000     4.0000 </r>
       <r>    -1.0213     0.0000     4.0000 </r>
       <r>    -0.9090     0.0000     4.0000 </r>
       <r>    -0.7966     0.0000     4.0000 </r>
       <r>    -0.6843     0.0000     4.0000 </r>
       <r>    -0.5719     0.0000     4.0000 </r>
       <r>    -0.4596     0.0094     4.0011 </r>
       <r>    -0.3472     4.8070     4.5411 </r>
       <r>    -0.2349     4.0796     4.9995 </r>
       <r>    -0.1225     0.0046     5.0000 </r>
       <r>    -0.0102     0.0000     5.0000 </r>
       <r>     0.1022     0.0000     5.0000 </r>
       <r>     0.2145     0.0000     5.0000 </r>
       <r>     0.3269     0.0000     5.0000 </r>
       <r>     0.4392     0.0000     5.0000 </r>
       <r>     0.5516     0.0000     5.0000 </r>
       <r>     0.6639     0.0000     5.0000 </r>
       <r>     0.7763     0.0000     5.0000 </r>
       <r>     0.8887     0.0000     5.0000 </r>
       <r>     1.0010     0.0010     5.0001 </r>
       <r>     1.1134     2.7244     5.3062 </r>
       <r>     1.2257    10.1957     6.4517 </r>
       <r>     1.3381    22.5678     8.9873 </r>
       <r>     1.4504    15.4175    10.7195 </r>
       <r>     1.5628     2.4967    11.0000 </r>
       <r>     1.6751     0.0002    11.0000 </r>
       <r>     1.7875     0.0000    11.0000 </r>
       <r>     1.8998     0.0000    11.0000 </r>
       <r>     2.0122     0.0000    11.0000 </r>
       <r>     2.1245     0.0000    11.0000 </r>
       <r>     2.2369     0.0000    11.0000 </r>
       <r>     2.3492     0.0000    11.0000 </r>
       <r>     2.4616     0.1442    11.0162 </r>
       <r>     2.5739    19.4741    13.2042 </r>
       <r>     2.6863     8.5995    14.1703 </r>
       <r>     2.7987    22.1547    16.6595 </r>
       <r>     2.9110    25.0435    19.4732 </r>
       <r>     3.0234    24.8903    22.2697 </r>
       <r>     3.1357     6.4964    22.9996 </r>
       <r>     3.2481     0.0038    23.0000 </r>
       <r>     3.3604     0.0000    23.0000 </r>
       <r>     3.4728     0.0000    23.0000 </r>
       <r>     3.5851     0.0000    23.0000 </r>
       <r>     3.6975     0.0000    23.0000 </r>
       <r>     3.8098     0.0000    23.0000 </r>
       <r>     3.9222     0.0000    23.0000 </r>
       <r>     4.0345     0.3428    23.0385 </r>
       <r>     4.1469    21.7008    25.4767 </r>
       <r>     4.2592     4.6575    25.9999 </r>
       <r>     4.3716     0.0867    26.0097 </r>
       <r>     4.4839    10.1633    27.1516 </r>
       <r>     4.5963    23.1011    29.7470 </r>
       <r>     4.7086    16.0340    31.5485 </r>
       <r>     4.8210    11.8474    32.8796 </r>
       <r>     4.9334     1.0717    33.0000 </r>
       <r>     5.0457     0.0001    33.0000 </r>
       <r>     5.1581     0.0000    33.0000 </r>
       <r>     5.2704     0.0000    33.0000 </r>
       <r>     5.3828     0.0000    33.0000 </r>
       <r>     5.4951     0.0000    33.0000 </r>
       <r>     5.6075     0.0000    33.0000 </r>
       <r>     5.7198     0.0000    33.0000 </r>
       <r>     5.8322     0.0000    33.0000 </r>
       <r>     5.9445     0.0009    33.0001 </r>
       <r>     6.0569     2.6302    33.2956 </r>
       <r>     6.1692     6.2327    33.9959 </r>
       <r>     6.2816     0.6537    34.0693 </r>
       <r>     6.3939     7.9157    34.9587 </r>
       <r>     6.5063     6.4684    35.6854 </r>
       <r>     6.6186     2.7990    35.9999 </r>
       <r>     6.7310     0.0011    36.0000 </r>
       <r>     6.8433     0.0000    36.0000 </r>
       <r>     6.9557     0.0000    36.0000 </r>
       <r>     7.0681     0.0000    36.0000 </r>
       <r>     7.1804     0.0000    36.0000 </r>
       <r>     7.2928     0.0000    36.0000 </r>
       <r>     7.4051     0.0000    36.0000 </r>
       <r>     7.5175     0.0000    36.0000 </r>
       <r>     7.6298     0.0000    36.0000 </r>
       <r>     7.7422     0.0000    36.0000 </r>
       <r>     7.8545     0.0000    36.0000 </r>
       <r>     7.9669     0.0000    36.0000 </r>
       <r>     8.0792     0.0000    36.0000 </r>
      </set>
     </set>
    </array>
   </total>
   <partial>
    <array>
     <dimension dim="1">gridpoints</dimension>
     <dimension dim="2">spin</dimension>
     <dimension dim="3">ion</dimension>
     <field>energy</field>
     <field>    s</field>
     <field>   py</field>
     <field>   pz</field>
     <field>   px</field>
     <field>  dxy</field>
     <field>  dyz</field>
     <field>  dz2</field>
     <field>  dxz</field>
     <field>x2-y2</field>
     <set>
      <set comment="ion 1">
       <set comment="spin 1">
        <r>   -25.6266     0.0000     0.0000     0.0000     0.0000     0.0000     0.0000     0.0000     0.0000     0.0000 </r>
        <r>   -25.5142     0.0000     0.0000     0.0000     0.0000     0.0000     0.0000     0.0000     0.0000     0.0000 </r>
        <r>   -25.4019     0.0000     0.0000     0.0000     0.0000     0.0000     0.0000     0.0000     0.0000     0.0000 </r>
        <r>   -25.2895     0.0000     0.0000     0.0000     0.0000     0.0000     0.0000     0.0000     0.0000     0.0000 </r>
        <r>   -25.1772     0.0000     0.0000     0.0000     0.0000     0.0000     0.0000     0.0000     0.0000     0.0000 </r>
        <r>   -25.0648     0.0000     0.0000     0.0000     0.0000     0.0000     0.0000     0.0000     0.0000     0.0000 </r>
        <r>   -24.9525     0.0000     0.0000     0.0000     0.0000     0.0000     0.0000     0.0000     0.0000     0.0000 </r>
        <r>   -24.8401     0.0000     0.0000     0.0000     0.0000     0.0000     0.0000     0.0000     0.0000     0.0000 </r>
        <r>   -24.7278     0.0000     0.0000     0.0000     0.0000     0.0000     0.0000     0.0000     0.0000     0.0000 </r>
        <r>   -24.6154     0.0000     0.0000     0.0000     0.0000     0.0000     0.0000     0.0000     0.0000     0.0000 </r>
        <r>   -24.5031     0.0000     0.0000     0.0000     0.0000     0.0000     0.0000     0.0000     0.0000     0.0000 </r>
        <r>   -24.3907     0.0000     0.0000     0.0000     0.0000     0.0000     0.0000     0.0000     0.0000     0.0000 </r>
        <r>   -24.2783     0.0000     0.0000     0.0000     0.0000     0.0000     0.0000     0.0000     0.0000     0.0000 </r>
        <r>   -24.1660     0.1641     0.0000     0.0000     0.0000     0.0000     0.0000     0.0000     0.0000     0.0000 </r>
        <r>   -24.0536     6.5006     0.0000     0.0000     0.0000     0.0000     0.0000     0.0000     0.0000     0.0000 </r>
        <r>   -23.9413     0.9427     0.0000     0.0000     0.0000     0.0000     0.0000     0.0000     0.0000     0.0000 </r>
        <r>   -23.8289     0.0001     0.0000     0.0000     0.0000     0.0000     0.0000     0.0000     0.0000     0.0000 </r>
        <r>   -23.7166     0.0000     0.0000     0.0000     0.0000     0.0000     0.0000     0.0000     0.0000     0.0000 </r>
        <r>   -23.6042     0.0000     0.0000     0.0000     0.0000     0.0000     0.0000     0.0000     0.0000     0.0000 </r>
        <r>   -23.4919     0.0000     0.0000     0.0000     0.0000     0.0000     0.0000     0.0000     0.0000     0.0000 </r>
        <r>   -23.3795     0.0000     0.0000     0.0000     0.0000     0.0000     0.0000     0.0000     0.0000     0.0000 </r>
        <r>   -23.2672     0.0000     0.0000     0.0000     0.0000     0.0000     0.0000     0.0000     0.0000     0.0000 </r>
        <r>   -23.1548     0.0000     0.0000     0.0000     0.0000     0.0000     0.0000     0.0000     0.0000     0.0000 </r>
        <r>   -23.0425     0.0000     0.0000     0.0000     0.0000     0.0000     0.0000     0.0000     0.0000     0.0000 </r>
        <r>   -22.9301     0.0000     0.0000     0.0000     0.0000     0.0000     0.0000     0.0000     0.0000     0.0000 </r>
        <r>   -22.8178     0.0000     0.0000     0.0000     0.0000     0.0000     0.0000     0.0000     0.0000     0.0000 </r>
        <r>   -22.7054     0.0000     0.0000     0.0000     0.0000     0.0000     0.0000     0.0000     0.0000     0.0000 </r>
        <r>   -22.5931     0.0000     0.0000     0.0000     0.0000     0.0000     0.0000     0.0000     0.0000     0.0000 </r>
        <r>   -22.4807     0.0000     0.0000     0.0000     0.0000     0.0000     0.0000     0.0000     0.0000     0.0000 </r>
        <r>   -22.3684     0.0000     0.0000     0.0000     0.0000     0.0000     0.0000     0.0000     0.0000     0.0000 </r>
        <r>   -22.2560     0.0000     0.0000     0.0000     0.0000     0.0000     0.0000     0.0000     0.0000     0.0000 </r>
        <r>   -22.1436     0.0000     0.0000     0.0000     0.0000     0.0000     0.0000     0.0000     0.0000     0.0000 </r>
        <r>   -22.0313     0.0000     0.0000     0.0000     0.0000     0.0000     0.0000     0.0000     0.0000     0.0000 </r>
        <r>   -21.9189     0.0000     0.0000     0.0000     0.0000     0.0000     0.0000     0.0000     0.0000     0.0000 </r>
        <r>   -21.8066     0.0000     0.0000     0.0000     0.0000     0.0000     0.0000     0.0000     0.0000     0.0000 </r>
        <r>   -21.6942     0.0000     0.0000     0.0000     0.0000     0.0000     0.0000     0.0000     0.0000     0.0000 </r>
        <r>   -21.5819     0.0000     0.0000     0.0000     0.0000     0.0000     0.0000     0.0000     0.0000     0.0000 </r>
        <r>   -21.4695     0.0000     0.0000     0.0000     0.0000     0.0000     0.0000     0.0000     0.0000     0.0000 </r>
        <r>   -21.3572     0.0000     0.0000     0.0000     0.0000     0.0000     0.0000     0.0000     0.0000     0.0000 </r>
        <r>   -21.2448     0.0000     0.0000     0.0000     0.0000     0.0000     0.0000     0.0000     0.0000     0.0000 </r>
        <r>   -21.1325     0.0000     0.0000     0.0000     0.0000     0.0000     0.0000     0.0000     0.0000     0.0000 </r>
        <r>   -21.0201     0.0000     0.0000     0.0000     0.0000     0.0000     0.0000     0.0000     0.0000     0.0000 </r>
        <r>   -20.9078     0.0000     0.0000     0.0000     0.0000     0.0000     0.0000     0.0000     0.0000     0.0000 </r>
        <r>   -20.7954     0.0000     0.0000     0.0000     0.0000     0.0000     0.0000     0.0000     0.0000     0.0000 </r>
        <r>   -20.6831     0.0000     0.0000     0.0000     0.0000     0.0000     0.0000     0.0000     0.0000     0.0000 </r>
        <r>   -20.5707     0.0000     0.0000     0.0000     0.0000     0.0000     0.0000     0.0000     0.0000     0.0000 </r>
        <r>   -20.4584     0.0000     0.0000     0.0000     0.0000     0.0000     0.0000     0.0000     0.0000     0.0000 </r>
        <r>   -20.3460     0.0000     0.0000     0.0000     0.0000     0.0000     0.0000     0.0000     0.0000     0.0000 </r>
        <r>   -20.2337     0.0000     0.0000     0.0000     0.0000     0.0000     0.0000     0.0000     0.0000     0.0000 </r>
        <r>   -20.1213     0.0000     0.0000     0.0000     0.0000     0.0000     0.0000     0.0000     0.0000     0.0000 </r>
        <r>   -20.0089     0.0000     0.0000     0.0000     0.0000     0.0000     0.0000     0.0000     0.0000     0.0000 </r>
        <r>   -19.8966     0.0000     0.0000     0.0000     0.0000     0.0000     0.0000     0.0000     0.0000     0.0000 </r>
        <r>   -19.7842     0.0000     0.0000     0.0000     0.0000     0.0000     0.0000     0.0000     0.0000     0.0000 </r>
        <r>   -19.6719     0.0000     0.0000     0.0000     0.0000     0.0000     0.0000     0.0000     0.0000     0.0000 </r>
        <r>   -19.5595     0.0000     0.0000     0.0000     0.0000     0.0000     0.0000     0.0000     0.0000     0.0000 </r>
        <r>   -19.4472     0.0000     0.0000     0.0000     0.0000     0.0000     0.0000     0.0000     0.0000     0.0000 </r>
        <r>   -19.3348     0.0000     0.0000     0.0000     0.0000     0.0000     0.0000     0.0000     0.0000     0.0000 </r>
        <r>   -19.2225     0.0000     0.0000     0.0000     0.0000     0.0000     0.0000     0.0000     0.0000     0.0000 </r>
        <r>   -19.1101     0.0000     0.0000     0.0000     0.0000     0.0000     0.0000     0.0000     0.0000     0.0000 </r>
        <r>   -18.9978     0.0000     0.0000     0.0000     0.0000     0.0000     0.0000     0.0000     0.0000     0.0000 </r>
        <r>   -18.8854     0.0000     0.0000     0.0000     0.0000     0.0000     0.0000     0.0000     0.0000     0.0000 </r>
        <r>   -18.7731     0.0000     0.0000     0.0000     0.0000     0.0000     0.0000     0.0000     0.0000     0.0000 </r>
        <r>   -18.6607     0.0000     0.0000     0.0000     0.0000     0.0000     0.0000     0.0000     0.0000     0.0000 </r>
        <r>   -18.5484     0.0000     0.0000     0.0000     0.0000     0.0000     0.0000     0.0000     0.0000     0.0000 </r>
        <r>   -18.4360     0.0000     0.0000     0.0000     0.0000     0.0000     0.0000     0.0000     0.0000     0.0000 </r>
        <r>   -18.3237     0.0000     0.0000     0.0000     0.0000     0.0000     0.0000     0.0000     0.0000     0.0000 </r>
        <r>   -18.2113     0.0000     0.0000     0.0000     0.0000     0.0000     0.0000     0.0000     0.0000     0.0000 </r>
        <r>   -18.0990     0.0000     0.0000     0.0000     0.0000     0.0000     0.0000     0.0000     0.0000     0.0000 </r>
        <r>   -17.9866     0.0000     0.0000     0.0000     0.0000     0.0000     0.0000     0.0000     0.0000     0.0000 </r>
        <r>   -17.8742     0.0000     0.0000     0.0000     0.0000     0.0000     0.0000     0.0000     0.0000     0.0000 </r>
        <r>   -17.7619     0.0000     0.0000     0.0000     0.0000     0.0000     0.0000     0.0000     0.0000     0.0000 </r>
        <r>   -17.6495     0.0000     0.0000     0.0000     0.0000     0.0000     0.0000     0.0000     0.0000     0.0000 </r>
        <r>   -17.5372     0.0000     0.0000     0.0000     0.0000     0.0000     0.0000     0.0000     0.0000     0.0000 </r>
        <r>   -17.4248     0.0000     0.0000     0.0000     0.0000     0.0000     0.0000     0.0000     0.0000     0.0000 </r>
        <r>   -17.3125     0.0000     0.0000     0.0000     0.0000     0.0000     0.0000     0.0000     0.0000     0.0000 </r>
        <r>   -17.2001     0.0000     0.0000     0.0000     0.0000     0.0000     0.0000     0.0000     0.0000     0.0000 </r>
        <r>   -17.0878     0.0000     0.0000     0.0000     0.0000     0.0000     0.0000     0.0000     0.0000     0.0000 </r>
        <r>   -16.9754     0.0000     0.0000     0.0000     0.0000     0.0000     0.0000     0.0000     0.0000     0.0000 </r>
        <r>   -16.8631     0.0000     0.0000     0.0000     0.0000     0.0000     0.0000     0.0000     0.0000     0.0000 </r>
        <r>   -16.7507     0.0000     0.0000     0.0000     0.0000     0.0000     0.0000     0.0000     0.0000     0.0000 </r>
        <r>   -16.6384     0.0000     0.0000     0.0000     0.0000     0.0000     0.0000     0.0000     0.0000     0.0000 </r>
        <r>   -16.5260     0.0000     0.0000     0.0000     0.0000     0.0000     0.0000     0.0000     0.0000     0.0000 </r>
        <r>   -16.4137     0.0000     0.0000     0.0000     0.0000     0.0000     0.0000     0.0000     0.0000     0.0000 </r>
        <r>   -16.3013     0.0000     0.0000     0.0000     0.0000     0.0000     0.0000     0.0000     0.0000     0.0000 </r>
        <r>   -16.1890     0.0000     0.0000     0.0000     0.0000     0.0000     0.0000     0.0000     0.0000     0.0000 </r>
        <r>   -16.0766     0.0000     0.0000     0.0000     0.0000     0.0000     0.0000     0.0000     0.0000     0.0000 </r>
        <r>   -15.9642     0.0000     0.0000     0.0000     0.0000     0.0000     0.0000     0.0000     0.0000     0.0000 </r>
        <r>   -15.8519     0.0000     0.0000     0.0000     0.0000     0.0000     0.0000     0.0000     0.0000     0.0000 </r>
        <r>   -15.7395     0.0000     0.0000     0.0000     0.0000     0.0000     0.0000     0.0000     0.0000     0.0000 </r>
        <r>   -15.6272     0.0000     0.0000     0.0000     0.0000     0.0000     0.0000     0.0000     0.0000     0.0000 </r>
        <r>   -15.5148     0.0000     0.0000     0.0000     0.0000     0.0000     0.0000     0.0000     0.0000     0.0000 </r>
        <r>   -15.4025     0.0000     0.0000     0.0000     0.0000     0.0000     0.0000     0.0000     0.0000     0.0000 </r>
        <r>   -15.2901     0.0000     0.0000     0.0000     0.0000     0.0000     0.0000     0.0000     0.0000     0.0000 </r>
        <r>   -15.1778     0.0000     0.0000     0.0000     0.0000     0.0000     0.0000     0.0000     0.0000     0.0000 </r>
        <r>   -15.0654     0.0000     0.0000     0.0000     0.0000     0.0000     0.0000     0.0000     0.0000     0.0000 </r>
        <r>   -14.9531     0.0000     0.0000     0.0000     0.0000     0.0000     0.0000     0.0000     0.0000     0.0000 </r>
        <r>   -14.8407     0.0000     0.0000     0.0000     0.0000     0.0000     0.0000     0.0000     0.0000     0.0000 </r>
        <r>   -14.7284     0.0000     0.0000     0.0000     0.0000     0.0000     0.0000     0.0000     0.0000     0.0000 </r>
        <r>   -14.6160     0.0000     0.0000     0.0000     0.0000     0.0000     0.0000     0.0000     0.0000     0.0000 </r>
        <r>   -14.5037     0.0000     0.0000     0.0000     0.0000     0.0000     0.0000     0.0000     0.0000     0.0000 </r>
        <r>   -14.3913     0.0000     0.0000     0.0000     0.0000     0.0000     0.0000     0.0000     0.0000     0.0000 </r>
        <r>   -14.2790     0.0000     0.0000     0.0000     0.0000     0.0000     0.0000     0.0000     0.0000     0.0000 </r>
        <r>   -14.1666     0.0000     0.0000     0.0000     0.0000     0.0000     0.0000     0.0000     0.0000     0.0000 </r>
        <r>   -14.0543     0.0000     0.0000     0.0000     0.0000     0.0000     0.0000     0.0000     0.0000     0.0000 </r>
        <r>   -13.9419     0.0000     0.0000     0.0000     0.0000     0.0000     0.0000     0.0000     0.0000     0.0000 </r>
        <r>   -13.8295     0.0000     0.0000     0.0000     0.0000     0.0000     0.0000     0.0000     0.0000     0.0000 </r>
        <r>   -13.7172     0.0000     0.0000     0.0000     0.0000     0.0000     0.0000     0.0000     0.0000     0.0000 </r>
        <r>   -13.6048     0.0000     0.0000     0.0000     0.0000     0.0000     0.0000     0.0000     0.0000     0.0000 </r>
        <r>   -13.4925     0.0000     0.0000     0.0000     0.0000     0.0000     0.0000     0.0000     0.0000     0.0000 </r>
        <r>   -13.3801     0.0000     0.0000     0.0000     0.0000     0.0000     0.0000     0.0000     0.0000     0.0000 </r>
        <r>   -13.2678     0.0000     0.0000     0.0000     0.0000     0.0000     0.0000     0.0000     0.0000     0.0000 </r>
        <r>   -13.1554     0.0000     0.0000     0.0000     0.0000     0.0000     0.0000     0.0000     0.0000     0.0000 </r>
        <r>   -13.0431     0.0000     0.0000     0.0000     0.0000     0.0000     0.0000     0.0000     0.0000     0.0000 </r>
        <r>   -12.9307     0.0000     0.0000     0.0000     0.0000     0.0000     0.0000     0.0000     0.0000     0.0000 </r>
        <r>   -12.8184     0.0000     0.0000     0.0000     0.0000     0.0000     0.0000     0.0000     0.0000     0.0000 </r>
        <r>   -12.7060     0.0000     0.0000     0.0000     0.0000     0.0000     0.0000     0.0000     0.0000     0.0000 </r>
        <r>   -12.5937     0.0000     0.0000     0.0000     0.0000     0.0000     0.0000     0.0000     0.0000     0.0000 </r>
        <r>   -12.4813     0.0000     0.0000     0.0000     0.0000     0.0000     0.0000     0.0000     0.0000     0.0000 </r>
        <r>   -12.3690     0.0000     0.0000     0.0000     0.0000     0.0000     0.0000     0.0000     0.0000     0.0000 </r>
        <r>   -12.2566     0.0000     0.0000     0.0000     0.0000     0.0000     0.0000     0.0000     0.0000     0.0000 </r>
        <r>   -12.1443     0.0000     0.0000     0.0000     0.0000     0.0000     0.0000     0.0000     0.0000     0.0000 </r>
        <r>   -12.0319     0.0000     0.0000     0.0000     0.0000     0.0000     0.0000     0.0000     0.0000     0.0000 </r>
        <r>   -11.9196     0.0000     0.0000     0.0000     0.0000     0.0000     0.0000     0.0000     0.0000     0.0000 </r>
        <r>   -11.8072     0.0000     0.0000     0.0000     0.0000     0.0000     0.0000     0.0000     0.0000     0.0000 </r>
        <r>   -11.6948     0.0000     0.0000     0.0000     0.0000     0.0000     0.0000     0.0000     0.0000     0.0000 </r>
        <r>   -11.5825     0.0000     0.0000     0.0000     0.0000     0.0000     0.0000     0.0000     0.0000     0.0000 </r>
        <r>   -11.4701     0.0000     0.0000     0.0000     0.0000     0.0000     0.0000     0.0000     0.0000     0.0000 </r>
        <r>   -11.3578     0.0000     0.0000     0.0000     0.0000     0.0000     0.0000     0.0000     0.0000     0.0000 </r>
        <r>   -11.2454     0.0000     0.0000     0.0000     0.0000     0.0000     0.0000     0.0000     0.0000     0.0000 </r>
        <r>   -11.1331     0.0000     0.0000     0.0000     0.0000     0.0000     0.0000     0.0000     0.0000     0.0000 </r>
        <r>   -11.0207     0.0000     0.0000     0.0000     0.0000     0.0000     0.0000     0.0000     0.0000     0.0000 </r>
        <r>   -10.9084     0.0000     0.0000     0.0000     0.0000     0.0000     0.0000     0.0000     0.0000     0.0000 </r>
        <r>   -10.7960     0.0000     0.0000     0.0000     0.0000     0.0000     0.0000     0.0000     0.0000     0.0000 </r>
        <r>   -10.6837     0.0000     0.0000     0.0000     0.0000     0.0000     0.0000     0.0000     0.0000     0.0000 </r>
        <r>   -10.5713     0.0000     0.0000     0.0000     0.0000     0.0000     0.0000     0.0000     0.0000     0.0000 </r>
        <r>   -10.4590     0.0000     0.0000     0.0000     0.0000     0.0000     0.0000     0.0000     0.0000     0.0000 </r>
        <r>   -10.3466     0.0000     0.0000     0.0000     0.0000     0.0000     0.0000     0.0000     0.0000     0.0000 </r>
        <r>   -10.2343     0.0000     0.0000     0.0000     0.0000     0.0000     0.0000     0.0000     0.0000     0.0000 </r>
        <r>   -10.1219     0.0000     0.6447     0.6445     0.6446     0.0000     0.0000     0.0000     0.0000     0.0000 </r>
        <r>   -10.0096     0.0000     5.5905     5.5904     5.5905     0.0000     0.0000     0.0000     0.0000     0.0000 </r>
        <r>    -9.8972     0.0000     0.1849     0.1850     0.1850     0.0000     0.0000     0.0000     0.0000     0.0000 </r>
        <r>    -9.7849     0.0000     0.0000     0.0000     0.0000     0.0000     0.0000     0.0000     0.0000     0.0000 </r>
        <r>    -9.6725     0.0000     0.0000     0.0000     0.0000     0.0000     0.0000     0.0000     0.0000     0.0000 </r>
        <r>    -9.5601     0.0000     0.0000     0.0000     0.0000     0.0000     0.0000     0.0000     0.0000     0.0000 </r>
        <r>    -9.4478     0.0000     0.0000     0.0000     0.0000     0.0000     0.0000     0.0000     0.0000     0.0000 </r>
        <r>    -9.3354     0.0000     0.0000     0.0000     0.0000     0.0000     0.0000     0.0000     0.0000     0.0000 </r>
        <r>    -9.2231     0.0000     0.0000     0.0000     0.0000     0.0000     0.0000     0.0000     0.0000     0.0000 </r>
        <r>    -9.1107     0.0000     0.0000     0.0000     0.0000     0.0000     0.0000     0.0000     0.0000     0.0000 </r>
        <r>    -8.9984     0.0000     0.0000     0.0000     0.0000     0.0000     0.0000     0.0000     0.0000     0.0000 </r>
        <r>    -8.8860     0.0000     0.0000     0.0000     0.0000     0.0000     0.0000     0.0000     0.0000     0.0000 </r>
        <r>    -8.7737     0.0000     0.0000     0.0000     0.0000     0.0000     0.0000     0.0000     0.0000     0.0000 </r>
        <r>    -8.6613     0.0000     0.0000     0.0000     0.0000     0.0000     0.0000     0.0000     0.0000     0.0000 </r>
        <r>    -8.5490     0.0000     0.0000     0.0000     0.0000     0.0000     0.0000     0.0000     0.0000     0.0000 </r>
        <r>    -8.4366     0.0000     0.0000     0.0000     0.0000     0.0000     0.0000     0.0000     0.0000     0.0000 </r>
        <r>    -8.3243     0.0000     0.0000     0.0000     0.0000     0.0000     0.0000     0.0000     0.0000     0.0000 </r>
        <r>    -8.2119     0.0000     0.0000     0.0000     0.0000     0.0000     0.0000     0.0000     0.0000     0.0000 </r>
        <r>    -8.0996     0.0000     0.0000     0.0000     0.0000     0.0000     0.0000     0.0000     0.0000     0.0000 </r>
        <r>    -7.9872     0.0000     0.0000     0.0000     0.0000     0.0000     0.0000     0.0000     0.0000     0.0000 </r>
        <r>    -7.8749     0.0000     0.0000     0.0000     0.0000     0.0000     0.0000     0.0000     0.0000     0.0000 </r>
        <r>    -7.7625     0.0000     0.0000     0.0000     0.0000     0.0000     0.0000     0.0000     0.0000     0.0000 </r>
        <r>    -7.6501     0.0000     0.0000     0.0000     0.0000     0.0000     0.0000     0.0000     0.0000     0.0000 </r>
        <r>    -7.5378     0.0000     0.0000     0.0000     0.0000     0.0000     0.0000     0.0000     0.0000     0.0000 </r>
        <r>    -7.4254     0.0000     0.0000     0.0000     0.0000     0.0000     0.0000     0.0000     0.0000     0.0000 </r>
        <r>    -7.3131     0.0000     0.0000     0.0000     0.0000     0.0000     0.0000     0.0000     0.0000     0.0000 </r>
        <r>    -7.2007     0.0000     0.0000     0.0000     0.0000     0.0000     0.0000     0.0000     0.0000     0.0000 </r>
        <r>    -7.0884     0.0000     0.0000     0.0000     0.0000     0.0000     0.0000     0.0000     0.0000     0.0000 </r>
        <r>    -6.9760     0.0000     0.0000     0.0000     0.0000     0.0000     0.0000     0.0000     0.0000     0.0000 </r>
        <r>    -6.8637     0.0000     0.0000     0.0000     0.0000     0.0000     0.0000     0.0000     0.0000     0.0000 </r>
        <r>    -6.7513     0.0000     0.0000     0.0000     0.0000     0.0000     0.0000     0.0000     0.0000     0.0000 </r>
        <r>    -6.6390     0.0000     0.0000     0.0000     0.0000     0.0000     0.0000     0.0000     0.0000     0.0000 </r>
        <r>    -6.5266     0.0000     0.0000     0.0000     0.0000     0.0000     0.0000     0.0000     0.0000     0.0000 </r>
        <r>    -6.4143     0.0000     0.0000     0.0000     0.0000     0.0000     0.0000     0.0000     0.0000     0.0000 </r>
        <r>    -6.3019     0.0000     0.0000     0.0000     0.0000     0.0000     0.0000     0.0000     0.0000     0.0000 </r>
        <r>    -6.1896     0.0000     0.0000     0.0000     0.0000     0.0000     0.0000     0.0000     0.0000     0.0000 </r>
        <r>    -6.0772     0.0000     0.0000     0.0000     0.0000     0.0000     0.0000     0.0000     0.0000     0.0000 </r>
        <r>    -5.9649     0.0000     0.0000     0.0000     0.0000     0.0000     0.0000     0.0000     0.0000     0.0000 </r>
        <r>    -5.8525     0.0000     0.0000     0.0000     0.0000     0.0000     0.0000     0.0000     0.0000     0.0000 </r>
        <r>    -5.7402     0.0000     0.0000     0.0000     0.0000     0.0000     0.0000     0.0000     0.0000     0.0000 </r>
        <r>    -5.6278     0.0000     0.0000     0.0000     0.0000     0.0000     0.0000     0.0000     0.0000     0.0000 </r>
        <r>    -5.5154     0.0000     0.0000     0.0000     0.0000     0.0000     0.0000     0.0000     0.0000     0.0000 </r>
        <r>    -5.4031     0.0000     0.0000     0.0000     0.0000     0.0000     0.0000     0.0000     0.0000     0.0000 </r>
        <r>    -5.2907     0.0000     0.0000     0.0000     0.0000     0.0000     0.0000     0.0000     0.0000     0.0000 </r>
        <r>    -5.1784     0.0000     0.0000     0.0000     0.0000     0.0000     0.0000     0.0000     0.0000     0.0000 </r>
        <r>    -5.0660     0.0000     0.0000     0.0000     0.0000     0.0000     0.0000     0.0000     0.0000     0.0000 </r>
        <r>    -4.9537     0.0000     0.0000     0.0000     0.0000     0.0000     0.0000     0.0000     0.0000     0.0000 </r>
        <r>    -4.8413     0.0000     0.0000     0.0000     0.0000     0.0000     0.0000     0.0000     0.0000     0.0000 </r>
[...]
        <r>     3.0234     0.0272     0.0048     0.0249     0.0229     0.0000     0.0000     0.0000     0.0000     0.0000 </r>
        <r>     3.1357     0.0000     0.0006     0.0023     0.0021     0.0000     0.0000     0.0000     0.0000     0.0000 </r>
        <r>     3.2481     0.0000     0.0000     0.0000     0.0000     0.0000     0.0000     0.0000     0.0000     0.0000 </r>
        <r>     3.3604     0.0000     0.0000     0.0000     0.0000     0.0000     0.0000     0.0000     0.0000     0.0000 </r>
        <r>     3.4728     0.0000     0.0000     0.0000     0.0000     0.0000     0.0000     0.0000     0.0000     0.0000 </r>
        <r>     3.5851     0.0000     0.0000     0.0000     0.0000     0.0000     0.0000     0.0000     0.0000     0.0000 </r>
        <r>     3.6975     0.0000     0.0000     0.0000     0.0000     0.0000     0.0000     0.0000     0.0000     0.0000 </r>
        <r>     3.8098     0.0000     0.0000     0.0000     0.0000     0.0000     0.0000     0.0000     0.0000     0.0000 </r>
        <r>     3.9222     0.0000     0.0000     0.0000     0.0000     0.0000     0.0000     0.0000     0.0000     0.0000 </r>
        <r>     4.0345     0.0000     0.0000     0.0000     0.0000     0.0000     0.0000     0.0000     0.0000     0.0000 </r>
        <r>     4.1469     0.0003     0.0007     0.0003     0.0006     0.0000     0.0000     0.0000     0.0000     0.0000 </r>
        <r>     4.2592     0.0001     0.0002     0.0001     0.0001     0.0000     0.0000     0.0000     0.0000     0.0000 </r>
        <r>     4.3716     0.0000     0.0002     0.0001     0.0000     0.0000     0.0000     0.0000     0.0000     0.0000 </r>
        <r>     4.4839     0.0006     0.0166     0.0248     0.0157     0.0000     0.0000     0.0000     0.0000     0.0000 </r>
        <r>     4.5963     0.0260     0.0151     0.0735     0.0666     0.0000     0.0000     0.0000     0.0000     0.0000 </r>
        <r>     4.7086     0.0271     0.0212     0.0086     0.0215     0.0000     0.0000     0.0000     0.0000     0.0000 </r>
        <r>     4.8210     0.0036     0.0156     0.0162     0.0087     0.0000     0.0000     0.0000     0.0000     0.0000 </r>
        <r>     4.9334     0.0005     0.0021     0.0020     0.0001     0.0000     0.0000     0.0000     0.0000     0.0000 </r>
        <r>     5.0457     0.0000     0.0000     0.0000     0.0000     0.0000     0.0000     0.0000     0.0000     0.0000 </r>
        <r>     5.1581     0.0000     0.0000     0.0000     0.0000     0.0000     0.0000     0.0000     0.0000     0.0000 </r>
        <r>     5.2704     0.0000     0.0000     0.0000     0.0000     0.0000     0.0000     0.0000     0.0000     0.0000 </r>
        <r>     5.3828     0.0000     0.0000     0.0000     0.0000     0.0000     0.0000     0.0000     0.0000     0.0000 </r>
        <r>     5.4951     0.0000     0.0000     0.0000     0.0000     0.0000     0.0000     0.0000     0.0000     0.0000 </r>
        <r>     5.6075     0.0000     0.0000     0.0000     0.0000     0.0000     0.0000     0.0000     0.0000     0.0000 </r>
        <r>     5.7198     0.0000     0.0000     0.0000     0.0000     0.0000     0.0000     0.0000     0.0000     0.0000 </r>
        <r>     5.8322     0.0000     0.0000     0.0000     0.0000     0.0000     0.0000     0.0000     0.0000     0.0000 </r>
        <r>     5.9445     0.0000     0.0000     0.0000     0.0000     0.0000     0.0000     0.0000     0.0000     0.0000 </r>
        <r>     6.0569     0.0056     0.0006     0.0000     0.0015     0.0000     0.0000     0.0000     0.0000     0.0000 </r>
        <r>     6.1692     0.0133     0.0015     0.0001     0.0036     0.0000     0.0000     0.0000     0.0000     0.0000 </r>
        <r>     6.2816     0.0002     0.0002     0.0006     0.0013     0.0000     0.0000     0.0000     0.0000     0.0000 </r>
        <r>     6.3939     0.0017     0.0025     0.0079     0.0164     0.0000     0.0000     0.0000     0.0000     0.0000 </r>
        <r>     6.5063     0.0001     0.0003     0.0185     0.0042     0.0000     0.0000     0.0000     0.0000     0.0000 </r>
        <r>     6.6186     0.0000     0.0001     0.0084     0.0015     0.0000     0.0000     0.0000     0.0000     0.0000 </r>
        <r>     6.7310     0.0000     0.0000     0.0000     0.0000     0.0000     0.0000     0.0000     0.0000     0.0000 </r>
        <r>     6.8433     0.0000     0.0000     0.0000     0.0000     0.0000     0.0000     0.0000     0.0000     0.0000 </r>
        <r>     6.9557     0.0000     0.0000     0.0000     0.0000     0.0000     0.0000     0.0000     0.0000     0.0000 </r>
        <r>     7.0681     0.0000     0.0000     0.0000     0.0000     0.0000     0.0000     0.0000     0.0000     0.0000 </r>
        <r>     7.1804     0.0000     0.0000     0.0000     0.0000     0.0000     0.0000     0.0000     0.0000     0.0000 </r>
        <r>     7.2928     0.0000     0.0000     0.0000     0.0000     0.0000     0.0000     0.0000     0.0000     0.0000 </r>
        <r>     7.4051     0.0000     0.0000     0.0000     0.0000     0.0000     0.0000     0.0000     0.0000     0.0000 </r>
        <r>     7.5175     0.0000     0.0000     0.0000     0.0000     0.0000     0.0000     0.0000     0.0000     0.0000 </r>
        <r>     7.6298     0.0000     0.0000     0.0000     0.0000     0.0000     0.0000     0.0000     0.0000     0.0000 </r>
        <r>     7.7422     0.0000     0.0000     0.0000     0.0000     0.0000     0.0000     0.0000     0.0000     0.0000 </r>
        <r>     7.8545     0.0000     0.0000     0.0000     0.0000     0.0000     0.0000     0.0000     0.0000     0.0000 </r>
        <r>     7.9669     0.0000     0.0000     0.0000     0.0000     0.0000     0.0000     0.0000     0.0000     0.0000 </r>
        <r>     8.0792     0.0000     0.0000     0.0000     0.0000     0.0000     0.0000     0.0000     0.0000     0.0000 </r>
       </set>
      </set>
     </set>
    </array>
   </partial>
  </dos>
  <projected>
   <eigenvalues>
    <array>
     <dimension dim="1">band</dimension>
     <dimension dim="2">kpoint</dimension>
     <dimension dim="3">spin</dimension>
     <field>eigene</field>
     <field>occ</field>
     <set>
      <set comment="spin 1">
       <set comment="kpoint 1">
        <r>  -24.0945    1.0000 </r>
        <r>  -10.0767    1.0000 </r>
        <r>  -10.0767    1.0000 </r>
        <r>  -10.0767    1.0000 </r>
        <r>   -0.3504    0.0000 </r>
        <r>    1.1309    0.0000 </r>
        <r>    1.2574    0.0000 </r>
        <r>    1.2596    0.0000 </r>
        <r>    1.2627    0.0000 </r>
        <r>    1.4140    0.0000 </r>
        <r>    1.4143    0.0000 </r>
        <r>    2.5510    0.0000 </r>
        <r>    2.5534    0.0000 </r>
        <r>    2.5574    0.0000 </r>
        <r>    2.7646    0.0000 </r>
        <r>    2.8097    0.0000 </r>
        <r>    2.8216    0.0000 </r>
        <r>    2.8504    0.0000 </r>
        <r>    2.8832    0.0000 </r>
        <r>    2.8833    0.0000 </r>
        <r>    2.9250    0.0000 </r>
        <r>    2.9578    0.0000 </r>
        <r>    3.0059    0.0000 </r>
        <r>    4.1049    0.0000 </r>
        <r>    4.1090    0.0000 </r>
        <r>    4.1155    0.0000 </r>
        <r>    4.4297    0.0000 </r>
        <r>    4.4679    0.0000 </r>
        <r>    4.5579    0.0000 </r>
        <r>    4.5965    0.0000 </r>
        <r>    4.6757    0.0000 </r>
        <r>    4.7340    0.0000 </r>
        <r>    5.0218    0.0000 </r>
        <r>    6.0328    0.0000 </r>
        <r>    6.1761    0.0000 </r>
        <r>    6.5471    0.0000 </r>
       </set>
      </set>
      <set comment="spin 2">
       <set comment="kpoint 1">
        <r>  -24.0943    1.0000 </r>
        <r>  -10.0766    1.0000 </r>
        <r>  -10.0766    1.0000 </r>
        <r>  -10.0766    1.0000 </r>
        <r>   -0.3509    0.0000 </r>
        <r>    1.1313    0.0000 </r>
        <r>    1.2589    0.0000 </r>
        <r>    1.2619    0.0000 </r>
        <r>    1.2657    0.0000 </r>
        <r>    1.4116    0.0000 </r>
        <r>    1.4129    0.0000 </r>
        <r>    2.5508    0.0000 </r>
        <r>    2.5512    0.0000 </r>
        <r>    2.5533    0.0000 </r>
        <r>    2.7288    0.0000 </r>
        <r>    2.7438    0.0000 </r>
        <r>    2.7801    0.0000 </r>
        <r>    2.8691    0.0000 </r>
        <r>    2.8740    0.0000 </r>
        <r>    2.8929    0.0000 </r>
        <r>    2.9761    0.0000 </r>
        <r>    2.9952    0.0000 </r>
        <r>    3.0168    0.0000 </r>
        <r>    4.1097    0.0000 </r>
        <r>    4.1155    0.0000 </r>
        <r>    4.1158    0.0000 </r>
        <r>    4.4543    0.0000 </r>
        <r>    4.5158    0.0000 </r>
        <r>    4.5180    0.0000 </r>
        <r>    4.5978    0.0000 </r>
        <r>    4.6161    0.0000 </r>
        <r>    4.7059    0.0000 </r>
        <r>    4.7794    0.0000 </r>
        <r>    6.0759    0.0000 </r>
        <r>    6.3339    0.0000 </r>
        <r>    6.4892    0.0000 </r>
       </set>
      </set>
     </set>
    </array>
   </eigenvalues>
   <array>
    <dimension dim="1">ion</dimension>
    <dimension dim="2">band</dimension>
    <dimension dim="3">kpoint</dimension>
    <dimension dim="4">spin</dimension>
    <field>    s</field>
    <field>   py</field>
    <field>   pz</field>
    <field>   px</field>
    <field>  dxy</field>
    <field>  dyz</field>
    <field>  dz2</field>
    <field>  dxz</field>
    <field>x2-y2</field>
    <set>
     <set comment="spin1">
      <set comment="kpoint 1">
       <set comment="band 1">
        <r>  0.8547  0.0000  0.0000  0.0000  0.0000  0.0000  0.0000  0.0000  0.0000 </r>
       </set>
       <set comment="band 2">
        <r>  0.0000  0.7146  0.0012  0.0055  0.0000  0.0000  0.0000  0.0000  0.0000 </r>
       </set>
       <set comment="band 3">
        <r>  0.0000  0.0065  0.2310  0.4838  0.0000  0.0000  0.0000  0.0000  0.0000 </r>
       </set>
       <set comment="band 4">
        <r>  0.0000  0.0002  0.4891  0.2320  0.0000  0.0000  0.0000  0.0000  0.0000 </r>
       </set>
       <set comment="band 5">
        <r>  0.0120  0.0000  0.0000  0.0000  0.0000  0.0000  0.0000  0.0000  0.0000 </r>
       </set>
       <set comment="band 6">
        <r>  0.0142  0.0000  0.0000  0.0000  0.0000  0.0000  0.0000  0.0000  0.0000 </r>
       </set>
       <set comment="band 7">
        <r>  0.0000  0.0065  0.0004  0.0132  0.0000  0.0000  0.0000  0.0000  0.0000 </r>
       </set>
       <set comment="band 8">
        <r>  0.0000  0.0072  0.0104  0.0019  0.0000  0.0000  0.0000  0.0000  0.0000 </r>
       </set>
       <set comment="band 9">
        <r>  0.0000  0.0063  0.0085  0.0059  0.0000  0.0000  0.0000  0.0000  0.0000 </r>
       </set>
       <set comment="band 10">
        <r>  0.0000  0.0000  0.0000  0.0000  0.0000  0.0000  0.0000  0.0000  0.0000 </r>
       </set>
       <set comment="band 11">
        <r>  0.0000  0.0000  0.0000  0.0000  0.0000  0.0000  0.0000  0.0000  0.0000 </r>
       </set>
       <set comment="band 12">
        <r>  0.0000  0.0000  0.0000  0.0000  0.0000  0.0000  0.0000  0.0000  0.0000 </r>
       </set>
       <set comment="band 13">
        <r>  0.0000  0.0000  0.0000  0.0001  0.0000  0.0000  0.0000  0.0000  0.0000 </r>
       </set>
       <set comment="band 14">
        <r>  0.0000  0.0000  0.0002  0.0003  0.0000  0.0000  0.0000  0.0000  0.0000 </r>
       </set>
       <set comment="band 15">
        <r>  0.0009  0.0044  0.0028  0.0136  0.0000  0.0000  0.0000  0.0000  0.0000 </r>
       </set>
       <set comment="band 16">
        <r>  0.0000  0.0042  0.0138  0.0005  0.0000  0.0000  0.0000  0.0000  0.0000 </r>
       </set>
       <set comment="band 17">
        <r>  0.0030  0.0061  0.0010  0.0068  0.0000  0.0000  0.0000  0.0000  0.0000 </r>
       </set>
       <set comment="band 18">
        <r>  0.0071  0.0068  0.0038  0.0005  0.0000  0.0000  0.0000  0.0000  0.0000 </r>
       </set>
       <set comment="band 19">
        <r>  0.0000  0.0001  0.0005  0.0002  0.0000  0.0000  0.0000  0.0000  0.0000 </r>
       </set>
       <set comment="band 20">
        <r>  0.0016  0.0014  0.0003  0.0002  0.0000  0.0000  0.0000  0.0000  0.0000 </r>
       </set>
       <set comment="band 21">
        <r>  0.0000  0.0033  0.0027  0.0015  0.0000  0.0000  0.0000  0.0000  0.0000 </r>
       </set>
       <set comment="band 22">
        <r>  0.0001  0.0014  0.0014  0.0025  0.0000  0.0000  0.0000  0.0000  0.0000 </r>
       </set>
       <set comment="band 23">
        <r>  0.0000  0.0001  0.0018  0.0001  0.0000  0.0000  0.0000  0.0000  0.0000 </r>
       </set>
       <set comment="band 24">
        <r>  0.0000  0.0001  0.0000  0.0000  0.0000  0.0000  0.0000  0.0000  0.0000 </r>
       </set>
       <set comment="band 25">
        <r>  0.0000  0.0000  0.0000  0.0000  0.0000  0.0000  0.0000  0.0000  0.0000 </r>
       </set>
       <set comment="band 26">
        <r>  0.0000  0.0000  0.0000  0.0000  0.0000  0.0000  0.0000  0.0000  0.0000 </r>
       </set>
       <set comment="band 27">
        <r>  0.0000  0.0002  0.0010  0.0073  0.0000  0.0000  0.0000  0.0000  0.0000 </r>
       </set>
       <set comment="band 28">
        <r>  0.0000  0.0093  0.0016  0.0000  0.0000  0.0000  0.0000  0.0000  0.0000 </r>
       </set>
       <set comment="band 29">
        <r>  0.0005  0.0004  0.0009  0.0011  0.0000  0.0000  0.0000  0.0000  0.0000 </r>
       </set>
       <set comment="band 30">
        <r>  0.0057  0.0000  0.0005  0.0002  0.0000  0.0000  0.0000  0.0000  0.0000 </r>
       </set>
       <set comment="band 31">
        <r>  0.0000  0.0000  0.0013  0.0004  0.0000  0.0000  0.0000  0.0000  0.0000 </r>
       </set>
       <set comment="band 32">
        <r>  0.0000  0.0000  0.0009  0.0004  0.0000  0.0000  0.0000  0.0000  0.0000 </r>
       </set>
       <set comment="band 33">
        <r>  0.0006  0.0011  0.0021  0.0017  0.0000  0.0000  0.0000  0.0000  0.0000 </r>
       </set>
       <set comment="band 34">
        <r>  0.0002  0.0003  0.0003  0.0004  0.0000  0.0000  0.0000  0.0000  0.0000 </r>
       </set>
       <set comment="band 35">
        <r>  0.0013  0.0000  0.0000  0.0003  0.0000  0.0000  0.0000  0.0000  0.0000 </r>
       </set>
       <set comment="band 36">
        <r>  0.0001  0.0011  0.0000  0.0004  0.0000  0.0000  0.0000  0.0000  0.0000 </r>
       </set>
      </set>
     </set>
     <set comment="spin2">
      <set comment="kpoint 1">
       <set comment="band 1">
        <r>  0.8547  0.0000  0.0000  0.0000  0.0000  0.0000  0.0000  0.0000  0.0000 </r>
       </set>
       <set comment="band 2">
        <r>  0.0000  0.0209  0.1189  0.5815  0.0000  0.0000  0.0000  0.0000  0.0000 </r>
       </set>
       <set comment="band 3">
        <r>  0.0000  0.6355  0.0854  0.0004  0.0000  0.0000  0.0000  0.0000  0.0000 </r>
       </set>
       <set comment="band 4">
        <r>  0.0000  0.0649  0.5170  0.1394  0.0000  0.0000  0.0000  0.0000  0.0000 </r>
       </set>
       <set comment="band 5">
        <r>  0.0119  0.0000  0.0000  0.0000  0.0000  0.0000  0.0000  0.0000  0.0000 </r>
       </set>
       <set comment="band 6">
        <r>  0.0142  0.0000  0.0000  0.0000  0.0000  0.0000  0.0000  0.0000  0.0000 </r>
       </set>
       <set comment="band 7">
        <r>  0.0000  0.0005  0.0085  0.0107  0.0000  0.0000  0.0000  0.0000  0.0000 </r>
       </set>
       <set comment="band 8">
        <r>  0.0000  0.0135  0.0017  0.0040  0.0000  0.0000  0.0000  0.0000  0.0000 </r>
       </set>
       <set comment="band 9">
        <r>  0.0000  0.0052  0.0082  0.0052  0.0000  0.0000  0.0000  0.0000  0.0000 </r>
       </set>
       <set comment="band 10">
        <r>  0.0000  0.0003  0.0000  0.0000  0.0000  0.0000  0.0000  0.0000  0.0000 </r>
       </set>
       <set comment="band 11">
        <r>  0.0000  0.0000  0.0001  0.0001  0.0000  0.0000  0.0000  0.0000  0.0000 </r>
       </set>
       <set comment="band 12">
        <r>  0.0000  0.0000  0.0000  0.0000  0.0000  0.0000  0.0000  0.0000  0.0000 </r>
       </set>
       <set comment="band 13">
        <r>  0.0000  0.0000  0.0000  0.0000  0.0000  0.0000  0.0000  0.0000  0.0000 </r>
       </set>
       <set comment="band 14">
        <r>  0.0000  0.0001  0.0000  0.0000  0.0000  0.0000  0.0000  0.0000  0.0000 </r>
       </set>
       <set comment="band 15">
        <r>  0.0000  0.0249  0.0001  0.0019  0.0000  0.0000  0.0000  0.0000  0.0000 </r>
       </set>
       <set comment="band 16">
        <r>  0.0004  0.0006  0.0236  0.0003  0.0000  0.0000  0.0000  0.0000  0.0000 </r>
       </set>
       <set comment="band 17">
        <r>  0.0022  0.0012  0.0000  0.0180  0.0000  0.0000  0.0000  0.0000  0.0000 </r>
       </set>
       <set comment="band 18">
        <r>  0.0000  0.0022  0.0006  0.0002  0.0000  0.0000  0.0000  0.0000  0.0000 </r>
       </set>
       <set comment="band 19">
        <r>  0.0000  0.0001  0.0000  0.0019  0.0000  0.0000  0.0000  0.0000  0.0000 </r>
       </set>
       <set comment="band 20">
        <r>  0.0099  0.0002  0.0013  0.0040  0.0000  0.0000  0.0000  0.0000  0.0000 </r>
       </set>
       <set comment="band 21">
        <r>  0.0000  0.0002  0.0026  0.0004  0.0000  0.0000  0.0000  0.0000  0.0000 </r>
       </set>
       <set comment="band 22">
        <r>  0.0000  0.0000  0.0000  0.0009  0.0000  0.0000  0.0000  0.0000  0.0000 </r>
       </set>
       <set comment="band 23">
        <r>  0.0000  0.0001  0.0000  0.0000  0.0000  0.0000  0.0000  0.0000  0.0000 </r>
       </set>
       <set comment="band 24">
        <r>  0.0000  0.0000  0.0000  0.0000  0.0000  0.0000  0.0000  0.0000  0.0000 </r>
       </set>
       <set comment="band 25">
        <r>  0.0000  0.0000  0.0000  0.0000  0.0000  0.0000  0.0000  0.0000  0.0000 </r>
       </set>
       <set comment="band 26">
        <r>  0.0000  0.0001  0.0000  0.0001  0.0000  0.0000  0.0000  0.0000  0.0000 </r>
       </set>
       <set comment="band 27">
        <r>  0.0001  0.0023  0.0014  0.0003  0.0000  0.0000  0.0000  0.0000  0.0000 </r>
       </set>
       <set comment="band 28">
        <r>  0.0000  0.0001  0.0052  0.0075  0.0000  0.0000  0.0000  0.0000  0.0000 </r>
       </set>
       <set comment="band 29">
        <r>  0.0001  0.0001  0.0043  0.0010  0.0000  0.0000  0.0000  0.0000  0.0000 </r>
       </set>
       <set comment="band 30">
        <r>  0.0058  0.0004  0.0000  0.0003  0.0000  0.0000  0.0000  0.0000  0.0000 </r>
       </set>
       <set comment="band 31">
        <r>  0.0000  0.0029  0.0008  0.0016  0.0000  0.0000  0.0000  0.0000  0.0000 </r>
       </set>
       <set comment="band 32">
        <r>  0.0000  0.0001  0.0005  0.0019  0.0000  0.0000  0.0000  0.0000  0.0000 </r>
       </set>
       <set comment="band 33">
        <r>  0.0005  0.0020  0.0018  0.0001  0.0000  0.0000  0.0000  0.0000  0.0000 </r>
       </set>
       <set comment="band 34">
        <r>  0.0021  0.0002  0.0000  0.0006  0.0000  0.0000  0.0000  0.0000  0.0000 </r>
       </set>
       <set comment="band 35">
        <r>  0.0002  0.0003  0.0010  0.0021  0.0000  0.0000  0.0000  0.0000  0.0000 </r>
       </set>
       <set comment="band 36">
        <r>  0.0000  0.0000  0.0030  0.0006  0.0000  0.0000  0.0000  0.0000  0.0000 </r>
       </set>
      </set>
     </set>
    </set>
   </array>
  </projected>
 </calculation>
 <structure name="finalpos" >
  <crystal>
   <varray name="basis" >
    <v>      10.00000000       0.00000000       0.00000000 </v>
    <v>       0.00000000      10.00000000       0.00000000 </v>
    <v>       0.00000000       0.00000000      10.00000000 </v>
   </varray>
   <i name="volume">   1000.00000000 </i>
   <varray name="rec_basis" >
    <v>       0.10000000       0.00000000       0.00000000 </v>
    <v>       0.00000000       0.10000000       0.00000000 </v>
    <v>       0.00000000       0.00000000       0.10000000 </v>
   </varray>
  </crystal>
  <varray name="positions" >
   <v>       0.50000000       0.50000000       0.50000000 </v>
  </varray>
 </structure>
</modeling>
