 vasp.5.4.4.18Apr17-6-g9f103f2a35 (build Apr 25 2017 10:43:04) complex          
  
 executed on             LinuxIFC date 2019.12.16  16:31:51
 running on   36 total cores
 distrk:  each k-point on    9 cores,    4 groups
 distr:  one band on NCORES_PER_BAND=   1 cores,    9 groups


--------------------------------------------------------------------------------------------------------


 INCAR:
 POTCAR:    PAW_PBE Ba_sv 06Sep2000               
 POTCAR:    PAW_PBE Ta 17Jan2003                  
 POTCAR:    PAW_PBE O 08Apr2002                   

 ----------------------------------------------------------------------------- 
|                                                                             |
|           W    W    AA    RRRRR   N    N  II  N    N   GGGG   !!!           |
|           W    W   A  A   R    R  NN   N  II  NN   N  G    G  !!!           |
|           W    W  A    A  R    R  N N  N  II  N N  N  G       !!!           |
|           W WW W  AAAAAA  RRRRR   N  N N  II  N  N N  G  GGG   !            |
|           WW  WW  A    A  R   R   N   NN  II  N   NN  G    G                |
|           W    W  A    A  R    R  N    N  II  N    N   GGGG   !!!           |
|                                                                             |
|      For optimal performance we recommend to set                            |
|        NCORE= 4 - approx SQRT( number of cores)                             |
|      NCORE specifies how many cores store one orbital (NPAR=cpu/NCORE).     |
|      This setting can  greatly improve the performance of VASP for DFT.     |
|      The default,   NCORE=1            might be grossly inefficient         |
|      on modern multi-core architectures or massively parallel machines.     |
|      Do your own testing !!!!                                               |
|      Unfortunately you need to use the default for GW and RPA calculations. |
|      (for HF NCORE is supported but not extensively tested yet)             |
|                                                                             |
 ----------------------------------------------------------------------------- 


 ----------------------------------------------------------------------------- 
|                                                                             |
|           W    W    AA    RRRRR   N    N  II  N    N   GGGG   !!!           |
|           W    W   A  A   R    R  NN   N  II  NN   N  G    G  !!!           |
|           W    W  A    A  R    R  N N  N  II  N N  N  G       !!!           |
|           W WW W  AAAAAA  RRRRR   N  N N  II  N  N N  G  GGG   !            |
|           WW  WW  A    A  R   R   N   NN  II  N   NN  G    G                |
|           W    W  A    A  R    R  N    N  II  N    N   GGGG   !!!           |
|                                                                             |
|      You have enabled k-point parallelism (KPAR>1).                         |
|      This developmental code was originally  written by Paul Kent at ORNL,  |
|      and carefully double checked in Vienna.                                |
|      GW as well as linear response parallelism added by Martijn Marsman     |
|      and Georg Kresse.                                                      |
|      Carefully verify results versus KPAR=1.                                |
|      Report problems to Paul Kent and Vienna.                               |
|                                                                             |
 ----------------------------------------------------------------------------- 

 POTCAR:    PAW_PBE Ba_sv 06Sep2000               
   VRHFIN =Ba: 5s5p6s                                                           
   LEXCH  = PE                                                                  
   EATOM  =   700.8560 eV,   51.5115 Ry                                         
                                                                                
   TITEL  = PAW_PBE Ba_sv 06Sep2000                                             
   LULTRA =        F    use ultrasoft PP ?                                      
   IUNSCR =        1    unscreen: 0-lin 1-nonlin 2-no                           
   RPACOR =    2.400    partial core radius                                     
   POMASS =  137.327; ZVAL   =   10.000    mass and valenz                      
   RCORE  =    2.800    outmost cutoff radius                                   
   RWIGS  =    3.740; RWIGS  =    1.979    wigner-seitz radius (au A)           
   ENMAX  =  187.181; ENMIN  =  140.386 eV                                      
   RCLOC  =    2.516    cutoff for local pot                                    
   LCOR   =        T    correct aug charges                                     
   LPAW   =        T    paw PP                                                  
   EAUG   =  351.165                                                            
   DEXC   =    0.000                                                            
   RMAX   =    2.865    core radius for proj-oper                               
   RAUG   =    1.300    factor for augmentation sphere                          
   RDEP   =    2.976    radius for radial grids                                 
   RDEPT  =    2.289    core radius for aug-charge                              
                                                                                
   Atomic configuration                                                         
   13 entries                                                                   
     n  l   j            E        occ.                                          
     1  0  0.50    -37249.5946   2.0000                                         
     2  0  0.50     -5887.1925   2.0000                                         
     2  1  1.50     -5278.3977   6.0000                                         
     3  0  0.50     -1242.7293   2.0000                                         
     3  1  1.50     -1047.6609   6.0000                                         
     3  2  2.50      -764.6158  10.0000                                         
     4  0  0.50      -243.8228   2.0000                                         
     4  1  1.50      -180.9218   6.0000                                         
     4  2  2.50       -89.6477  10.0000                                         
     5  0  0.50       -33.6549   2.0000                                         
     6  0  0.50        -3.2247   1.9900                                         
     5  1  1.50       -18.7193   6.0000                                         
     5  2  2.50        -2.0115   0.0100                                         
   Description                                                                  
     l       E           TYP  RCUT    TYP  RCUT                                 
     0    -33.6549039     23  2.800                                             
     0     -3.2246942     23  2.800                                             
     1    -18.7193050     23  2.700                                             
     1     27.2116520     23  2.700                                             
     2     -2.0115002     23  2.700                                             
     2      0.3057420     23  2.700                                             
  local pseudopotential read in
  partial core-charges read in
  partial kinetic energy density read in
  atomic valenz-charges read in
  non local Contribution for L=           0  read in
    real space projection operators read in
  non local Contribution for L=           0  read in
    real space projection operators read in
  non local Contribution for L=           1  read in
    real space projection operators read in
  non local Contribution for L=           1  read in
    real space projection operators read in
  non local Contribution for L=           2  read in
    real space projection operators read in
  non local Contribution for L=           2  read in
    real space projection operators read in
    PAW grid and wavefunctions read in
 
   number of l-projection  operators is LMAX  =           6
   number of lm-projection operators is LMMAX =          18
 
 POTCAR:    PAW_PBE Ta 17Jan2003                  
   VRHFIN =Ta:  6s5d                                                            
   LEXCH  = PE                                                                  
   EATOM  =   130.6506 eV,    9.6025 Ry                                         
                                                                                
   TITEL  = PAW_PBE Ta 17Jan2003                                                
   LULTRA =        F    use ultrasoft PP ?                                      
   IUNSCR =        1    unscreen: 0-lin 1-nonlin 2-no                           
   RPACOR =    2.330    partial core radius                                     
   POMASS =  180.948; ZVAL   =    5.000    mass and valenz                      
   RCORE  =    2.900    outmost cutoff radius                                   
   RWIGS  =    2.840; RWIGS  =    1.503    wigner-seitz radius (au A)           
   ENMAX  =  223.667; ENMIN  =  167.750 eV                                      
   RCLOC  =    2.205    cutoff for local pot                                    
   LCOR   =        T    correct aug charges                                     
   LPAW   =        T    paw PP                                                  
   EAUG   =  332.075                                                            
   DEXC   =    0.000                                                            
   RMAX   =    2.970    core radius for proj-oper                               
   RAUG   =    1.300    factor for augmentation sphere                          
   RDEP   =    3.060    radius for radial grids                                 
   RDEPT  =    2.354    core radius for aug-charge                              
                                                                                
   Atomic configuration                                                         
   16 entries                                                                   
     n  l   j            E        occ.                                          
     1  0  0.50    -67341.2807   2.0000                                         
     2  0  0.50    -11566.9376   2.0000                                         
     2  1  1.50    -10134.1182   6.0000                                         
     3  0  0.50     -2648.5620   2.0000                                         
     3  1  1.50     -2222.6012   6.0000                                         
     3  2  2.50     -1726.3120  10.0000                                         
     4  0  0.50      -538.6961   2.0000                                         
     4  1  1.50      -399.0129   6.0000                                         
     4  2  2.50      -220.3959  10.0000                                         
     4  3  3.50       -23.0374  14.0000                                         
     5  0  0.50       -71.2901   2.0000                                         
     5  1  1.50       -37.8225   6.0000                                         
     5  2  2.50        -2.6455   4.0000                                         
     6  0  0.50        -4.9623   1.0000                                         
     6  1  1.50        -1.3606   0.0000                                         
     5  3  2.50        -1.3606   0.0000                                         
   Description                                                                  
     l       E           TYP  RCUT    TYP  RCUT                                 
     2     -2.6455043     23  2.500                                             
     2     -0.6258895     23  2.500                                             
     0     -4.9622780     23  2.500                                             
     0      4.7531321     23  2.500                                             
     1     -1.3605826     23  2.900                                             
     1     27.2116520     23  2.900                                             
  local pseudopotential read in
  partial core-charges read in
  partial kinetic energy density read in
  atomic valenz-charges read in
  non local Contribution for L=           2  read in
    real space projection operators read in
  non local Contribution for L=           2  read in
    real space projection operators read in
  non local Contribution for L=           0  read in
    real space projection operators read in
  non local Contribution for L=           0  read in
    real space projection operators read in
  non local Contribution for L=           1  read in
    real space projection operators read in
  non local Contribution for L=           1  read in
    real space projection operators read in
    PAW grid and wavefunctions read in
 
   number of l-projection  operators is LMAX  =           6
   number of lm-projection operators is LMMAX =          18
 
 POTCAR:    PAW_PBE O 08Apr2002                   
   VRHFIN =O: s2p4                                                              
   LEXCH  = PE                                                                  
   EATOM  =   432.3788 eV,   31.7789 Ry                                         
                                                                                
   TITEL  = PAW_PBE O 08Apr2002                                                 
   LULTRA =        F    use ultrasoft PP ?                                      
   IUNSCR =        1    unscreen: 0-lin 1-nonlin 2-no                           
   RPACOR =    1.200    partial core radius                                     
   POMASS =   16.000; ZVAL   =    6.000    mass and valenz                      
   RCORE  =    1.520    outmost cutoff radius                                   
   RWIGS  =    1.550; RWIGS  =    0.820    wigner-seitz radius (au A)           
   ENMAX  =  400.000; ENMIN  =  300.000 eV                                      
   ICORE  =        2    local potential                                         
   LCOR   =        T    correct aug charges                                     
   LPAW   =        T    paw PP                                                  
   EAUG   =  605.392                                                            
   DEXC   =    0.000                                                            
   RMAX   =    1.553    core radius for proj-oper                               
   RAUG   =    1.300    factor for augmentation sphere                          
   RDEP   =    1.550    radius for radial grids                                 
   RDEPT  =    1.329    core radius for aug-charge                              
                                                                                
   Atomic configuration                                                         
    4 entries                                                                   
     n  l   j            E        occ.                                          
     1  0  0.50      -514.6923   2.0000                                         
     2  0  0.50       -23.9615   2.0000                                         
     2  1  0.50        -9.0305   4.0000                                         
     3  2  1.50        -9.5241   0.0000                                         
   Description                                                                  
     l       E           TYP  RCUT    TYP  RCUT                                 
     0    -23.9615318     23  1.200                                             
     0     -9.5240782     23  1.200                                             
     1     -9.0304911     23  1.520                                             
     1      8.1634956     23  1.520                                             
     2     -9.5240782      7  1.500                                             
  local pseudopotential read in
  partial core-charges read in
  partial kinetic energy density read in
  kinetic energy density of atom read in
  atomic valenz-charges read in
  non local Contribution for L=           0  read in
    real space projection operators read in
  non local Contribution for L=           0  read in
    real space projection operators read in
  non local Contribution for L=           1  read in
    real space projection operators read in
  non local Contribution for L=           1  read in
    real space projection operators read in
    PAW grid and wavefunctions read in
 
   number of l-projection  operators is LMAX  =           4
   number of lm-projection operators is LMMAX =           8
 

 ----------------------------------------------------------------------------- 
|                                                                             |
|  ADVICE TO THIS USER RUNNING 'VASP/VAMP'   (HEAR YOUR MASTER'S VOICE ...):  |
|                                                                             |
|      You have a (more or less) 'large supercell' and for larger cells       |
|      it might be more efficient to use real space projection opertators     |
|      So try LREAL= Auto  in the INCAR   file.                               |
|      Mind:          For very  accurate calculation you might also keep the  |
|      reciprocal projection scheme          (i.e. LREAL=.FALSE.)             |
|                                                                             |
 ----------------------------------------------------------------------------- 


 ----------------------------------------------------------------------------- 
|                                                                             |
|  ADVICE TO THIS USER RUNNING 'VASP/VAMP'   (HEAR YOUR MASTER'S VOICE ...):  |
|                                                                             |
|      You enforced a specific xc-type in the INCAR file,                     |
|      a different type was found on the POTCAR file                          |
|          I HOPE YOU KNOW, WHAT YOU ARE  DOING                               |
|                                                                             |
 ----------------------------------------------------------------------------- 

  PAW_PBE Ba_sv 06Sep2000               :
 energy of atom  1       EATOM= -700.8560
 kinetic energy error for atom=    0.0014 (will be added to EATOM!!)
  PAW_PBE Ta 17Jan2003                  :
 energy of atom  2       EATOM= -130.6506
 kinetic energy error for atom=    0.0018 (will be added to EATOM!!)
  PAW_PBE O 08Apr2002                   :
 energy of atom  3       EATOM= -432.3788
 kinetic energy error for atom=    0.1156 (will be added to EATOM!!)
 
 
 POSCAR: Ba1 Ta6 O16                             
  positions in direct lattice
  No initial velocities read in
 exchange correlation table for  LEXCH =       14
   RHO(1)=    0.500       N(1)  =     2000
   RHO(2)=  100.500       N(2)  =     4000
 


--------------------------------------------------------------------------------------------------------


 ion  position               nearest neighbor table
   1  0.500  0.399  0.399-  12 2.68  12 2.68   8 2.75   8 2.75  11 2.75  11 2.75  21 2.84  23 2.91
                            18 2.91   4 3.53   4 3.53   7 3.73   7 3.73   5 3.73   5 3.73   3 4.00
   2  0.000  0.992  0.992-  20 1.95  20 1.95  16 2.07  10 2.12  17 2.12   9 2.15  14 2.15   4 3.24
                             6 3.30   3 3.30   7 3.43   5 3.43
   3  0.000  0.001  0.630-  19 1.95  19 1.95   8 1.96  15 1.96  16 2.01   9 2.07   2 3.30   1 4.00
                             1 4.00
   4  0.000  0.205  0.205-  21 1.95  21 1.95   8 1.99  11 1.99  10 1.99  17 1.99   2 3.24   1 3.53
                             1 3.53
   5  0.000  0.380  0.752-  13 1.90  18 1.97  18 1.97  12 2.04  10 2.06   9 2.11   2 3.43   1 3.73
                             1 3.73
   6  0.000  0.630  0.001-  22 1.95  22 1.95  11 1.96  13 1.96  16 2.01  14 2.07   2 3.30   1 4.00
                             1 4.00
   7  0.000  0.752  0.380-  15 1.90  23 1.97  23 1.97  12 2.04  17 2.06  14 2.11   2 3.43   1 3.73
                             1 3.73
   8  0.000  0.179  0.430-   3 1.96   4 1.99   1 2.75   1 2.75
   9  0.000  0.150  0.752-   3 2.07   5 2.11   2 2.15
  10  0.000  0.227  0.982-   4 1.99   5 2.06   2 2.12
  11  0.000  0.430  0.179-   6 1.96   4 1.99   1 2.75   1 2.75
  12  0.000  0.521  0.521-   5 2.04   7 2.04   1 2.68   1 2.68
  13  0.000  0.539  0.838-   5 1.90   6 1.96
  14  0.000  0.752  0.150-   6 2.07   7 2.11   2 2.15
  15  0.000  0.838  0.539-   7 1.90   3 1.96
  16  0.000  0.855  0.855-   3 2.01   6 2.01   2 2.07
  17  0.000  0.982  0.227-   4 1.99   7 2.06   2 2.12
  18  0.500  0.371  0.725-   5 1.97   5 1.97   1 2.91
  19  0.500  0.010  0.626-   3 1.95   3 1.95
  20  0.500  0.994  0.994-   2 1.95   2 1.95
  21  0.500  0.212  0.212-   4 1.95   4 1.95   1 2.84
  22  0.500  0.626  0.010-   6 1.95   6 1.95
  23  0.500  0.725  0.371-   7 1.97   7 1.97   1 2.91
 
  LATTYP: Found a base centered orthorhombic cell.
 ALAT       =    10.3320340000
 B/A-ratio  =     1.4696444088
 C/A-ratio  =     0.3773296720
  
  Lattice vectors:
  
 A1 = (   0.0000000000,   5.1660170000,   7.5922080000)
 A2 = (   0.0000000000,   5.1660170000,  -7.5922080000)
 A3 = (  -3.8985830000,   0.0000000000,   0.0000000000)


Analysis of symmetry for initial positions (statically):
=====================================================================
 Subroutine PRICEL returns:
 Original cell was already a primitive cell.
 

 Routine SETGRP: Setting up the symmetry group for a 
 base centered orthorhombic supercell.


 Subroutine GETGRP returns: Found  4 space group operations
 (whereof  4 operations were pure point group operations)
 out of a pool of  8 trial point group operations.


The static configuration has the point symmetry C_2v.


Analysis of symmetry for dynamics (positions and initial velocities):
=====================================================================
 Subroutine PRICEL returns:
 Original cell was already a primitive cell.
 

 Routine SETGRP: Setting up the symmetry group for a 
 base centered orthorhombic supercell.


 Subroutine GETGRP returns: Found  4 space group operations
 (whereof  4 operations were pure point group operations)
 out of a pool of  8 trial point group operations.


The dynamic configuration has the point symmetry C_2v.


 Subroutine INISYM returns: Found  4 space group operations
 (whereof  4 operations are pure point group operations),
 and found     1 'primitive' translations

 
 
 KPOINTS: Generated by vise. Mode: band, kpt densi
  k-points in reciprocal lattice
Space group operators:
 irot       det(A)        alpha          n_x          n_y          n_z        tau_x        tau_y        tau_z
    1     1.000000     0.000001     1.000000     0.000000     0.000000     0.000000     0.000000     0.000000
    2    -1.000000   180.000000     1.000000     0.000000     0.000000     0.000000     0.000000     0.000000
    3     1.000000   180.000000     0.000000     0.000000     1.000000     0.000000     0.000000     0.000000
    4    -1.000000   180.000000     0.000000     1.000000     0.000000     0.000000     0.000000     0.000000

 ----------------------------------------------------------------------------- 
|                                                                             |
|           W    W    AA    RRRRR   N    N  II  N    N   GGGG   !!!           |
|           W    W   A  A   R    R  NN   N  II  NN   N  G    G  !!!           |
|           W    W  A    A  R    R  N N  N  II  N N  N  G       !!!           |
|           W WW W  AAAAAA  RRRRR   N  N N  II  N  N N  G  GGG   !            |
|           WW  WW  A    A  R   R   N   NN  II  N   NN  G    G                |
|           W    W  A    A  R    R  N    N  II  N    N   GGGG   !!!           |
|                                                                             |
|      The number of bands has been changed from the values supplied          |
|      in the INCAR file. This is a result of running the parallel version.   |
|      The orbitals not found in the WAVECAR file will be initialized with    |
|      random numbers, which is usually adequate. For correlated              |
|      calculations, however, you should redo the groundstate calculation.    |
|      I found NBANDS    =      201  now  NBANDS  =     207                   |
|                                                                             |
 ----------------------------------------------------------------------------- 



--------------------------------------------------------------------------------------------------------




 Dimension of arrays:
   k-points           NKPTS =    201   k-points in BZ     NKDIM =    201   number of bands    NBANDS=    207
   number of dos      NEDOS =    301   number of ions     NIONS =     23
   non local maximal  LDIM  =      6   non local SUM 2l+1 LMDIM =     18
   total plane-waves  NPLWV =  46080
   max r-space proj   IRMAX =      1   max aug-charges    IRDMAX=  10455
   dimension x,y,z NGX =    20 NGY =   48 NGZ =   48
   dimension x,y,z NGXF=    40 NGYF=   96 NGZF=   96
   support grid    NGXF=    40 NGYF=   96 NGZF=   96
   ions per type =               1   6  16
   NGX,Y,Z   is equivalent  to a cutoff of   8.53,  8.69,  8.69 a.u.
   NGXF,Y,Z  is equivalent  to a cutoff of  17.06, 17.38, 17.38 a.u.

 SYSTEM =  unknown system                          
 POSCAR =  Ba1 Ta6 O16                             

 Startparameter for this run:
   NWRITE =      2    write-flag & timer
   PREC   = n         normal or accurate (medium, high low for compatibility)
   ISTART =      1    job   : 0-new  1-cont  2-samecut
   ICHARG =      0    charge: 1-file 2-atom 10-const
   ISPIN  =      1    spin polarized calculation?
   LNONCOLLINEAR =      F non collinear calculations
   LSORBIT =      F    spin-orbit coupling
   INIWAV =      1    electr: 0-lowe 1-rand  2-diag
   LASPH  =      T    aspherical Exc in radial PAW
   METAGGA=      F    non-selfconsistent MetaGGA calc.

 Electronic Relaxation 1
   ENCUT  =  400.0 eV  29.40 Ry    5.42 a.u.   6.36 14.98 14.98*2*pi/ulx,y,z
   ENINI  =  400.0     initial cutoff
   ENAUG  =  605.4 eV  augmentation charge cutoff
   NELM   =    100;   NELMIN=  2; NELMDL=  0     # of ELM steps 
   EDIFF  = 0.1E-04   stopping-criterion for ELM
   LREAL  =      F    real-space projection
   NLSPLINE    = F    spline interpolate recip. space projectors
   LCOMPAT=      F    compatible to vasp.4.4
   GGA_COMPAT  = T    GGA compatible to vasp.4.4-vasp.4.6
   LMAXPAW     = -100 max onsite density
   LMAXMIX     =    6 max onsite mixed and CHGCAR
   VOSKOWN=      0    Vosko Wilk Nusair interpolation
   ROPT   =    0.00000   0.00000   0.00000
 Ionic relaxation
   EDIFFG = 0.1E-03   stopping-criterion for IOM
   NSW    =      0    number of steps for IOM
   NBLOCK =      1;   KBLOCK =      1    inner block; outer block 
   IBRION =     -1    ionic relax: 0-MD 1-quasi-New 2-CG
   NFREE  =      1    steps in history (QN), initial steepest desc. (CG)
   ISIF   =      0    stress and relaxation
   IWAVPR =     10    prediction:  0-non 1-charg 2-wave 3-comb
   ISYM   =      2    0-nonsym 1-usesym 2-fastsym
   LCORR  =      T    Harris-Foulkes like correction to forces

   POTIM  = 0.5000    time-step for ionic-motion
   TEIN   =    0.0    initial temperature
   TEBEG  =    0.0;   TEEND  =   0.0 temperature during run
   SMASS  =  -3.00    Nose mass-parameter (am)
   estimated Nose-frequenzy (Omega)   =  0.10E-29 period in steps =****** mass=  -0.347E-27a.u.
   SCALEE = 1.0000    scale energy and forces
   NPACO  =    256;   APACO  = 16.0  distance and # of slots for P.C.
   PSTRESS=    0.0 pullay stress

  Mass of Ions in am
   POMASS = 137.33180.95 16.00
  Ionic Valenz
   ZVAL   =  10.00  5.00  6.00
  Atomic Wigner-Seitz radii
   RWIGS  =  -1.00 -1.00 -1.00
  virtual crystal weights 
   VCA    =   1.00  1.00  1.00
   NELECT =     136.0000    total number of electrons
   NUPDOWN=      -1.0000    fix difference up-down

 DOS related values:
   EMIN   =  10.00;   EMAX   =-10.00  energy-range for DOS
   EFERMI =   0.00
   ISMEAR =     0;   SIGMA  =   0.10  broadening in eV -4-tet -1-fermi 0-gaus

 Electronic relaxation 2 (details)
   IALGO  =     38    algorithm
   LDIAG  =      T    sub-space diagonalisation (order eigenvalues)
   LSUBROT=      F    optimize rotation matrix (better conditioning)
   TURBO    =      0    0=normal 1=particle mesh
   IRESTART =      0    0=no restart 2=restart with 2 vectors
   NREBOOT  =      0    no. of reboots
   NMIN     =      0    reboot dimension
   EREF     =   0.00    reference energy to select bands
   IMIX   =      4    mixing-type and parameters
     AMIX     =   0.40;   BMIX     =  1.00
     AMIX_MAG =   1.60;   BMIX_MAG =  1.00
     AMIN     =   0.10
     WC   =   100.;   INIMIX=   1;  MIXPRE=   1;  MAXMIX= -45

 Intra band minimization:
   WEIMIN = 0.0000     energy-eigenvalue tresh-hold
   EBREAK =  0.12E-07  absolut break condition
   DEPER  =   0.30     relativ break condition  

   TIME   =   0.40     timestep for ELM

  volume/ion in A,a.u.               =      13.30        89.73
  Fermi-wavevector in a.u.,A,eV,Ry     =   1.249590  2.361383 21.245162  1.561475
  Thomas-Fermi vector in A             =   2.383624
 
 Write flags
   LWAVE        =      T    write WAVECAR
   LDOWNSAMPLE  =      F    k-point downsampling of WAVECAR
   LCHARG       =      F    write CHGCAR
   LVTOT        =      F    write LOCPOT, total local potential
   LVHAR        =      F    write LOCPOT, Hartree potential only
   LELF         =      F    write electronic localiz. function (ELF)
   LORBIT       =     12    0 simple, 1 ext, 2 COOP (PROOUT), +10 PAW based schemes


 Dipole corrections
   LMONO  =      F    monopole corrections only (constant potential shift)
   LDIPOL =      F    correct potential (dipole corrections)
   IDIPOL =      0    1-x, 2-y, 3-z, 4-all directions 
   EPSILON=  1.0000000 bulk dielectric constant

 LDA+U is selected, type is set to LDAUTYPE =  2
   angular momentum for each species LDAUL =    -1    2   -1
   U (eV)           for each species LDAUU =   0.0  3.0  0.0
   J (eV)           for each species LDAUJ =   0.0  0.0  0.0
 Exchange correlation treatment:
   GGA     =    PS    GGA type
   LEXCH   =    14    internal setting for exchange type
   VOSKOWN=      0    Vosko Wilk Nusair interpolation
   LHFCALC =     F    Hartree Fock is set to
   LHFONE  =     F    Hartree Fock one center treatment
   AEXX    =    0.0000 exact exchange contribution

 Linear response parameters
   LEPSILON=     F    determine dielectric tensor
   LRPA    =     F    only Hartree local field effects (RPA)
   LNABLA  =     F    use nabla operator in PAW spheres
   LVEL    =     F    velocity operator in full k-point grid
   LINTERFAST=   F  fast interpolation
   KINTER  =     0    interpolate to denser k-point grid
   CSHIFT  =0.1000    complex shift for real part using Kramers Kronig
   OMEGAMAX=  -1.0    maximum frequency
   DEG_THRESHOLD= 0.2000000E-02 threshold for treating states as degnerate
   RTIME   =   -0.100 relaxation time in fs
  (WPLASMAI=    0.000 imaginary part of plasma frequency in eV, 0.658/RTIME)
   DFIELD  = 0.0000000 0.0000000 0.0000000 field for delta impulse in time
 
 Orbital magnetization related:
   ORBITALMAG=     F  switch on orbital magnetization
   LCHIMAG   =     F  perturbation theory with respect to B field
   DQ        =  0.001000  dq finite difference perturbation B field
   LLRAUG    =     F  two centre corrections for induced B field



--------------------------------------------------------------------------------------------------------


 Static calculation
 charge density and potential will be updated during run
 non-spin polarized calculation
 Variant of blocked Davidson
 Davidson routine will perform the subspace rotation
 perform sub-space diagonalisation
    after iterative eigenvector-optimisation
 modified Broyden-mixing scheme, WC =      100.0
 initial mixing is a Kerker type mixing with AMIX =  0.4000 and BMIX =      1.0000
 Hartree-type preconditioning will be used
 using additional bands          139
 reciprocal scheme for non local part
 use partial core corrections
 calculate Harris-corrections to forces 
   (improved forces if not selfconsistent)
 use gradient corrections 
 use of overlap-Matrix (Vanderbilt PP)
 Gauss-broadening in eV      SIGMA  =   0.10


--------------------------------------------------------------------------------------------------------


  energy-cutoff  :      400.00
  volume of cell :      305.82
      direct lattice vectors                 reciprocal lattice vectors
     3.898583000  0.000000000  0.000000000     0.256503453  0.000000000  0.000000000
     0.000000000  5.166017000  7.592208000     0.000000000  0.096786364  0.065856994
     0.000000000 -5.166017000  7.592208000     0.000000000 -0.096786364  0.065856994

  length of vectors
     3.898583000  9.183101544  9.183101544     0.256503453  0.117067262  0.117067262


 
 old parameters found on file WAVECAR:
  energy-cutoff  :      400.00
  volume of cell :      305.82
      direct lattice vectors                 reciprocal lattice vectors
     3.898583000  0.000000000  0.000000000     0.256503453  0.000000000  0.000000000
     0.000000000  5.166017000  7.592208000     0.000000000  0.096786364  0.065856994
     0.000000000 -5.166017000  7.592208000     0.000000000 -0.096786364  0.065856994

  length of vectors

 
 k-points in units of 2pi/SCALE and weight: Generated by vise. Mode: band, kpt densi
   0.06412586  0.02419659  0.01646425       0.100
   0.19237759  0.02419659  0.01646425       0.100
   0.06412586  0.00483932  0.02963565       0.200
   0.19237759  0.00483932  0.02963565       0.200
   0.06412586 -0.01451795  0.04280705       0.200
   0.19237759 -0.01451795  0.04280705       0.200
   0.00000000  0.00000000  0.00000000       0.000
  -0.00855012  0.00322621  0.00219523       0.000
  -0.01710023  0.00645242  0.00439047       0.000
  -0.02565035  0.00967864  0.00658570       0.000
  -0.03420046  0.01290485  0.00878093       0.000
  -0.04275058  0.01613106  0.01097617       0.000
  -0.05130069  0.01935727  0.01317140       0.000
  -0.05985081  0.02258348  0.01536663       0.000
  -0.06840092  0.02580970  0.01756187       0.000
  -0.07695104  0.02903591  0.01975710       0.000
  -0.08550115  0.03226212  0.02195233       0.000
  -0.09405127  0.03548833  0.02414756       0.000
  -0.10260138  0.03871455  0.02634280       0.000
  -0.11115150  0.04194076  0.02853803       0.000
  -0.11970161  0.04516697  0.03073326       0.000
  -0.12825173  0.04839318  0.03292850       0.000
  -0.12136453  0.05099192  0.03469678       0.000
  -0.11447734  0.05359067  0.03646506       0.000
  -0.10759015  0.05618941  0.03823334       0.000
  -0.10070295  0.05878815  0.04000162       0.000
  -0.09381576  0.06138689  0.04176990       0.000
   0.09381576  0.03539947  0.02408710       0.000
   0.08795228  0.03318700  0.02258166       0.000
   0.08208879  0.03097454  0.02107621       0.000
   0.07622531  0.02876207  0.01957077       0.000
   0.07036182  0.02654960  0.01806532       0.000
   0.06449834  0.02433714  0.01655988       0.000
   0.05863485  0.02212467  0.01505444       0.000
   0.05277137  0.01991220  0.01354899       0.000
   0.04690788  0.01769973  0.01204355       0.000
   0.04104440  0.01548727  0.01053811       0.000
   0.03518091  0.01327480  0.00903266       0.000
   0.02931743  0.01106233  0.00752722       0.000
   0.02345394  0.00884987  0.00602177       0.000
   0.01759046  0.00663740  0.00451633       0.000
   0.01172697  0.00442493  0.00301089       0.000
   0.00586349  0.00221247  0.00150544       0.000
   0.00000000  0.00000000  0.00000000       0.000
   0.00000000 -0.00156107  0.00106221       0.000
   0.00000000 -0.00312214  0.00212442       0.000
   0.00000000 -0.00468321  0.00318663       0.000
   0.00000000 -0.00624428  0.00424884       0.000
   0.00000000 -0.00780535  0.00531105       0.000
   0.00000000 -0.00936642  0.00637326       0.000
   0.00000000 -0.01092749  0.00743547       0.000
   0.00000000 -0.01248856  0.00849768       0.000
   0.00000000 -0.01404963  0.00955989       0.000
   0.00000000 -0.01561070  0.01062210       0.000
   0.00000000 -0.01717177  0.01168431       0.000
   0.00000000 -0.01873284  0.01274652       0.000
   0.00000000 -0.02029391  0.01380872       0.000
   0.00000000 -0.02185499  0.01487093       0.000
   0.00000000 -0.02341606  0.01593314       0.000
   0.00000000 -0.02497713  0.01699535       0.000
   0.00000000 -0.02653820  0.01805756       0.000
   0.00000000 -0.02809927  0.01911977       0.000
   0.00000000 -0.02966034  0.02018198       0.000
   0.00000000 -0.03122141  0.02124419       0.000
   0.00000000 -0.03278248  0.02230640       0.000
   0.00000000 -0.03434355  0.02336861       0.000
   0.00000000 -0.03590462  0.02443082       0.000
   0.00000000 -0.03746569  0.02549303       0.000
   0.00000000 -0.03902676  0.02655524       0.000
   0.00000000 -0.04058783  0.02761745       0.000
   0.00000000 -0.04214890  0.02867966       0.000
   0.00000000 -0.04370997  0.02974187       0.000
   0.00000000 -0.04527104  0.03080408       0.000
   0.00000000 -0.04683211  0.03186629       0.000
   0.00000000 -0.04839318  0.03292850       0.000
   0.00586349 -0.04618071  0.03443394       0.000
   0.01172697 -0.04396825  0.03593938       0.000
   0.01759046 -0.04175578  0.03744483       0.000
   0.02345394 -0.03954331  0.03895027       0.000
   0.02931743 -0.03733085  0.04045572       0.000
   0.03518091 -0.03511838  0.04196116       0.000
   0.04104440 -0.03290591  0.04346660       0.000
   0.04690788 -0.03069345  0.04497205       0.000
   0.05277137 -0.02848098  0.04647749       0.000
   0.05863485 -0.02626851  0.04798293       0.000
   0.06449834 -0.02405605  0.04948838       0.000
   0.07036182 -0.02184358  0.05099382       0.000
   0.07622531 -0.01963111  0.05249926       0.000
   0.08208879 -0.01741865  0.05400471       0.000
   0.08795228 -0.01520618  0.05551015       0.000
   0.09381576 -0.01299371  0.05701560       0.000
  -0.09381576  0.01299371  0.07469839       0.000
  -0.10070295  0.01039497  0.07293011       0.000
  -0.10759015  0.00779623  0.07116183       0.000
  -0.11447734  0.00519748  0.06939355       0.000
  -0.12136453  0.00259874  0.06762527       0.000
  -0.12825173  0.00000000  0.06585699       0.000
  -0.12825173  0.00156107  0.06479478       0.000
  -0.12825173  0.00312214  0.06373258       0.000
  -0.12825173  0.00468321  0.06267037       0.000
  -0.12825173  0.00624428  0.06160816       0.000
  -0.12825173  0.00780535  0.06054595       0.000
  -0.12825173  0.00936642  0.05948374       0.000
  -0.12825173  0.01092749  0.05842153       0.000
  -0.12825173  0.01248856  0.05735932       0.000
  -0.12825173  0.01404963  0.05629711       0.000
  -0.12825173  0.01561070  0.05523490       0.000
  -0.12825173  0.01717177  0.05417269       0.000
  -0.12825173  0.01873284  0.05311048       0.000
  -0.12825173  0.02029391  0.05204827       0.000
  -0.12825173  0.02185499  0.05098606       0.000
  -0.12825173  0.02341606  0.04992385       0.000
  -0.12825173  0.02497713  0.04886164       0.000
  -0.12825173  0.02653820  0.04779943       0.000
  -0.12825173  0.02809927  0.04673722       0.000
  -0.12825173  0.02966034  0.04567501       0.000
  -0.12825173  0.03122141  0.04461280       0.000
  -0.12825173  0.03278248  0.04355059       0.000
  -0.12825173  0.03434355  0.04248838       0.000
  -0.12825173  0.03590462  0.04142617       0.000
  -0.12825173  0.03746569  0.04036396       0.000
  -0.12825173  0.03902676  0.03930175       0.000
  -0.12825173  0.04058783  0.03823955       0.000
  -0.12825173  0.04214890  0.03717734       0.000
  -0.12825173  0.04370997  0.03611513       0.000
  -0.12825173  0.04527104  0.03505292       0.000
  -0.12825173  0.04683211  0.03399071       0.000
  -0.12825173  0.04839318  0.03292850       0.000
   0.00000000  0.00000000  0.00000000       0.000
   0.00000000  0.00372255  0.00253296       0.000
   0.00000000  0.00744510  0.00506592       0.000
   0.00000000  0.01116766  0.00759888       0.000
   0.00000000  0.01489021  0.01013185       0.000
   0.00000000  0.01861276  0.01266481       0.000
   0.00000000  0.02233531  0.01519777       0.000
   0.00000000  0.02605787  0.01773073       0.000
   0.00000000  0.02978042  0.02026369       0.000
   0.00000000  0.03350297  0.02279665       0.000
   0.00000000  0.03722552  0.02532961       0.000
   0.00000000  0.04094808  0.02786257       0.000
   0.00000000  0.04467063  0.03039554       0.000
   0.00000000  0.04839318  0.03292850       0.000
   0.00000000  0.04683211  0.03399071       0.000
   0.00000000  0.04527104  0.03505292       0.000
   0.00000000  0.04370997  0.03611513       0.000
   0.00000000  0.04214890  0.03717734       0.000
   0.00000000  0.04058783  0.03823955       0.000
   0.00000000  0.03902676  0.03930175       0.000
   0.00000000  0.03746569  0.04036396       0.000
   0.00000000  0.03590462  0.04142617       0.000
   0.00000000  0.03434355  0.04248838       0.000
   0.00000000  0.03278248  0.04355059       0.000
   0.00000000  0.03122141  0.04461280       0.000
   0.00000000  0.02966034  0.04567501       0.000
   0.00000000  0.02809927  0.04673722       0.000
   0.00000000  0.02653820  0.04779943       0.000
   0.00000000  0.02497713  0.04886164       0.000
   0.00000000  0.02341606  0.04992385       0.000
   0.00000000  0.02185499  0.05098606       0.000
   0.00000000  0.02029391  0.05204827       0.000
   0.00000000  0.01873284  0.05311048       0.000
   0.00000000  0.01717177  0.05417269       0.000
   0.00000000  0.01561070  0.05523490       0.000
   0.00000000  0.01404963  0.05629711       0.000
   0.00000000  0.01248856  0.05735932       0.000
   0.00000000  0.01092749  0.05842153       0.000
   0.00000000  0.00936642  0.05948374       0.000
   0.00000000  0.00780535  0.06054595       0.000
   0.00000000  0.00624428  0.06160816       0.000
   0.00000000  0.00468321  0.06267037       0.000
   0.00000000  0.00312214  0.06373258       0.000
   0.00000000  0.00156107  0.06479478       0.000
   0.00000000  0.00000000  0.06585699       0.000
   0.00000000 -0.00372255  0.06332403       0.000
   0.00000000 -0.00744510  0.06079107       0.000
   0.00000000 -0.01116766  0.05825811       0.000
   0.00000000 -0.01489021  0.05572515       0.000
   0.00000000 -0.01861276  0.05319219       0.000
   0.00000000 -0.02233531  0.05065923       0.000
   0.00000000 -0.02605787  0.04812627       0.000
   0.00000000 -0.02978042  0.04559330       0.000
   0.00000000 -0.03350297  0.04306034       0.000
   0.00000000 -0.03722552  0.04052738       0.000
   0.00000000 -0.04094808  0.03799442       0.000
   0.00000000 -0.04467063  0.03546146       0.000
   0.00000000 -0.04839318  0.03292850       0.000
  -0.00855012 -0.04516697  0.03512373       0.000
  -0.01710023 -0.04194076  0.03731896       0.000
  -0.02565035 -0.03871455  0.03951420       0.000
  -0.03420046 -0.03548833  0.04170943       0.000
  -0.04275058 -0.03226212  0.04390466       0.000
  -0.05130069 -0.02903591  0.04609990       0.000
  -0.05985081 -0.02580970  0.04829513       0.000
  -0.06840092 -0.02258348  0.05049036       0.000
  -0.07695104 -0.01935727  0.05268560       0.000
  -0.08550115 -0.01613106  0.05488083       0.000
  -0.09405127 -0.01290485  0.05707606       0.000
  -0.10260138 -0.00967864  0.05927129       0.000
  -0.11115150 -0.00645242  0.06146653       0.000
  -0.11970161 -0.00322621  0.06366176       0.000
  -0.12825173  0.00000000  0.06585699       0.000
 
 k-points in reciprocal lattice and weights: Generated by vise. Mode: band, kpt densi
   0.25000000  0.25000000  0.00000000       0.100
   0.75000000  0.25000000  0.00000000       0.100
   0.25000000  0.25000000  0.20000000       0.200
   0.75000000  0.25000000  0.20000000       0.200
   0.25000000  0.25000000  0.40000000       0.200
   0.75000000  0.25000000  0.40000000       0.200
   0.00000000  0.00000000  0.00000000       0.000
  -0.03333333  0.03333333  0.00000000       0.000
  -0.06666667  0.06666667  0.00000000       0.000
  -0.10000000  0.10000000  0.00000000       0.000
  -0.13333333  0.13333333  0.00000000       0.000
  -0.16666667  0.16666667  0.00000000       0.000
  -0.20000000  0.20000000  0.00000000       0.000
  -0.23333333  0.23333333  0.00000000       0.000
  -0.26666667  0.26666667  0.00000000       0.000
  -0.30000000  0.30000000  0.00000000       0.000
  -0.33333333  0.33333333  0.00000000       0.000
  -0.36666667  0.36666667  0.00000000       0.000
  -0.40000000  0.40000000  0.00000000       0.000
  -0.43333333  0.43333333  0.00000000       0.000
  -0.46666667  0.46666667  0.00000000       0.000
  -0.50000000  0.50000000  0.00000000       0.000
  -0.47314971  0.52685029  0.00000000       0.000
  -0.44629941  0.55370059  0.00000000       0.000
  -0.41944912  0.58055088  0.00000000       0.000
  -0.39259882  0.60740118  0.00000000       0.000
  -0.36574853  0.63425147  0.00000000       0.000
   0.36574853  0.36574853  0.00000000       0.000
   0.34288924  0.34288924  0.00000000       0.000
   0.32002996  0.32002996  0.00000000       0.000
   0.29717068  0.29717068  0.00000000       0.000
   0.27431140  0.27431140  0.00000000       0.000
   0.25145211  0.25145211  0.00000000       0.000
   0.22859283  0.22859283  0.00000000       0.000
   0.20573355  0.20573355  0.00000000       0.000
   0.18287426  0.18287426  0.00000000       0.000
   0.16001498  0.16001498  0.00000000       0.000
   0.13715570  0.13715570  0.00000000       0.000
   0.11429641  0.11429641  0.00000000       0.000
   0.09143713  0.09143713  0.00000000       0.000
   0.06857785  0.06857785  0.00000000       0.000
   0.04571857  0.04571857  0.00000000       0.000
   0.02285928  0.02285928  0.00000000       0.000
   0.00000000  0.00000000  0.00000000       0.000
   0.00000000  0.00000000  0.01612903       0.000
   0.00000000  0.00000000  0.03225806       0.000
   0.00000000  0.00000000  0.04838710       0.000
   0.00000000  0.00000000  0.06451613       0.000
   0.00000000  0.00000000  0.08064516       0.000
   0.00000000  0.00000000  0.09677419       0.000
   0.00000000  0.00000000  0.11290323       0.000
   0.00000000  0.00000000  0.12903226       0.000
   0.00000000  0.00000000  0.14516129       0.000
   0.00000000  0.00000000  0.16129032       0.000
   0.00000000  0.00000000  0.17741935       0.000
   0.00000000  0.00000000  0.19354839       0.000
   0.00000000  0.00000000  0.20967742       0.000
   0.00000000  0.00000000  0.22580645       0.000
   0.00000000  0.00000000  0.24193548       0.000
   0.00000000  0.00000000  0.25806452       0.000
   0.00000000  0.00000000  0.27419355       0.000
   0.00000000  0.00000000  0.29032258       0.000
   0.00000000  0.00000000  0.30645161       0.000
   0.00000000  0.00000000  0.32258065       0.000
   0.00000000  0.00000000  0.33870968       0.000
   0.00000000  0.00000000  0.35483871       0.000
   0.00000000  0.00000000  0.37096774       0.000
   0.00000000  0.00000000  0.38709677       0.000
   0.00000000  0.00000000  0.40322581       0.000
   0.00000000  0.00000000  0.41935484       0.000
   0.00000000  0.00000000  0.43548387       0.000
   0.00000000  0.00000000  0.45161290       0.000
   0.00000000  0.00000000  0.46774194       0.000
   0.00000000  0.00000000  0.48387097       0.000
   0.00000000  0.00000000  0.50000000       0.000
   0.02285928  0.02285928  0.50000000       0.000
   0.04571857  0.04571857  0.50000000       0.000
   0.06857785  0.06857785  0.50000000       0.000
   0.09143713  0.09143713  0.50000000       0.000
   0.11429641  0.11429641  0.50000000       0.000
   0.13715570  0.13715570  0.50000000       0.000
   0.16001498  0.16001498  0.50000000       0.000
   0.18287426  0.18287426  0.50000000       0.000
   0.20573355  0.20573355  0.50000000       0.000
   0.22859283  0.22859283  0.50000000       0.000
   0.25145211  0.25145211  0.50000000       0.000
   0.27431140  0.27431140  0.50000000       0.000
   0.29717068  0.29717068  0.50000000       0.000
   0.32002996  0.32002996  0.50000000       0.000
   0.34288924  0.34288924  0.50000000       0.000
   0.36574853  0.36574853  0.50000000       0.000
  -0.36574853  0.63425147  0.50000000       0.000
  -0.39259882  0.60740118  0.50000000       0.000
  -0.41944912  0.58055088  0.50000000       0.000
  -0.44629941  0.55370059  0.50000000       0.000
  -0.47314971  0.52685029  0.50000000       0.000
  -0.50000000  0.50000000  0.50000000       0.000
  -0.50000000  0.50000000  0.48387097       0.000
  -0.50000000  0.50000000  0.46774194       0.000
  -0.50000000  0.50000000  0.45161290       0.000
  -0.50000000  0.50000000  0.43548387       0.000
  -0.50000000  0.50000000  0.41935484       0.000
  -0.50000000  0.50000000  0.40322581       0.000
  -0.50000000  0.50000000  0.38709677       0.000
  -0.50000000  0.50000000  0.37096774       0.000
  -0.50000000  0.50000000  0.35483871       0.000
  -0.50000000  0.50000000  0.33870968       0.000
  -0.50000000  0.50000000  0.32258065       0.000
  -0.50000000  0.50000000  0.30645161       0.000
  -0.50000000  0.50000000  0.29032258       0.000
  -0.50000000  0.50000000  0.27419355       0.000
  -0.50000000  0.50000000  0.25806452       0.000
  -0.50000000  0.50000000  0.24193548       0.000
  -0.50000000  0.50000000  0.22580645       0.000
  -0.50000000  0.50000000  0.20967742       0.000
  -0.50000000  0.50000000  0.19354839       0.000
  -0.50000000  0.50000000  0.17741935       0.000
  -0.50000000  0.50000000  0.16129032       0.000
  -0.50000000  0.50000000  0.14516129       0.000
  -0.50000000  0.50000000  0.12903226       0.000
  -0.50000000  0.50000000  0.11290323       0.000
  -0.50000000  0.50000000  0.09677419       0.000
  -0.50000000  0.50000000  0.08064516       0.000
  -0.50000000  0.50000000  0.06451613       0.000
  -0.50000000  0.50000000  0.04838710       0.000
  -0.50000000  0.50000000  0.03225806       0.000
  -0.50000000  0.50000000  0.01612903       0.000
  -0.50000000  0.50000000  0.00000000       0.000
   0.00000000  0.00000000  0.00000000       0.000
   0.00000000  0.03846154  0.00000000       0.000
   0.00000000  0.07692308  0.00000000       0.000
   0.00000000  0.11538462  0.00000000       0.000
   0.00000000  0.15384615  0.00000000       0.000
   0.00000000  0.19230769  0.00000000       0.000
   0.00000000  0.23076923  0.00000000       0.000
   0.00000000  0.26923077  0.00000000       0.000
   0.00000000  0.30769231  0.00000000       0.000
   0.00000000  0.34615385  0.00000000       0.000
   0.00000000  0.38461538  0.00000000       0.000
   0.00000000  0.42307692  0.00000000       0.000
   0.00000000  0.46153846  0.00000000       0.000
   0.00000000  0.50000000  0.00000000       0.000
   0.00000000  0.50000000  0.01612903       0.000
   0.00000000  0.50000000  0.03225806       0.000
   0.00000000  0.50000000  0.04838710       0.000
   0.00000000  0.50000000  0.06451613       0.000
   0.00000000  0.50000000  0.08064516       0.000
   0.00000000  0.50000000  0.09677419       0.000
   0.00000000  0.50000000  0.11290323       0.000
   0.00000000  0.50000000  0.12903226       0.000
   0.00000000  0.50000000  0.14516129       0.000
   0.00000000  0.50000000  0.16129032       0.000
   0.00000000  0.50000000  0.17741935       0.000
   0.00000000  0.50000000  0.19354839       0.000
   0.00000000  0.50000000  0.20967742       0.000
   0.00000000  0.50000000  0.22580645       0.000
   0.00000000  0.50000000  0.24193548       0.000
   0.00000000  0.50000000  0.25806452       0.000
   0.00000000  0.50000000  0.27419355       0.000
   0.00000000  0.50000000  0.29032258       0.000
   0.00000000  0.50000000  0.30645161       0.000
   0.00000000  0.50000000  0.32258065       0.000
   0.00000000  0.50000000  0.33870968       0.000
   0.00000000  0.50000000  0.35483871       0.000
   0.00000000  0.50000000  0.37096774       0.000
   0.00000000  0.50000000  0.38709677       0.000
   0.00000000  0.50000000  0.40322581       0.000
   0.00000000  0.50000000  0.41935484       0.000
   0.00000000  0.50000000  0.43548387       0.000
   0.00000000  0.50000000  0.45161290       0.000
   0.00000000  0.50000000  0.46774194       0.000
   0.00000000  0.50000000  0.48387097       0.000
   0.00000000  0.50000000  0.50000000       0.000
   0.00000000  0.46153846  0.50000000       0.000
   0.00000000  0.42307692  0.50000000       0.000
   0.00000000  0.38461538  0.50000000       0.000
   0.00000000  0.34615385  0.50000000       0.000
   0.00000000  0.30769231  0.50000000       0.000
   0.00000000  0.26923077  0.50000000       0.000
   0.00000000  0.23076923  0.50000000       0.000
   0.00000000  0.19230769  0.50000000       0.000
   0.00000000  0.15384615  0.50000000       0.000
   0.00000000  0.11538462  0.50000000       0.000
   0.00000000  0.07692308  0.50000000       0.000
   0.00000000  0.03846154  0.50000000       0.000
   0.00000000  0.00000000  0.50000000       0.000
  -0.03333333  0.03333333  0.50000000       0.000
  -0.06666667  0.06666667  0.50000000       0.000
  -0.10000000  0.10000000  0.50000000       0.000
  -0.13333333  0.13333333  0.50000000       0.000
  -0.16666667  0.16666667  0.50000000       0.000
  -0.20000000  0.20000000  0.50000000       0.000
  -0.23333333  0.23333333  0.50000000       0.000
  -0.26666667  0.26666667  0.50000000       0.000
  -0.30000000  0.30000000  0.50000000       0.000
  -0.33333333  0.33333333  0.50000000       0.000
  -0.36666667  0.36666667  0.50000000       0.000
  -0.40000000  0.40000000  0.50000000       0.000
  -0.43333333  0.43333333  0.50000000       0.000
  -0.46666667  0.46666667  0.50000000       0.000
  -0.50000000  0.50000000  0.50000000       0.000
 
 position of ions in fractional coordinates (direct lattice) 
   0.50000000  0.39924300  0.39924300
   0.00000000  0.99182600  0.99182600
   0.00000000  0.00052100  0.62966800
   0.00000000  0.20549300  0.20549300
   0.00000000  0.37978500  0.75192000
   0.00000000  0.62966800  0.00052100
   0.00000000  0.75192000  0.37978500
   0.00000000  0.17868200  0.43005200
   0.00000000  0.15042200  0.75200000
   0.00000000  0.22658600  0.98155200
   0.00000000  0.43005200  0.17868200
   0.00000000  0.52057400  0.52057400
   0.00000000  0.53892400  0.83783900
   0.00000000  0.75200000  0.15042200
   0.00000000  0.83783900  0.53892400
   0.00000000  0.85549600  0.85549600
   0.00000000  0.98155200  0.22658600
   0.50000000  0.37148700  0.72543800
   0.50000000  0.00991400  0.62581600
   0.50000000  0.99434200  0.99434200
   0.50000000  0.21242200  0.21242200
   0.50000000  0.62581600  0.00991400
   0.50000000  0.72543800  0.37148700
 
 position of ions in cartesian coordinates  (Angst):
   1.94929150  0.00000000  6.06227180
   0.00000000  0.00000000 15.06029858
   0.00000000 -3.25018410  4.78452597
   0.00000000  0.00000000  3.12029120
   0.00000000 -1.92245574  8.59213975
   0.00000000  3.25018410  4.78452597
   0.00000000  1.92245574  8.59213975
   0.00000000 -1.29858169  4.62163514
   0.00000000 -3.10776217  6.85137553
   0.00000000 -3.90016719  9.17243499
   0.00000000  1.29858169  4.62163514
   0.00000000  0.00000000  7.90461217
   0.00000000 -1.54419997 10.45267106
   0.00000000  3.10776217  6.85137553
   0.00000000  1.54419997 10.45267106
   0.00000000  0.00000000 12.99020715
   0.00000000  3.90016719  9.17243499
   1.94929150 -1.82851688  8.32808276
   1.94929150 -3.18176020  4.82659439
   1.94929150  0.00000000 15.09850257
   1.94929150  0.00000000  3.22550402
   1.94929150  3.18176020  4.82659439
   1.94929150  1.82851688  8.32808276
 


--------------------------------------------------------------------------------------------------------


 k-point  1 :   0.2500 0.2500 0.0000  plane waves:    5549
 k-point  2 :   0.7500 0.2500 0.0000  plane waves:    5549
 k-point  3 :   0.2500 0.2500 0.2000  plane waves:    5567
 k-point  4 :   0.7500 0.2500 0.2000  plane waves:    5567
 k-point  5 :   0.2500 0.2500 0.4000  plane waves:    5561
 k-point  6 :   0.7500 0.2500 0.4000  plane waves:    5561
 k-point  7 :   0.0000 0.0000 0.0000  plane waves:    5561
 k-point  8 :  -0.0333 0.0333 0.0000  plane waves:    5564
 k-point  9 :  -0.0667 0.0667 0.0000  plane waves:    5563
 k-point 10 :  -0.1000 0.1000 0.0000  plane waves:    5553
 k-point 11 :  -0.1333 0.1333 0.0000  plane waves:    5550
 k-point 12 :  -0.1667 0.1667 0.0000  plane waves:    5545
 k-point 13 :  -0.2000 0.2000 0.0000  plane waves:    5551
 k-point 14 :  -0.2333 0.2333 0.0000  plane waves:    5550
 k-point 15 :  -0.2667 0.2667 0.0000  plane waves:    5545
 k-point 16 :  -0.3000 0.3000 0.0000  plane waves:    5546
 k-point 17 :  -0.3333 0.3333 0.0000  plane waves:    5540
 k-point 18 :  -0.3667 0.3667 0.0000  plane waves:    5536
 k-point 19 :  -0.4000 0.4000 0.0000  plane waves:    5541
 k-point 20 :  -0.4333 0.4333 0.0000  plane waves:    5548
 k-point 21 :  -0.4667 0.4667 0.0000  plane waves:    5542
 k-point 22 :  -0.5000 0.5000 0.0000  plane waves:    5540
 k-point 23 :  -0.4731 0.5269 0.0000  plane waves:    5541
 k-point 24 :  -0.4463 0.5537 0.0000  plane waves:    5549
 k-point 25 :  -0.4194 0.5806 0.0000  plane waves:    5548
 k-point 26 :  -0.3926 0.6074 0.0000  plane waves:    5540
 k-point 27 :  -0.3657 0.6343 0.0000  plane waves:    5536
 k-point 28 :   0.3657 0.3657 0.0000  plane waves:    5536
 k-point 29 :   0.3429 0.3429 0.0000  plane waves:    5536
 k-point 30 :   0.3200 0.3200 0.0000  plane waves:    5540
 k-point 31 :   0.2972 0.2972 0.0000  plane waves:    5549
 k-point 32 :   0.2743 0.2743 0.0000  plane waves:    5544
 k-point 33 :   0.2515 0.2515 0.0000  plane waves:    5549
 k-point 34 :   0.2286 0.2286 0.0000  plane waves:    5555
 k-point 35 :   0.2057 0.2057 0.0000  plane waves:    5549
 k-point 36 :   0.1829 0.1829 0.0000  plane waves:    5547
 k-point 37 :   0.1600 0.1600 0.0000  plane waves:    5542
 k-point 38 :   0.1372 0.1372 0.0000  plane waves:    5548
 k-point 39 :   0.1143 0.1143 0.0000  plane waves:    5551
 k-point 40 :   0.0914 0.0914 0.0000  plane waves:    5553
 k-point 41 :   0.0686 0.0686 0.0000  plane waves:    5561
 k-point 42 :   0.0457 0.0457 0.0000  plane waves:    5560
 k-point 43 :   0.0229 0.0229 0.0000  plane waves:    5564
 k-point 44 :   0.0000 0.0000 0.0000  plane waves:    5561
 k-point 45 :   0.0000 0.0000 0.0161  plane waves:    5563
 k-point 46 :   0.0000 0.0000 0.0323  plane waves:    5563
 k-point 47 :   0.0000 0.0000 0.0484  plane waves:    5563
 k-point 48 :   0.0000 0.0000 0.0645  plane waves:    5565
 k-point 49 :   0.0000 0.0000 0.0806  plane waves:    5566
 k-point 50 :   0.0000 0.0000 0.0968  plane waves:    5563
 k-point 51 :   0.0000 0.0000 0.1129  plane waves:    5564
 k-point 52 :   0.0000 0.0000 0.1290  plane waves:    5569
 k-point 53 :   0.0000 0.0000 0.1452  plane waves:    5568
 k-point 54 :   0.0000 0.0000 0.1613  plane waves:    5563
 k-point 55 :   0.0000 0.0000 0.1774  plane waves:    5572
 k-point 56 :   0.0000 0.0000 0.1935  plane waves:    5564
 k-point 57 :   0.0000 0.0000 0.2097  plane waves:    5567
 k-point 58 :   0.0000 0.0000 0.2258  plane waves:    5565
 k-point 59 :   0.0000 0.0000 0.2419  plane waves:    5559
 k-point 60 :   0.0000 0.0000 0.2581  plane waves:    5563
 k-point 61 :   0.0000 0.0000 0.2742  plane waves:    5567
 k-point 62 :   0.0000 0.0000 0.2903  plane waves:    5564
 k-point 63 :   0.0000 0.0000 0.3065  plane waves:    5566
 k-point 64 :   0.0000 0.0000 0.3226  plane waves:    5577
 k-point 65 :   0.0000 0.0000 0.3387  plane waves:    5575
 k-point 66 :   0.0000 0.0000 0.3548  plane waves:    5571
 k-point 67 :   0.0000 0.0000 0.3710  plane waves:    5567
 k-point 68 :   0.0000 0.0000 0.3871  plane waves:    5563
 k-point 69 :   0.0000 0.0000 0.4032  plane waves:    5567
 k-point 70 :   0.0000 0.0000 0.4194  plane waves:    5562
 k-point 71 :   0.0000 0.0000 0.4355  plane waves:    5566
 k-point 72 :   0.0000 0.0000 0.4516  plane waves:    5574
 k-point 73 :   0.0000 0.0000 0.4677  plane waves:    5578
 k-point 74 :   0.0000 0.0000 0.4839  plane waves:    5579
 k-point 75 :   0.0000 0.0000 0.5000  plane waves:    5580
 k-point 76 :   0.0229 0.0229 0.5000  plane waves:    5582
 k-point 77 :   0.0457 0.0457 0.5000  plane waves:    5581
 k-point 78 :   0.0686 0.0686 0.5000  plane waves:    5581
 k-point 79 :   0.0914 0.0914 0.5000  plane waves:    5572
 k-point 80 :   0.1143 0.1143 0.5000  plane waves:    5564
 k-point 81 :   0.1372 0.1372 0.5000  plane waves:    5567
 k-point 82 :   0.1600 0.1600 0.5000  plane waves:    5571
 k-point 83 :   0.1829 0.1829 0.5000  plane waves:    5564
 k-point 84 :   0.2057 0.2057 0.5000  plane waves:    5564
 k-point 85 :   0.2286 0.2286 0.5000  plane waves:    5558
 k-point 86 :   0.2515 0.2515 0.5000  plane waves:    5558
 k-point 87 :   0.2743 0.2743 0.5000  plane waves:    5559
 k-point 88 :   0.2972 0.2972 0.5000  plane waves:    5559
 k-point 89 :   0.3200 0.3200 0.5000  plane waves:    5551
 k-point 90 :   0.3429 0.3429 0.5000  plane waves:    5548
 k-point 91 :   0.3657 0.3657 0.5000  plane waves:    5550
 k-point 92 :  -0.3657 0.6343 0.5000  plane waves:    5550
 k-point 93 :  -0.3926 0.6074 0.5000  plane waves:    5548
 k-point 94 :  -0.4194 0.5806 0.5000  plane waves:    5551
 k-point 95 :  -0.4463 0.5537 0.5000  plane waves:    5551
 k-point 96 :  -0.4731 0.5269 0.5000  plane waves:    5553
 k-point 97 :  -0.5000 0.5000 0.5000  plane waves:    5548
 k-point 98 :  -0.5000 0.5000 0.4839  plane waves:    5544
 k-point 99 :  -0.5000 0.5000 0.4677  plane waves:    5544
 k-point ** :  -0.5000 0.5000 0.4516  plane waves:    5548
 k-point ** :  -0.5000 0.5000 0.4355  plane waves:    5544
 k-point ** :  -0.5000 0.5000 0.4194  plane waves:    5550
 k-point ** :  -0.5000 0.5000 0.4032  plane waves:    5552
 k-point ** :  -0.5000 0.5000 0.3871  plane waves:    5550
 k-point ** :  -0.5000 0.5000 0.3710  plane waves:    5550
 k-point ** :  -0.5000 0.5000 0.3548  plane waves:    5546
 k-point ** :  -0.5000 0.5000 0.3387  plane waves:    5552
 k-point ** :  -0.5000 0.5000 0.3226  plane waves:    5544
 k-point ** :  -0.5000 0.5000 0.3065  plane waves:    5546
 k-point ** :  -0.5000 0.5000 0.2903  plane waves:    5550
 k-point ** :  -0.5000 0.5000 0.2742  plane waves:    5544
 k-point ** :  -0.5000 0.5000 0.2581  plane waves:    5542
 k-point ** :  -0.5000 0.5000 0.2419  plane waves:    5546
 k-point ** :  -0.5000 0.5000 0.2258  plane waves:    5540
 k-point ** :  -0.5000 0.5000 0.2097  plane waves:    5532
 k-point ** :  -0.5000 0.5000 0.1935  plane waves:    5536
 k-point ** :  -0.5000 0.5000 0.1774  plane waves:    5540
 k-point ** :  -0.5000 0.5000 0.1613  plane waves:    5540
 k-point ** :  -0.5000 0.5000 0.1452  plane waves:    5538
 k-point ** :  -0.5000 0.5000 0.1290  plane waves:    5540
 k-point ** :  -0.5000 0.5000 0.1129  plane waves:    5540
 k-point ** :  -0.5000 0.5000 0.0968  plane waves:    5536
 k-point ** :  -0.5000 0.5000 0.0806  plane waves:    5534
 k-point ** :  -0.5000 0.5000 0.0645  plane waves:    5538
 k-point ** :  -0.5000 0.5000 0.0484  plane waves:    5542
 k-point ** :  -0.5000 0.5000 0.0323  plane waves:    5540
 k-point ** :  -0.5000 0.5000 0.0161  plane waves:    5534
 k-point ** :  -0.5000 0.5000 0.0000  plane waves:    5540
 k-point ** :   0.0000 0.0000 0.0000  plane waves:    5561
 k-point ** :   0.0000 0.0385 0.0000  plane waves:    5563
 k-point ** :   0.0000 0.0769 0.0000  plane waves:    5566
 k-point ** :   0.0000 0.1154 0.0000  plane waves:    5564
 k-point ** :   0.0000 0.1538 0.0000  plane waves:    5566
 k-point ** :   0.0000 0.1923 0.0000  plane waves:    5566
 k-point ** :   0.0000 0.2308 0.0000  plane waves:    5563
 k-point ** :   0.0000 0.2692 0.0000  plane waves:    5565
 k-point ** :   0.0000 0.3077 0.0000  plane waves:    5566
 k-point ** :   0.0000 0.3462 0.0000  plane waves:    5573
 k-point ** :   0.0000 0.3846 0.0000  plane waves:    5561
 k-point ** :   0.0000 0.4231 0.0000  plane waves:    5564
 k-point ** :   0.0000 0.4615 0.0000  plane waves:    5580
 k-point ** :   0.0000 0.5000 0.0000  plane waves:    5580
 k-point ** :   0.0000 0.5000 0.0161  plane waves:    5583
 k-point ** :   0.0000 0.5000 0.0323  plane waves:    5582
 k-point ** :   0.0000 0.5000 0.0484  plane waves:    5574
 k-point ** :   0.0000 0.5000 0.0645  plane waves:    5578
 k-point ** :   0.0000 0.5000 0.0806  plane waves:    5579
 k-point ** :   0.0000 0.5000 0.0968  plane waves:    5572
 k-point ** :   0.0000 0.5000 0.1129  plane waves:    5575
 k-point ** :   0.0000 0.5000 0.1290  plane waves:    5575
 k-point ** :   0.0000 0.5000 0.1452  plane waves:    5574
 k-point ** :   0.0000 0.5000 0.1613  plane waves:    5571
 k-point ** :   0.0000 0.5000 0.1774  plane waves:    5569
 k-point ** :   0.0000 0.5000 0.1935  plane waves:    5569
 k-point ** :   0.0000 0.5000 0.2097  plane waves:    5564
 k-point ** :   0.0000 0.5000 0.2258  plane waves:    5569
 k-point ** :   0.0000 0.5000 0.2419  plane waves:    5575
 k-point ** :   0.0000 0.5000 0.2581  plane waves:    5580
 k-point ** :   0.0000 0.5000 0.2742  plane waves:    5577
 k-point ** :   0.0000 0.5000 0.2903  plane waves:    5570
 k-point ** :   0.0000 0.5000 0.3065  plane waves:    5570
 k-point ** :   0.0000 0.5000 0.3226  plane waves:    5571
 k-point ** :   0.0000 0.5000 0.3387  plane waves:    5569
 k-point ** :   0.0000 0.5000 0.3548  plane waves:    5571
 k-point ** :   0.0000 0.5000 0.3710  plane waves:    5572
 k-point ** :   0.0000 0.5000 0.3871  plane waves:    5566
 k-point ** :   0.0000 0.5000 0.4032  plane waves:    5568
 k-point ** :   0.0000 0.5000 0.4194  plane waves:    5570
 k-point ** :   0.0000 0.5000 0.4355  plane waves:    5574
 k-point ** :   0.0000 0.5000 0.4516  plane waves:    5580
 k-point ** :   0.0000 0.5000 0.4677  plane waves:    5580
 k-point ** :   0.0000 0.5000 0.4839  plane waves:    5586
 k-point ** :   0.0000 0.5000 0.5000  plane waves:    5588
 k-point ** :   0.0000 0.4615 0.5000  plane waves:    5580
 k-point ** :   0.0000 0.4231 0.5000  plane waves:    5570
 k-point ** :   0.0000 0.3846 0.5000  plane waves:    5566
 k-point ** :   0.0000 0.3462 0.5000  plane waves:    5571
 k-point ** :   0.0000 0.3077 0.5000  plane waves:    5570
 k-point ** :   0.0000 0.2692 0.5000  plane waves:    5581
 k-point ** :   0.0000 0.2308 0.5000  plane waves:    5571
 k-point ** :   0.0000 0.1923 0.5000  plane waves:    5569
 k-point ** :   0.0000 0.1538 0.5000  plane waves:    5570
 k-point ** :   0.0000 0.1154 0.5000  plane waves:    5575
 k-point ** :   0.0000 0.0769 0.5000  plane waves:    5580
 k-point ** :   0.0000 0.0385 0.5000  plane waves:    5580
 k-point ** :   0.0000 0.0000 0.5000  plane waves:    5580
 k-point ** :  -0.0333 0.0333 0.5000  plane waves:    5581
 k-point ** :  -0.0667 0.0667 0.5000  plane waves:    5582
 k-point ** :  -0.1000 0.1000 0.5000  plane waves:    5568
 k-point ** :  -0.1333 0.1333 0.5000  plane waves:    5566
 k-point ** :  -0.1667 0.1667 0.5000  plane waves:    5570
 k-point ** :  -0.2000 0.2000 0.5000  plane waves:    5564
 k-point ** :  -0.2333 0.2333 0.5000  plane waves:    5560
 k-point ** :  -0.2667 0.2667 0.5000  plane waves:    5558
 k-point ** :  -0.3000 0.3000 0.5000  plane waves:    5558
 k-point ** :  -0.3333 0.3333 0.5000  plane waves:    5551
 k-point ** :  -0.3667 0.3667 0.5000  plane waves:    5550
 k-point ** :  -0.4000 0.4000 0.5000  plane waves:    5545
 k-point ** :  -0.4333 0.4333 0.5000  plane waves:    5548
 k-point ** :  -0.4667 0.4667 0.5000  plane waves:    5557
 k-point ** :  -0.5000 0.5000 0.5000  plane waves:    5548

 maximum and minimum number of plane-waves per node :      5588     5532

 maximum number of plane-waves:      5588
 maximum index in each direction: 
   IXMAX=    6   IYMAX=   14   IZMAX=   14
   IXMIN=   -7   IYMIN=  -15   IZMIN=  -15


 serial   3D FFT for wavefunctions
 parallel 3D FFT for charge:
    minimum data exchange during FFTs selected (reduces bandwidth)


 total amount of memory used by VASP MPI-rank0   957015. kBytes
=======================================================================

   base      :      30000. kBytes
   nonl-proj :     487360. kBytes
   fftplans  :       1733. kBytes
   grid      :       4853. kBytes
   one-center:        357. kBytes
   wavefun   :     432712. kBytes
 
     INWAV:  cpu time   18.1880: real time   18.2534
 Broyden mixing: mesh for mixing (old mesh)
   NGX = 13   NGY = 29   NGZ = 29
  (NGX  = 40   NGY  = 96   NGZ  = 96)
  gives a total of  10933 points

 charge density for first step will be calculated from the start-wavefunctions


--------------------------------------------------------------------------------------------------------


 Maximum index for augmentation-charges         1406 (set IRDMAX)


--------------------------------------------------------------------------------------------------------


 initial charge from wavefunction
 First call to EWALD:  gamma=   0.263
 Maximum number of real-space cells 4x 2x 2
 Maximum number of reciprocal cells 2x 4x 4

    FEWALD:  cpu time    0.0040: real time    0.0032


--------------------------------------- Iteration      1(   1)  ---------------------------------------


    POTLOK:  cpu time    0.0280: real time    0.0325
    SETDIJ:  cpu time    0.1320: real time    0.1319
atom =   2  type =  2  l = 2
 
 onsite density matrix
 
spin component  1
 
  0.1959  0.0000  0.0000  0.0000  0.0000
  0.0000  0.2751  0.0000  0.0000  0.0000
  0.0000  0.0000  0.3583  0.0000 -0.1095
  0.0000  0.0000  0.0000  0.1996  0.0000
  0.0000  0.0000 -0.1095  0.0000  0.4640
 
spin component  2
 
  0.1959  0.0000  0.0000  0.0000  0.0000
  0.0000  0.2751  0.0000  0.0000  0.0000
  0.0000  0.0000  0.3583  0.0000 -0.1095
  0.0000  0.0000  0.0000  0.1996  0.0000
  0.0000  0.0000 -0.1095  0.0000  0.4640
 
 occupancies and eigenvectors
 
  o =  0.1959  v =  1.0000  0.0000  0.0000  0.0000  0.0000  0.0000  0.0000  0.0000  0.0000  0.0000      0.0000  0.0000  0.0000  0.0000  0.0000  0.0000  0.0000  0.0000  0.0000  0.0000
  o =  0.1959  v =  0.0000  0.0000  0.0000  0.0000  0.0000  1.0000  0.0000  0.0000  0.0000  0.0000      0.0000  0.0000  0.0000  0.0000  0.0000  0.0000  0.0000  0.0000  0.0000  0.0000
  o =  0.1996  v =  0.0000  0.0000  0.0000  1.0000  0.0000  0.0000  0.0000  0.0000  0.0000  0.0000      0.0000  0.0000  0.0000  0.0000  0.0000  0.0000  0.0000  0.0000  0.0000  0.0000
  o =  0.1996  v =  0.0000  0.0000  0.0000  0.0000  0.0000  0.0000  0.0000  0.0000  1.0000  0.0000      0.0000  0.0000  0.0000  0.0000  0.0000  0.0000  0.0000  0.0000  0.0000  0.0000
  o =  0.2751  v =  0.0000  1.0000  0.0000  0.0000  0.0000  0.0000  0.0000  0.0000  0.0000  0.0000      0.0000  0.0000  0.0000  0.0000  0.0000  0.0000  0.0000  0.0000  0.0000  0.0000
  o =  0.2751  v =  0.0000  0.0000  0.0000  0.0000  0.0000  0.0000  1.0000  0.0000  0.0000  0.0000      0.0000  0.0000  0.0000  0.0000  0.0000  0.0000  0.0000  0.0000  0.0000  0.0000
  o =  0.2895  v =  0.0000  0.0000  0.0000  0.0000  0.0000  0.0000  0.0000 -0.8470  0.0000 -0.5317      0.0000  0.0000  0.0000  0.0000  0.0000  0.0000  0.0000  0.0000  0.0000  0.0000
  o =  0.2895  v =  0.0000  0.0000 -0.8470  0.0000 -0.5317  0.0000  0.0000  0.0000  0.0000  0.0000      0.0000  0.0000  0.0000  0.0000  0.0000  0.0000  0.0000  0.0000  0.0000  0.0000
  o =  0.5328  v =  0.0000  0.0000 -0.5317  0.0000  0.8470  0.0000  0.0000  0.0000  0.0000  0.0000      0.0000  0.0000  0.0000  0.0000  0.0000  0.0000  0.0000  0.0000  0.0000  0.0000
  o =  0.5328  v =  0.0000  0.0000  0.0000  0.0000  0.0000  0.0000  0.0000 -0.5317  0.0000  0.8470      0.0000  0.0000  0.0000  0.0000  0.0000  0.0000  0.0000  0.0000  0.0000  0.0000
atom =   3  type =  2  l = 2
 
 onsite density matrix
 
spin component  1
 
  0.2011  0.0000  0.0000 -0.0014  0.0000
  0.0000  0.1876  0.0731  0.0000  0.0559
  0.0000  0.0731  0.4562  0.0000 -0.0554
 -0.0014  0.0000  0.0000  0.2058  0.0000
  0.0000  0.0559 -0.0554  0.0000  0.5316
 
spin component  2
 
  0.2011  0.0000  0.0000 -0.0014  0.0000
  0.0000  0.1876  0.0731  0.0000  0.0559
  0.0000  0.0731  0.4562  0.0000 -0.0554
 -0.0014  0.0000  0.0000  0.2058  0.0000
  0.0000  0.0559 -0.0554  0.0000  0.5316
 
 occupancies and eigenvectors
 
  o =  0.1565  v =  0.0000  0.9474 -0.2644  0.0000 -0.1803  0.0000  0.0000  0.0000  0.0000  0.0000      0.0000  0.0000  0.0000  0.0000  0.0000  0.0000  0.0000  0.0000  0.0000  0.0000
  o =  0.1565  v =  0.0000  0.0000  0.0000  0.0000  0.0000  0.0000  0.9474 -0.2644  0.0000 -0.1803      0.0000  0.0000  0.0000  0.0000  0.0000  0.0000  0.0000  0.0000  0.0000  0.0000
  o =  0.2007  v =  0.0000  0.0000  0.0000  0.0000  0.0000 -0.9641  0.0000  0.0000 -0.2657  0.0000      0.0000  0.0000  0.0000  0.0000  0.0000  0.0000  0.0000  0.0000  0.0000  0.0000
  o =  0.2007  v = -0.9641  0.0000  0.0000 -0.2657  0.0000  0.0000  0.0000  0.0000  0.0000  0.0000      0.0000  0.0000  0.0000  0.0000  0.0000  0.0000  0.0000  0.0000  0.0000  0.0000
  o =  0.2062  v = -0.2657  0.0000  0.0000  0.9641  0.0000  0.0000  0.0000  0.0000  0.0000  0.0000      0.0000  0.0000  0.0000  0.0000  0.0000  0.0000  0.0000  0.0000  0.0000  0.0000
  o =  0.2062  v =  0.0000  0.0000  0.0000  0.0000  0.0000 -0.2657  0.0000  0.0000  0.9641  0.0000      0.0000  0.0000  0.0000  0.0000  0.0000  0.0000  0.0000  0.0000  0.0000  0.0000
  o =  0.4573  v =  0.0000  0.3163  0.8594  0.0000  0.4018  0.0000  0.0000  0.0000  0.0000  0.0000      0.0000  0.0000  0.0000  0.0000  0.0000  0.0000  0.0000  0.0000  0.0000  0.0000
  o =  0.4573  v =  0.0000  0.0000  0.0000  0.0000  0.0000  0.0000  0.3163  0.8594  0.0000  0.4018      0.0000  0.0000  0.0000  0.0000  0.0000  0.0000  0.0000  0.0000  0.0000  0.0000
  o =  0.5617  v =  0.0000  0.0000  0.0000  0.0000  0.0000  0.0000  0.0487 -0.4377  0.0000  0.8978      0.0000  0.0000  0.0000  0.0000  0.0000  0.0000  0.0000  0.0000  0.0000  0.0000
  o =  0.5617  v =  0.0000  0.0487 -0.4377  0.0000  0.8978  0.0000  0.0000  0.0000  0.0000  0.0000      0.0000  0.0000  0.0000  0.0000  0.0000  0.0000  0.0000  0.0000  0.0000  0.0000
atom =   4  type =  2  l = 2
 
 onsite density matrix
 
spin component  1
 
  0.1961  0.0000  0.0000  0.0000  0.0000
  0.0000  0.4769  0.0000  0.0000  0.0000
  0.0000  0.0000  0.2779  0.0000 -0.1907
  0.0000  0.0000  0.0000  0.2144  0.0000
  0.0000  0.0000 -0.1907  0.0000  0.4373
 
spin component  2
 
  0.1961  0.0000  0.0000  0.0000  0.0000
  0.0000  0.4769  0.0000  0.0000  0.0000
  0.0000  0.0000  0.2779  0.0000 -0.1907
  0.0000  0.0000  0.0000  0.2144  0.0000
  0.0000  0.0000 -0.1907  0.0000  0.4373
 
 occupancies and eigenvectors
 
  o =  0.1509  v =  0.0000  0.0000 -0.8324  0.0000 -0.5542  0.0000  0.0000  0.0000  0.0000  0.0000      0.0000  0.0000  0.0000  0.0000  0.0000  0.0000  0.0000  0.0000  0.0000  0.0000
  o =  0.1509  v =  0.0000  0.0000  0.0000  0.0000  0.0000  0.0000  0.0000 -0.8324  0.0000 -0.5542      0.0000  0.0000  0.0000  0.0000  0.0000  0.0000  0.0000  0.0000  0.0000  0.0000
  o =  0.1961  v =  1.0000  0.0000  0.0000  0.0000  0.0000  0.0000  0.0000  0.0000  0.0000  0.0000      0.0000  0.0000  0.0000  0.0000  0.0000  0.0000  0.0000  0.0000  0.0000  0.0000
  o =  0.1961  v =  0.0000  0.0000  0.0000  0.0000  0.0000  1.0000  0.0000  0.0000  0.0000  0.0000      0.0000  0.0000  0.0000  0.0000  0.0000  0.0000  0.0000  0.0000  0.0000  0.0000
  o =  0.2144  v =  0.0000  0.0000  0.0000  1.0000  0.0000  0.0000  0.0000  0.0000  0.0000  0.0000      0.0000  0.0000  0.0000  0.0000  0.0000  0.0000  0.0000  0.0000  0.0000  0.0000
  o =  0.2144  v =  0.0000  0.0000  0.0000  0.0000  0.0000  0.0000  0.0000  0.0000  1.0000  0.0000      0.0000  0.0000  0.0000  0.0000  0.0000  0.0000  0.0000  0.0000  0.0000  0.0000
  o =  0.4769  v =  0.0000  0.0000  0.0000  0.0000  0.0000  0.0000  1.0000  0.0000  0.0000  0.0000      0.0000  0.0000  0.0000  0.0000  0.0000  0.0000  0.0000  0.0000  0.0000  0.0000
  o =  0.4769  v =  0.0000  1.0000  0.0000  0.0000  0.0000  0.0000  0.0000  0.0000  0.0000  0.0000      0.0000  0.0000  0.0000  0.0000  0.0000  0.0000  0.0000  0.0000  0.0000  0.0000
  o =  0.5642  v =  0.0000  0.0000  0.0000  0.0000  0.0000  0.0000  0.0000 -0.5542  0.0000  0.8324      0.0000  0.0000  0.0000  0.0000  0.0000  0.0000  0.0000  0.0000  0.0000  0.0000
  o =  0.5642  v =  0.0000  0.0000 -0.5542  0.0000  0.8324  0.0000  0.0000  0.0000  0.0000  0.0000      0.0000  0.0000  0.0000  0.0000  0.0000  0.0000  0.0000  0.0000  0.0000  0.0000
atom =   5  type =  2  l = 2
 
 onsite density matrix
 
spin component  1
 
  0.1870  0.0000  0.0000  0.0027  0.0000
  0.0000  0.2605  0.1073  0.0000  0.0484
  0.0000  0.1073  0.4011  0.0000 -0.0767
  0.0027  0.0000  0.0000  0.2136  0.0000
  0.0000  0.0484 -0.0767  0.0000  0.4526
 
spin component  2
 
  0.1870  0.0000  0.0000  0.0027  0.0000
  0.0000  0.2605  0.1073  0.0000  0.0484
  0.0000  0.1073  0.4011  0.0000 -0.0767
  0.0027  0.0000  0.0000  0.2136  0.0000
  0.0000  0.0484 -0.0767  0.0000  0.4526
 
 occupancies and eigenvectors
 
  o =  0.1791  v =  0.0000  0.8211 -0.4950  0.0000 -0.2842  0.0000  0.0000  0.0000  0.0000  0.0000      0.0000  0.0000  0.0000  0.0000  0.0000  0.0000  0.0000  0.0000  0.0000  0.0000
  o =  0.1791  v =  0.0000  0.0000  0.0000  0.0000  0.0000  0.0000  0.8211 -0.4950  0.0000 -0.2842      0.0000  0.0000  0.0000  0.0000  0.0000  0.0000  0.0000  0.0000  0.0000  0.0000
  o =  0.1867  v =  0.0000  0.0000  0.0000  0.0000  0.0000 -0.9948  0.0000  0.0000  0.1017  0.0000      0.0000  0.0000  0.0000  0.0000  0.0000  0.0000  0.0000  0.0000  0.0000  0.0000
  o =  0.1867  v = -0.9948  0.0000  0.0000  0.1017  0.0000  0.0000  0.0000  0.0000  0.0000  0.0000      0.0000  0.0000  0.0000  0.0000  0.0000  0.0000  0.0000  0.0000  0.0000  0.0000
  o =  0.2139  v = -0.1017  0.0000  0.0000 -0.9948  0.0000  0.0000  0.0000  0.0000  0.0000  0.0000      0.0000  0.0000  0.0000  0.0000  0.0000  0.0000  0.0000  0.0000  0.0000  0.0000
  o =  0.2139  v =  0.0000  0.0000  0.0000  0.0000  0.0000 -0.1017  0.0000  0.0000 -0.9948  0.0000      0.0000  0.0000  0.0000  0.0000  0.0000  0.0000  0.0000  0.0000  0.0000  0.0000
  o =  0.4242  v =  0.0000  0.0000  0.0000  0.0000  0.0000  0.0000  0.5544  0.5732  0.0000  0.6034      0.0000  0.0000  0.0000  0.0000  0.0000  0.0000  0.0000  0.0000  0.0000  0.0000
  o =  0.4242  v =  0.0000  0.5544  0.5732  0.0000  0.6034  0.0000  0.0000  0.0000  0.0000  0.0000      0.0000  0.0000  0.0000  0.0000  0.0000  0.0000  0.0000  0.0000  0.0000  0.0000
  o =  0.5110  v =  0.0000  0.0000  0.0000  0.0000  0.0000  0.0000 -0.1358 -0.6530  0.0000  0.7451      0.0000  0.0000  0.0000  0.0000  0.0000  0.0000  0.0000  0.0000  0.0000  0.0000
  o =  0.5110  v =  0.0000 -0.1358 -0.6530  0.0000  0.7451  0.0000  0.0000  0.0000  0.0000  0.0000      0.0000  0.0000  0.0000  0.0000  0.0000  0.0000  0.0000  0.0000  0.0000  0.0000
atom =   6  type =  2  l = 2
 
 onsite density matrix
 
spin component  1
 
  0.2011  0.0000  0.0000  0.0014  0.0000
  0.0000  0.1876 -0.0731  0.0000 -0.0559
  0.0000 -0.0731  0.4562  0.0000 -0.0554
  0.0014  0.0000  0.0000  0.2058  0.0000
  0.0000 -0.0559 -0.0554  0.0000  0.5316
 
spin component  2
 
  0.2011  0.0000  0.0000  0.0014  0.0000
  0.0000  0.1876 -0.0731  0.0000 -0.0559
  0.0000 -0.0731  0.4562  0.0000 -0.0554
  0.0014  0.0000  0.0000  0.2058  0.0000
  0.0000 -0.0559 -0.0554  0.0000  0.5316
 
 occupancies and eigenvectors
 
  o =  0.1565  v =  0.0000 -0.9474 -0.2644  0.0000 -0.1803  0.0000  0.0000  0.0000  0.0000  0.0000      0.0000  0.0000  0.0000  0.0000  0.0000  0.0000  0.0000  0.0000  0.0000  0.0000
  o =  0.1565  v =  0.0000  0.0000  0.0000  0.0000  0.0000  0.0000 -0.9474 -0.2644  0.0000 -0.1803      0.0000  0.0000  0.0000  0.0000  0.0000  0.0000  0.0000  0.0000  0.0000  0.0000
[...]
     57       0.2354      2.00000
     58       0.3928      2.00000
     59       0.4568      2.00000
     60       0.4571      2.00000
     61       0.5059      2.00000
     62       0.7480      2.00000
     63       1.1512      2.00000
     64       1.2279      2.00000
     65       1.3647      2.00000
     66       1.5216      2.00000
     67       1.6044      1.99989
     68       1.8944      0.82381
     69       5.3909      0.00000
     70       5.6927      0.00000
     71       5.8896      0.00000
     72       6.6716      0.00000
     73       6.8290      0.00000
     74       7.0207      0.00000
     75       7.0828      0.00000
     76       7.2612      0.00000
     77       7.3593      0.00000
     78       7.3904      0.00000
     79       7.5522      0.00000
     80       7.5685      0.00000
     81       7.5941      0.00000
     82       7.6627      0.00000
     83       7.7484      0.00000
     84       7.9947      0.00000
     85       8.2403      0.00000
     86       8.3626      0.00000
     87       8.5487      0.00000
     88       8.7057      0.00000
     89       8.8615      0.00000
     90       8.9548      0.00000
     91       9.4636      0.00000
     92       9.5408      0.00000
     93       9.9104      0.00000
     94      10.2098      0.00000
     95      10.5123      0.00000
     96      10.6111      0.00000
     97      11.0561      0.00000
     98      11.1839      0.00000
     99      11.5899      0.00000
    100      11.5916      0.00000
    101      11.8384      0.00000
    102      11.9341      0.00000
    103      12.0249      0.00000
    104      12.3087      0.00000
    105      12.3405      0.00000
    106      12.5636      0.00000
    107      12.7119      0.00000
    108      13.4297      0.00000
    109      13.4409      0.00000
    110      13.6000      0.00000
    111      13.8410      0.00000
    112      14.0302      0.00000
    113      14.1843      0.00000
    114      14.2519      0.00000
    115      14.2718      0.00000
    116      14.2722      0.00000
    117      14.3495      0.00000
    118      14.3907      0.00000
    119      14.5784      0.00000
    120      14.6065      0.00000
    121      14.6116      0.00000
    122      14.8481      0.00000
    123      15.3041      0.00000
    124      15.3084      0.00000
    125      15.5734      0.00000
    126      15.7489      0.00000
    127      15.8801      0.00000
    128      15.9291      0.00000
    129      15.9328      0.00000
    130      16.4115      0.00000
    131      16.8623      0.00000
    132      17.0977      0.00000
    133      17.1314      0.00000
    134      17.2636      0.00000
    135      17.4388      0.00000
    136      17.5036      0.00000
    137      17.6291      0.00000
    138      18.0066      0.00000
    139      18.1008      0.00000
    140      18.1407      0.00000
    141      18.2359      0.00000
    142      18.5217      0.00000
    143      18.6541      0.00000
    144      18.9682      0.00000
    145      19.1467      0.00000
    146      19.2642      0.00000
    147      19.7544      0.00000
    148      19.7716      0.00000
    149      19.8451      0.00000
    150      20.2299      0.00000
    151      20.3638      0.00000
    152      20.6095      0.00000
    153      21.1454      0.00000
    154      21.1919      0.00000
    155      21.5863      0.00000
    156      21.7354      0.00000
    157      21.7848      0.00000
    158      21.9986      0.00000
    159      22.0119      0.00000
    160      22.9579      0.00000
    161      22.9834      0.00000
    162      23.1034      0.00000
    163      23.5936      0.00000
    164      23.6914      0.00000
    165      23.9096      0.00000
    166      24.0337      0.00000
    167      24.0521      0.00000
    168      24.2320      0.00000
    169      24.3071      0.00000
    170      24.3768      0.00000
    171      24.8477      0.00000
    172      25.0389      0.00000
    173      25.1615      0.00000
    174      25.3943      0.00000
    175      25.5913      0.00000
    176      25.6284      0.00000
    177      25.8790      0.00000
    178      26.2064      0.00000
    179      26.4671      0.00000
    180      26.7048      0.00000
    181      26.7843      0.00000
    182      27.0489      0.00000
    183      27.3024      0.00000
    184      27.5347      0.00000
    185      27.6337      0.00000
    186      28.0433      0.00000
    187      28.1985      0.00000
    188      28.2787      0.00000
    189      28.2812      0.00000
    190      28.5260      0.00000
    191      28.7277      0.00000
    192      28.7281      0.00000
    193      28.7994      0.00000
    194      28.8116      0.00000
    195      28.9871      0.00000
    196      29.2448      0.00000
    197      29.6148      0.00000
    198      29.7267      0.00000
    199      29.8668      0.00000
    200      29.9820      0.00000
    201      30.3075      0.00000
    202      30.4637      0.00000
    203      30.4746      0.00000
    204      30.5740      0.00000
    205      30.6450      0.00000
    206      30.8068      0.00000
    207      30.9611      0.00000


--------------------------------------------------------------------------------------------------------


 soft charge-density along one line, spin component           1
         0         1         2         3         4         5         6         7         8         9
 total charge-density along one line
 
 pseudopotential strength for first ion, spin component:           1
  1.670  -5.587  -0.000   0.001  -0.000  -0.000   0.000  -0.000
 -5.587   1.084   0.000  -0.001   0.000  -0.000   0.000  -0.000
 -0.000   0.000  -7.725   0.000   0.000   4.695   0.000   0.000
  0.001  -0.001   0.000  -7.733  -0.000   0.000   4.682  -0.000
 -0.000   0.000   0.000  -0.000  -7.727   0.000  -0.000   4.690
 -0.000  -0.000   4.695   0.000   0.000   6.467  -0.000  -0.000
  0.000   0.000   0.000   4.682  -0.000  -0.000   6.479   0.000
 -0.000  -0.000   0.000  -0.000   4.690  -0.000   0.000   6.473
  0.000  -0.000  -0.000   0.000  -0.000  -0.000  -0.000  -0.000
  0.000  -0.000   0.001  -0.000   0.000   0.001  -0.000  -0.000
 -0.004   0.004   0.000  -0.000  -0.000   0.000  -0.001   0.000
 -0.000   0.000   0.000  -0.000   0.000  -0.000  -0.000   0.000
 -0.001   0.001   0.000  -0.000   0.000   0.000  -0.000  -0.000
  0.000  -0.000  -0.000   0.000  -0.000  -0.000  -0.000  -0.000
  0.000  -0.000   0.001  -0.000   0.000   0.001  -0.000  -0.000
 -0.007   0.006   0.000  -0.000  -0.000   0.000  -0.001   0.000
 -0.000   0.000   0.000  -0.000   0.001  -0.000  -0.000   0.001
 -0.002   0.002   0.000  -0.000   0.000   0.000  -0.000  -0.000
 total augmentation occupancy for first ion, spin component:           1
  1.994  -0.024   0.000  -0.000   0.000   0.000   0.000   0.000   0.000   0.000  -0.007   0.000   0.010   0.000   0.000  -0.003
 -0.024   0.384   0.000   0.001   0.000   0.000   0.000   0.000   0.000   0.000   0.190   0.000   0.312   0.000   0.000  -0.103
  0.000   0.000   2.006   0.000   0.000  -0.002   0.000   0.000   0.000   0.035   0.000   0.000   0.000   0.000  -0.017   0.000
 -0.000   0.001   0.000   2.022   0.000   0.000  -0.016   0.000   0.000   0.000  -0.031   0.000  -0.010   0.000   0.000   0.016
  0.000   0.000   0.000   0.000   2.017   0.000   0.000  -0.011   0.000   0.000   0.000   0.007   0.000   0.000   0.000   0.000
  0.000   0.000  -0.002   0.000   0.000   0.006   0.000   0.000   0.000  -0.006   0.000   0.000   0.000   0.000   0.003   0.000
  0.000   0.000   0.000  -0.016   0.000   0.000   0.012   0.000   0.000   0.000  -0.001   0.000   0.002   0.000   0.000   0.001
  0.000   0.000   0.000   0.000  -0.011   0.000   0.000   0.012   0.000   0.000   0.000   0.001   0.000   0.000   0.000   0.000
  0.000   0.000   0.000   0.000   0.000   0.000   0.000   0.000   2.219   0.000   0.000   0.000   0.000  -1.176   0.000   0.000
  0.000   0.000   0.035   0.000   0.000  -0.006   0.000   0.000   0.000   2.229   0.000   0.000   0.000   0.000  -1.188   0.000
 -0.007   0.190   0.000  -0.031   0.000   0.000  -0.001   0.000   0.000   0.000   1.834   0.000  -0.117   0.000   0.000  -0.980
  0.000   0.000   0.000   0.000   0.007   0.000   0.000   0.001   0.000   0.000   0.000   4.190   0.000   0.000   0.000   0.000
  0.010   0.312   0.000  -0.010   0.000   0.000   0.002   0.000   0.000   0.000  -0.117   0.000   1.695   0.000   0.000   0.060
  0.000   0.000   0.000   0.000   0.000   0.000   0.000   0.000  -1.176   0.000   0.000   0.000   0.000   0.625   0.000   0.000
  0.000   0.000  -0.017   0.000   0.000   0.003   0.000   0.000   0.000  -1.188   0.000   0.000   0.000   0.000   0.635   0.000
 -0.003  -0.103   0.000   0.016   0.000   0.000   0.001   0.000   0.000   0.000  -0.980   0.000   0.060   0.000   0.000   0.524
  0.000   0.000   0.000   0.000  -0.004   0.000   0.000   0.000   0.000   0.000   0.000  -2.253   0.000   0.000   0.000   0.000
 -0.011  -0.168   0.000   0.005   0.000   0.000  -0.001   0.000   0.000   0.000   0.060   0.000  -0.899   0.000   0.000  -0.031


------------------------ aborting loop because EDIFF is reached ----------------------------------------


 


 total charge     
 
# of ion       s       p       d       tot
------------------------------------------
    1        1.998   5.631   0.301   7.930
    2        0.627   1.087   3.058   4.771
    3        0.689   1.224   3.229   5.141
    4        0.700   1.254   3.270   5.224
    5        0.663   1.159   3.106   4.928
    6        0.689   1.224   3.229   5.142
    7        0.663   1.159   3.106   4.928
    8        1.584   3.550   0.000   5.134
    9        1.578   3.518   0.000   5.096
   10        1.580   3.552   0.000   5.132
   11        1.584   3.550   0.000   5.133
   12        1.579   3.515   0.000   5.093
   13        1.586   3.517   0.000   5.102
   14        1.578   3.518   0.000   5.096
   15        1.586   3.517   0.000   5.103
   16        1.580   3.576   0.000   5.156
   17        1.580   3.552   0.000   5.132
   18        1.589   3.501   0.000   5.090
   19        1.596   3.490   0.000   5.086
   20        1.597   3.478   0.000   5.076
   21        1.595   3.505   0.000   5.100
   22        1.596   3.490   0.000   5.086
   23        1.589   3.501   0.000   5.090
--------------------------------------------------
tot         31.403  69.068  19.297 119.768
 
    CHARGE:  cpu time    0.0320: real time    0.0331
    FORLOC:  cpu time    0.0040: real time    0.0059
    FORNL :  cpu time   10.8960: real time   10.8935
    FORCOR:  cpu time    0.1560: real time    0.1560
    FORHAR:  cpu time    0.0080: real time    0.0106
    MIXING:  cpu time    0.0040: real time    0.0021
    OFIELD:  cpu time    0.0000: real time    0.0000

 VOLUME and BASIS-vectors are now :
 -----------------------------------------------------------------------------
  energy-cutoff  :      400.00
  volume of cell :      305.82
      direct lattice vectors                 reciprocal lattice vectors
     3.898583000  0.000000000  0.000000000     0.256503453  0.000000000  0.000000000
     0.000000000  5.166017000  7.592208000     0.000000000  0.096786364  0.065856994
     0.000000000 -5.166017000  7.592208000     0.000000000 -0.096786364  0.065856994

  length of vectors
     3.898583000  9.183101544  9.183101544     0.256503453  0.117067262  0.117067262


 FORCES acting on ions
    electron-ion (+dipol)            ewald-force                    non-local-force                 convergence-correction
 -----------------------------------------------------------------------------------------------
   0.443E-13 0.183E-07 -.527E+02   0.617E-14 0.426E-13 0.527E+02   0.000E+00 0.000E+00 0.267E-01   -.974E-15 -.662E-13 -.142E-03
   0.415E-15 -.115E-07 0.618E+01   0.247E-14 0.000E+00 -.628E+01   0.000E+00 0.000E+00 0.435E+00   -.140E-13 0.325E-13 0.203E-03
   0.552E-14 0.285E+02 0.475E+02   0.348E-13 -.278E+02 -.476E+02   0.000E+00 -.310E+00 0.345E+00   -.157E-13 -.373E-03 0.143E-02
   0.633E-14 -.252E-07 0.120E+02   -.132E-13 0.711E-14 -.115E+02   0.000E+00 0.000E+00 0.624E-01   -.957E-14 -.221E-13 -.124E-02
   0.142E-13 -.405E+02 -.299E+02   0.108E-13 0.403E+02 0.309E+02   0.000E+00 0.530E+00 -.200E+01   -.178E-13 -.785E-03 -.104E-02
   0.501E-14 -.285E+02 0.475E+02   0.121E-13 0.278E+02 -.476E+02   0.000E+00 0.310E+00 0.345E+00   -.139E-13 0.373E-03 0.143E-02
   0.119E-13 0.405E+02 -.299E+02   -.180E-13 -.403E+02 0.309E+02   0.000E+00 -.530E+00 -.200E+01   -.132E-13 0.785E-03 -.104E-02
   -.794E-14 0.351E+02 -.163E+02   0.364E-14 -.304E+02 0.246E+02   0.000E+00 -.467E+01 -.822E+01   -.400E-13 0.820E-03 -.198E-02
   0.209E-14 -.541E+02 0.134E+02   0.180E-13 0.588E+02 -.135E+02   0.000E+00 -.461E+01 0.127E+00   -.457E-13 -.233E-02 0.165E-02
   0.291E-15 -.580E+02 -.426E+02   0.141E-13 0.628E+02 0.444E+02   0.000E+00 -.481E+01 -.180E+01   -.518E-13 -.206E-02 -.139E-02
   -.411E-14 -.351E+02 -.163E+02   0.307E-14 0.304E+02 0.246E+02   0.000E+00 0.467E+01 -.822E+01   -.375E-13 -.820E-03 -.198E-02
   -.915E-14 -.137E-05 -.470E+02   -.800E-14 0.000E+00 0.420E+02   0.000E+00 0.000E+00 0.479E+01   -.266E-13 -.459E-13 0.792E-03
   0.828E-14 -.907E+02 -.747E+00   0.517E-14 0.993E+02 0.300E+01   0.000E+00 -.869E+01 -.230E+01   -.611E-13 -.184E-02 -.232E-02
   0.118E-13 0.541E+02 0.134E+02   -.141E-13 -.588E+02 -.135E+02   0.000E+00 0.461E+01 0.127E+00   0.183E-14 0.233E-02 0.165E-02
   -.156E-14 0.907E+02 -.747E+00   0.582E-14 -.993E+02 0.300E+01   0.000E+00 0.869E+01 -.230E+01   -.496E-13 0.184E-02 -.232E-02
   0.231E-14 0.119E-05 0.108E+03   -.907E-14 -.116E-11 -.113E+03   0.000E+00 0.000E+00 0.500E+01   -.563E-13 0.386E-13 0.426E-02
   -.213E-14 0.580E+02 -.426E+02   -.857E-14 -.628E+02 0.444E+02   0.000E+00 0.481E+01 -.180E+01   -.315E-13 0.206E-02 -.139E-02
   0.611E-13 -.310E+02 -.469E+02   -.193E-13 0.301E+02 0.468E+02   0.000E+00 0.492E+00 0.111E+01   0.368E-13 -.135E-03 -.140E-02
   0.459E-13 0.313E+02 0.541E+02   -.468E-13 -.320E+02 -.544E+02   0.000E+00 0.202E+00 0.660E-01   0.323E-13 0.720E-03 0.143E-02
   0.405E-13 0.213E-06 0.425E+01   0.151E-13 -.212E-11 -.434E+01   0.000E+00 0.000E+00 -.218E+00   0.276E-13 0.357E-13 0.325E-03
   0.481E-13 0.151E-06 0.259E+02   -.432E-15 -.313E-11 -.281E+02   0.000E+00 0.000E+00 0.153E+01   0.850E-14 -.284E-13 0.297E-03
   0.471E-13 -.313E+02 0.541E+02   -.623E-15 0.320E+02 -.544E+02   0.000E+00 -.202E+00 0.660E-01   0.352E-13 -.720E-03 0.143E-02
   0.604E-13 0.310E+02 -.469E+02   0.982E-14 -.301E+02 0.468E+02   0.000E+00 -.492E+00 0.111E+01   0.315E-13 0.135E-03 -.140E-02
 -----------------------------------------------------------------------------------------------
   0.391E-12 0.345E-06 0.137E+02   0.293E-14 -.284E-13 0.568E-13   0.000E+00 -.555E-16 -.137E+02   -.312E-12 0.937E-13 -.277E-02
 
 
 POSITION                                       TOTAL-FORCE (eV/Angst)
 -----------------------------------------------------------------------------------
      1.94929      0.00000      6.06227         0.000000      0.000000     -0.027839
      0.00000      0.00000     15.06030         0.000000      0.000000      0.338824
      0.00000     -3.25018      4.78453         0.000000      0.377730      0.249134
      0.00000      0.00000      3.12029         0.000000      0.000000      0.552526
      0.00000     -1.92246      8.59214         0.000000      0.393252     -0.975459
      0.00000      3.25018      4.78453         0.000000     -0.377730      0.249134
      0.00000      1.92246      8.59214         0.000000     -0.393252     -0.975459
      0.00000     -1.29858      4.62164         0.000000      0.020315      0.055063
      0.00000     -3.10776      6.85138         0.000000      0.102483      0.012407
      0.00000     -3.90017      9.17243         0.000000      0.017100      0.006205
      0.00000      1.29858      4.62164         0.000000     -0.020315      0.055063
      0.00000      0.00000      7.90461         0.000000      0.000000     -0.116535
      0.00000     -1.54420     10.45267         0.000000     -0.032136     -0.049881
      0.00000      3.10776      6.85138         0.000000     -0.102483      0.012407
      0.00000      1.54420     10.45267         0.000000      0.032136     -0.049881
      0.00000      0.00000     12.99021         0.000000      0.000000      0.086933
      0.00000      3.90017      9.17243         0.000000     -0.017100      0.006205
      1.94929     -1.82852      8.32808         0.000000     -0.374806      1.012396
      1.94929     -3.18176      4.82659         0.000000     -0.420897     -0.265046
      1.94929      0.00000     15.09850         0.000000      0.000000     -0.313610
      1.94929      0.00000      3.22550         0.000000      0.000000     -0.609937
      1.94929      3.18176      4.82659         0.000000      0.420897     -0.265046
      1.94929      1.82852      8.32808         0.000000      0.374806      1.012396
 -----------------------------------------------------------------------------------
    total drift:                                0.000000      0.000000     -0.002901


--------------------------------------------------------------------------------------------------------



  FREE ENERGIE OF THE ION-ELECTRON SYSTEM (eV)
  ---------------------------------------------------
  free  energy   TOTEN  =      -211.61395943 eV

  energy  without entropy=     -211.61395943  energy(sigma->0) =     -211.61395943
 


--------------------------------------------------------------------------------------------------------


    POTLOK:  cpu time    0.1560: real time    0.1564


--------------------------------------------------------------------------------------------------------


 writing wavefunctions
     LOOP+:  cpu time  307.6920: real time  311.7053
    4ORBIT:  cpu time    0.0000: real time    0.0000
 


 total charge     
 
# of ion       s       p       d       tot
------------------------------------------
    1        1.998   5.631   0.301   7.930
    2        0.627   1.087   3.058   4.771
    3        0.689   1.224   3.229   5.141
    4        0.700   1.254   3.270   5.224
    5        0.663   1.159   3.106   4.928
    6        0.689   1.224   3.229   5.142
    7        0.663   1.159   3.106   4.928
    8        1.584   3.550   0.000   5.134
    9        1.578   3.518   0.000   5.096
   10        1.580   3.552   0.000   5.132
   11        1.584   3.550   0.000   5.133
   12        1.579   3.515   0.000   5.093
   13        1.586   3.517   0.000   5.102
   14        1.578   3.518   0.000   5.096
   15        1.586   3.517   0.000   5.103
   16        1.580   3.576   0.000   5.156
   17        1.580   3.552   0.000   5.132
   18        1.589   3.501   0.000   5.090
   19        1.596   3.490   0.000   5.086
   20        1.597   3.478   0.000   5.076
   21        1.595   3.505   0.000   5.100
   22        1.596   3.490   0.000   5.086
   23        1.589   3.501   0.000   5.090
--------------------------------------------------
tot         31.403  69.068  19.297 119.768
 

 total amount of memory used by VASP MPI-rank0   957015. kBytes
=======================================================================

   base      :      30000. kBytes
   nonl-proj :     487360. kBytes
   fftplans  :       1733. kBytes
   grid      :       4853. kBytes
   one-center:        357. kBytes
   wavefun   :     432712. kBytes
 
  
  
 General timing and accounting informations for this job:
 ========================================================
  
                  Total CPU time used (sec):      348.224
                            User time (sec):      342.280
                          System time (sec):        5.944
                         Elapsed time (sec):      352.804
  
                   Maximum memory used (kb):     1133544.
                   Average memory used (kb):           0.
  
                          Minor page faults:       812445
                          Major page faults:           10
                 Voluntary context switches:         3727
