 vasp.5.4.4.18Apr17-6-g9f103f2a35 (build Apr 25 2017 10:43:04) complex          
  
 executed on             LinuxIFC date 2019.12.15  15:45:49
 running on   36 total cores
 distrk:  each k-point on    9 cores,    4 groups
 distr:  one band on NCORES_PER_BAND=   1 cores,    9 groups


--------------------------------------------------------------------------------------------------------


 INCAR:
 POTCAR:    PAW_PBE Mg 13Apr2007                  
 POTCAR:    PAW_PBE O 08Apr2002                   

 ----------------------------------------------------------------------------- 
|                                                                             |
|           W    W    AA    RRRRR   N    N  II  N    N   GGGG   !!!           |
|           W    W   A  A   R    R  NN   N  II  NN   N  G    G  !!!           |
|           W    W  A    A  R    R  N N  N  II  N N  N  G       !!!           |
|           W WW W  AAAAAA  RRRRR   N  N N  II  N  N N  G  GGG   !            |
|           WW  WW  A    A  R   R   N   NN  II  N   NN  G    G                |
|           W    W  A    A  R    R  N    N  II  N    N   GGGG   !!!           |
|                                                                             |
|      For optimal performance we recommend to set                            |
|        NCORE= 4 - approx SQRT( number of cores)                             |
|      NCORE specifies how many cores store one orbital (NPAR=cpu/NCORE).     |
|      This setting can  greatly improve the performance of VASP for DFT.     |
|      The default,   NCORE=1            might be grossly inefficient         |
|      on modern multi-core architectures or massively parallel machines.     |
|      Do your own testing !!!!                                               |
|      Unfortunately you need to use the default for GW and RPA calculations. |
|      (for HF NCORE is supported but not extensively tested yet)             |
|                                                                             |
 ----------------------------------------------------------------------------- 


 ----------------------------------------------------------------------------- 
|                                                                             |
|           W    W    AA    RRRRR   N    N  II  N    N   GGGG   !!!           |
|           W    W   A  A   R    R  NN   N  II  NN   N  G    G  !!!           |
|           W    W  A    A  R    R  N N  N  II  N N  N  G       !!!           |
|           W WW W  AAAAAA  RRRRR   N  N N  II  N  N N  G  GGG   !            |
|           WW  WW  A    A  R   R   N   NN  II  N   NN  G    G                |
|           W    W  A    A  R    R  N    N  II  N    N   GGGG   !!!           |
|                                                                             |
|      You have enabled k-point parallelism (KPAR>1).                         |
|      This developmental code was originally  written by Paul Kent at ORNL,  |
|      and carefully double checked in Vienna.                                |
|      GW as well as linear response parallelism added by Martijn Marsman     |
|      and Georg Kresse.                                                      |
|      Carefully verify results versus KPAR=1.                                |
|      Report problems to Paul Kent and Vienna.                               |
|                                                                             |
 ----------------------------------------------------------------------------- 

 POTCAR:    PAW_PBE Mg 13Apr2007                  
   VRHFIN =Mg: s2p0                                                             
   LEXCH  = PE                                                                  
   EATOM  =    23.0369 eV,    1.6932 Ry                                         
                                                                                
   TITEL  = PAW_PBE Mg 13Apr2007                                                
   LULTRA =        F    use ultrasoft PP ?                                      
   IUNSCR =        1    unscreen: 0-lin 1-nonlin 2-no                           
   RPACOR =    1.500    partial core radius                                     
   POMASS =   24.305; ZVAL   =    2.000    mass and valenz                      
   RCORE  =    2.000    outmost cutoff radius                                   
   RWIGS  =    2.880; RWIGS  =    1.524    wigner-seitz radius (au A)           
   ENMAX  =  200.000; ENMIN  =  100.000 eV                                      
   RCLOC  =    1.506    cutoff for local pot                                    
   LCOR   =        T    correct aug charges                                     
   LPAW   =        T    paw PP                                                  
   EAUG   =  454.734                                                            
   DEXC   =    0.000                                                            
   RMAX   =    2.045    core radius for proj-oper                               
   RAUG   =    1.300    factor for augmentation sphere                          
   RDEP   =    2.025    radius for radial grids                                 
   RDEPT  =    1.942    core radius for aug-charge                              
                                                                                
   Atomic configuration                                                         
    6 entries                                                                   
     n  l   j            E        occ.                                          
     1  0  0.50     -1259.6230   2.0000                                         
     2  0  0.50       -79.8442   2.0000                                         
     2  1  1.50       -46.6121   6.0000                                         
     3  0  0.50        -4.7055   2.0000                                         
     3  1  0.50        -1.3660   0.0000                                         
     3  2  1.50        -1.3606   0.0000                                         
   Description                                                                  
     l       E           TYP  RCUT    TYP  RCUT                                 
     0     -4.7054661     23  2.000                                             
     0     27.2116520     23  2.000                                             
     1      1.3605826     23  2.000                                             
     1     27.2116520     23  2.000                                             
     2     -1.3605826     23  2.000                                             
  local pseudopotential read in
  partial core-charges read in
  partial kinetic energy density read in
  atomic valenz-charges read in
  non local Contribution for L=           0  read in
    real space projection operators read in
  non local Contribution for L=           0  read in
    real space projection operators read in
  non local Contribution for L=           1  read in
    real space projection operators read in
  non local Contribution for L=           1  read in
    real space projection operators read in
  non local Contribution for L=           2  read in
    real space projection operators read in
    PAW grid and wavefunctions read in
 
   number of l-projection  operators is LMAX  =           5
   number of lm-projection operators is LMMAX =          13
 
 POTCAR:    PAW_PBE O 08Apr2002                   
   VRHFIN =O: s2p4                                                              
   LEXCH  = PE                                                                  
   EATOM  =   432.3788 eV,   31.7789 Ry                                         
                                                                                
   TITEL  = PAW_PBE O 08Apr2002                                                 
   LULTRA =        F    use ultrasoft PP ?                                      
   IUNSCR =        1    unscreen: 0-lin 1-nonlin 2-no                           
   RPACOR =    1.200    partial core radius                                     
   POMASS =   16.000; ZVAL   =    6.000    mass and valenz                      
   RCORE  =    1.520    outmost cutoff radius                                   
   RWIGS  =    1.550; RWIGS  =    0.820    wigner-seitz radius (au A)           
   ENMAX  =  400.000; ENMIN  =  300.000 eV                                      
   ICORE  =        2    local potential                                         
   LCOR   =        T    correct aug charges                                     
   LPAW   =        T    paw PP                                                  
   EAUG   =  605.392                                                            
   DEXC   =    0.000                                                            
   RMAX   =    1.553    core radius for proj-oper                               
   RAUG   =    1.300    factor for augmentation sphere                          
   RDEP   =    1.550    radius for radial grids                                 
   RDEPT  =    1.329    core radius for aug-charge                              
                                                                                
   Atomic configuration                                                         
    4 entries                                                                   
     n  l   j            E        occ.                                          
     1  0  0.50      -514.6923   2.0000                                         
     2  0  0.50       -23.9615   2.0000                                         
     2  1  0.50        -9.0305   4.0000                                         
     3  2  1.50        -9.5241   0.0000                                         
   Description                                                                  
     l       E           TYP  RCUT    TYP  RCUT                                 
     0    -23.9615318     23  1.200                                             
     0     -9.5240782     23  1.200                                             
     1     -9.0304911     23  1.520                                             
     1      8.1634956     23  1.520                                             
     2     -9.5240782      7  1.500                                             
  local pseudopotential read in
  partial core-charges read in
  partial kinetic energy density read in
  kinetic energy density of atom read in
  atomic valenz-charges read in
  non local Contribution for L=           0  read in
    real space projection operators read in
  non local Contribution for L=           0  read in
    real space projection operators read in
  non local Contribution for L=           1  read in
    real space projection operators read in
  non local Contribution for L=           1  read in
    real space projection operators read in
    PAW grid and wavefunctions read in
 
   number of l-projection  operators is LMAX  =           4
   number of lm-projection operators is LMMAX =           8
 

 ----------------------------------------------------------------------------- 
|                                                                             |
|  ADVICE TO THIS USER RUNNING 'VASP/VAMP'   (HEAR YOUR MASTER'S VOICE ...):  |
|                                                                             |
|      You enforced a specific xc-type in the INCAR file,                     |
|      a different type was found on the POTCAR file                          |
|          I HOPE YOU KNOW, WHAT YOU ARE  DOING                               |
|                                                                             |
 ----------------------------------------------------------------------------- 

  PAW_PBE Mg 13Apr2007                  :
 energy of atom  1       EATOM=  -23.0369
 kinetic energy error for atom=    0.0001 (will be added to EATOM!!)
  PAW_PBE O 08Apr2002                   :
 energy of atom  2       EATOM= -432.3788
 kinetic energy error for atom=    0.1156 (will be added to EATOM!!)
 
 
 POSCAR: Mg1 O1                                  
  positions in direct lattice
  No initial velocities read in
 exchange correlation table for  LEXCH =       14
   RHO(1)=    0.500       N(1)  =     2000
   RHO(2)=  100.500       N(2)  =     4000
 


--------------------------------------------------------------------------------------------------------


 ion  position               nearest neighbor table
   1  0.000  0.000  0.000-   2 2.10   2 2.10   2 2.10   2 2.10   2 2.10   2 2.10
   2  0.500  0.500  0.500-   1 2.10   1 2.10   1 2.10   1 2.10   1 2.10   1 2.10
 
  LATTYP: Found a face centered cubic cell.
 ALAT       =     4.2096660000
  
  Lattice vectors:
  
 A1 = (   0.0000000000,   2.1048330000,   2.1048330000)
 A2 = (   2.1048330000,   0.0000000000,   2.1048330000)
 A3 = (   2.1048330000,   2.1048330000,   0.0000000000)


Analysis of symmetry for initial positions (statically):
=====================================================================
 Subroutine PRICEL returns:
 Original cell was already a primitive cell.
 

 Routine SETGRP: Setting up the symmetry group for a 
 face centered cubic supercell.


 Subroutine GETGRP returns: Found 48 space group operations
 (whereof 48 operations were pure point group operations)
 out of a pool of 48 trial point group operations.


The static configuration has the point symmetry O_h .


Analysis of symmetry for dynamics (positions and initial velocities):
=====================================================================
 Subroutine PRICEL returns:
 Original cell was already a primitive cell.
 

 Routine SETGRP: Setting up the symmetry group for a 
 face centered cubic supercell.


 Subroutine GETGRP returns: Found 48 space group operations
 (whereof 48 operations were pure point group operations)
 out of a pool of 48 trial point group operations.


The dynamic configuration has the point symmetry O_h .


 Subroutine INISYM returns: Found 48 space group operations
 (whereof 48 operations are pure point group operations),
 and found     1 'primitive' translations

 
 
 KPOINTS: Generated by vise. Mode: band, kpt densi
  k-points in reciprocal lattice
Space group operators:
 irot       det(A)        alpha          n_x          n_y          n_z        tau_x        tau_y        tau_z
    1     1.000000     0.000000     1.000000     0.000000     0.000000     0.000000     0.000000     0.000000
    2    -1.000000     0.000000     1.000000     0.000000     0.000000     0.000000     0.000000     0.000000
    3     1.000000   120.000000    -0.577350    -0.577350    -0.577350     0.000000     0.000000     0.000000
    4    -1.000000   120.000000    -0.577350    -0.577350    -0.577350     0.000000     0.000000     0.000000
    5     1.000000   120.000000     0.577350     0.577350     0.577350     0.000000     0.000000     0.000000
    6    -1.000000   120.000000     0.577350     0.577350     0.577350     0.000000     0.000000     0.000000
    7     1.000000    90.000000     0.000000     0.000000    -1.000000     0.000000     0.000000     0.000000
    8    -1.000000    90.000000     0.000000     0.000000    -1.000000     0.000000     0.000000     0.000000
    9     1.000000   180.000000     0.000000     0.707107     0.707107     0.000000     0.000000     0.000000
   10    -1.000000   180.000000     0.000000     0.707107     0.707107     0.000000     0.000000     0.000000
   11     1.000000    90.000000     0.000000     1.000000     0.000000     0.000000     0.000000     0.000000
   12    -1.000000    90.000000     0.000000     1.000000     0.000000     0.000000     0.000000     0.000000
   13     1.000000   179.999999     0.000000     0.000000     1.000000     0.000000     0.000000     0.000000
   14    -1.000000   179.999999     0.000000     0.000000     1.000000     0.000000     0.000000     0.000000
   15     1.000000   120.000000    -0.577350     0.577350     0.577350     0.000000     0.000000     0.000000
   16    -1.000000   120.000000    -0.577350     0.577350     0.577350     0.000000     0.000000     0.000000
   17     1.000000   120.000000    -0.577350     0.577350    -0.577350     0.000000     0.000000     0.000000
   18    -1.000000   120.000000    -0.577350     0.577350    -0.577350     0.000000     0.000000     0.000000
   19     1.000000    90.000000     0.000000     0.000000     1.000000     0.000000     0.000000     0.000000
   20    -1.000000    90.000000     0.000000     0.000000     1.000000     0.000000     0.000000     0.000000
   21     1.000000    90.000000    -1.000000     0.000000     0.000000     0.000000     0.000000     0.000000
   22    -1.000000    90.000000    -1.000000     0.000000     0.000000     0.000000     0.000000     0.000000
   23     1.000000   180.000000     0.707107     0.000000     0.707107     0.000000     0.000000     0.000000
   24    -1.000000   180.000000     0.707107     0.000000     0.707107     0.000000     0.000000     0.000000
   25     1.000000   120.000000     0.577350    -0.577350     0.577350     0.000000     0.000000     0.000000
   26    -1.000000   120.000000     0.577350    -0.577350     0.577350     0.000000     0.000000     0.000000
   27     1.000000   120.000000    -0.577350    -0.577350     0.577350     0.000000     0.000000     0.000000
   28    -1.000000   120.000000    -0.577350    -0.577350     0.577350     0.000000     0.000000     0.000000
   29     1.000000   180.000000     1.000000     0.000000     0.000000     0.000000     0.000000     0.000000
   30    -1.000000   180.000000     1.000000     0.000000     0.000000     0.000000     0.000000     0.000000
   31     1.000000    90.000000     0.000000    -1.000000     0.000000     0.000000     0.000000     0.000000
   32    -1.000000    90.000000     0.000000    -1.000000     0.000000     0.000000     0.000000     0.000000
   33     1.000000   180.000000     0.707107     0.707107     0.000000     0.000000     0.000000     0.000000
   34    -1.000000   180.000000     0.707107     0.707107     0.000000     0.000000     0.000000     0.000000
   35     1.000000    90.000000     1.000000     0.000000     0.000000     0.000000     0.000000     0.000000
   36    -1.000000    90.000000     1.000000     0.000000     0.000000     0.000000     0.000000     0.000000
   37     1.000000   120.000000     0.577350    -0.577350    -0.577350     0.000000     0.000000     0.000000
   38    -1.000000   120.000000     0.577350    -0.577350    -0.577350     0.000000     0.000000     0.000000
   39     1.000000   180.000000     0.000000     1.000000     0.000000     0.000000     0.000000     0.000000
   40    -1.000000   180.000000     0.000000     1.000000     0.000000     0.000000     0.000000     0.000000
   41     1.000000   120.000000     0.577350     0.577350    -0.577350     0.000000     0.000000     0.000000
   42    -1.000000   120.000000     0.577350     0.577350    -0.577350     0.000000     0.000000     0.000000
   43     1.000000   180.000000     0.000000    -0.707107     0.707107     0.000000     0.000000     0.000000
   44    -1.000000   180.000000     0.000000    -0.707107     0.707107     0.000000     0.000000     0.000000
   45     1.000000   180.000000     0.707107    -0.707107     0.000000     0.000000     0.000000     0.000000
   46    -1.000000   180.000000     0.707107    -0.707107     0.000000     0.000000     0.000000     0.000000
   47     1.000000   180.000000     0.707107     0.000000    -0.707107     0.000000     0.000000     0.000000
   48    -1.000000   180.000000     0.707107     0.000000    -0.707107     0.000000     0.000000     0.000000

 ----------------------------------------------------------------------------- 
|                                                                             |
|           W    W    AA    RRRRR   N    N  II  N    N   GGGG   !!!           |
|           W    W   A  A   R    R  NN   N  II  NN   N  G    G  !!!           |
|           W    W  A    A  R    R  N N  N  II  N N  N  G       !!!           |
|           W WW W  AAAAAA  RRRRR   N  N N  II  N  N N  G  GGG   !            |
|           WW  WW  A    A  R   R   N   NN  II  N   NN  G    G                |
|           W    W  A    A  R    R  N    N  II  N    N   GGGG   !!!           |
|                                                                             |
|      The number of bands has been changed from the values supplied          |
|      in the INCAR file. This is a result of running the parallel version.   |
|      The orbitals not found in the WAVECAR file will be initialized with    |
|      random numbers, which is usually adequate. For correlated              |
|      calculations, however, you should redo the groundstate calculation.    |
|      I found NBANDS    =       12  now  NBANDS  =      18                   |
|                                                                             |
 ----------------------------------------------------------------------------- 



--------------------------------------------------------------------------------------------------------




 Dimension of arrays:
   k-points           NKPTS =    281   k-points in BZ     NKDIM =    281   number of bands    NBANDS=     18
   number of dos      NEDOS =    301   number of ions     NIONS =      2
   non local maximal  LDIM  =      5   non local SUM 2l+1 LMDIM =     13
   total plane-waves  NPLWV =   4096
   max r-space proj   IRMAX =      1   max aug-charges    IRDMAX=   9528
   dimension x,y,z NGX =    16 NGY =   16 NGZ =   16
   dimension x,y,z NGXF=    32 NGYF=   32 NGZF=   32
   support grid    NGXF=    32 NGYF=   32 NGZF=   32
   ions per type =               1   1
   NGX,Y,Z   is equivalent  to a cutoff of   8.94,  8.94,  8.94 a.u.
   NGXF,Y,Z  is equivalent  to a cutoff of  17.87, 17.87, 17.87 a.u.

 SYSTEM =  unknown system                          
 POSCAR =  Mg1 O1                                  

 Startparameter for this run:
   NWRITE =      2    write-flag & timer
   PREC   = n         normal or accurate (medium, high low for compatibility)
   ISTART =      1    job   : 0-new  1-cont  2-samecut
   ICHARG =      0    charge: 1-file 2-atom 10-const
   ISPIN  =      1    spin polarized calculation?
   LNONCOLLINEAR =      F non collinear calculations
   LSORBIT =      F    spin-orbit coupling
   INIWAV =      1    electr: 0-lowe 1-rand  2-diag
   LASPH  =      T    aspherical Exc in radial PAW
   METAGGA=      F    non-selfconsistent MetaGGA calc.

 Electronic Relaxation 1
   ENCUT  =  400.0 eV  29.40 Ry    5.42 a.u.   4.85  4.85  4.85*2*pi/ulx,y,z
   ENINI  =  400.0     initial cutoff
   ENAUG  =  605.4 eV  augmentation charge cutoff
   NELM   =    100;   NELMIN=  2; NELMDL=  0     # of ELM steps 
   EDIFF  = 0.1E-04   stopping-criterion for ELM
   LREAL  =      F    real-space projection
   NLSPLINE    = F    spline interpolate recip. space projectors
   LCOMPAT=      F    compatible to vasp.4.4
   GGA_COMPAT  = T    GGA compatible to vasp.4.4-vasp.4.6
   LMAXPAW     = -100 max onsite density
   LMAXMIX     =    2 max onsite mixed and CHGCAR
   VOSKOWN=      0    Vosko Wilk Nusair interpolation
   ROPT   =    0.00000   0.00000
 Ionic relaxation
   EDIFFG = 0.1E-03   stopping-criterion for IOM
   NSW    =      0    number of steps for IOM
   NBLOCK =      1;   KBLOCK =      1    inner block; outer block 
   IBRION =     -1    ionic relax: 0-MD 1-quasi-New 2-CG
   NFREE  =      1    steps in history (QN), initial steepest desc. (CG)
   ISIF   =      0    stress and relaxation
   IWAVPR =     10    prediction:  0-non 1-charg 2-wave 3-comb
   ISYM   =      2    0-nonsym 1-usesym 2-fastsym
   LCORR  =      T    Harris-Foulkes like correction to forces

   POTIM  = 0.5000    time-step for ionic-motion
   TEIN   =    0.0    initial temperature
   TEBEG  =    0.0;   TEEND  =   0.0 temperature during run
   SMASS  =  -3.00    Nose mass-parameter (am)
   estimated Nose-frequenzy (Omega)   =  0.10E-29 period in steps =****** mass=  -0.202E-27a.u.
   SCALEE = 1.0000    scale energy and forces
   NPACO  =    256;   APACO  = 16.0  distance and # of slots for P.C.
   PSTRESS=    0.0 pullay stress

  Mass of Ions in am
   POMASS =  24.30 16.00
  Ionic Valenz
   ZVAL   =   2.00  6.00
  Atomic Wigner-Seitz radii
   RWIGS  =  -1.00 -1.00
  virtual crystal weights 
   VCA    =   1.00  1.00
   NELECT =       8.0000    total number of electrons
   NUPDOWN=      -1.0000    fix difference up-down

 DOS related values:
   EMIN   =  10.00;   EMAX   =-10.00  energy-range for DOS
   EFERMI =   0.00
   ISMEAR =     0;   SIGMA  =   0.10  broadening in eV -4-tet -1-fermi 0-gaus

 Electronic relaxation 2 (details)
   IALGO  =     38    algorithm
   LDIAG  =      T    sub-space diagonalisation (order eigenvalues)
   LSUBROT=      F    optimize rotation matrix (better conditioning)
   TURBO    =      0    0=normal 1=particle mesh
   IRESTART =      0    0=no restart 2=restart with 2 vectors
   NREBOOT  =      0    no. of reboots
   NMIN     =      0    reboot dimension
   EREF     =   0.00    reference energy to select bands
   IMIX   =      4    mixing-type and parameters
     AMIX     =   0.40;   BMIX     =  1.00
     AMIX_MAG =   1.60;   BMIX_MAG =  1.00
     AMIN     =   0.10
     WC   =   100.;   INIMIX=   1;  MIXPRE=   1;  MAXMIX= -45

 Intra band minimization:
   WEIMIN = 0.0000     energy-eigenvalue tresh-hold
   EBREAK =  0.14E-06  absolut break condition
   DEPER  =   0.30     relativ break condition  

   TIME   =   0.40     timestep for ELM

  volume/ion in A,a.u.               =       9.33        62.93
  Fermi-wavevector in a.u.,A,eV,Ry     =   1.234650  2.333150 20.740184  1.524361
  Thomas-Fermi vector in A             =   2.369331
 
 Write flags
   LWAVE        =      T    write WAVECAR
   LDOWNSAMPLE  =      F    k-point downsampling of WAVECAR
   LCHARG       =      F    write CHGCAR
   LVTOT        =      F    write LOCPOT, total local potential
   LVHAR        =      F    write LOCPOT, Hartree potential only
   LELF         =      F    write electronic localiz. function (ELF)
   LORBIT       =     12    0 simple, 1 ext, 2 COOP (PROOUT), +10 PAW based schemes


 Dipole corrections
   LMONO  =      F    monopole corrections only (constant potential shift)
   LDIPOL =      F    correct potential (dipole corrections)
   IDIPOL =      0    1-x, 2-y, 3-z, 4-all directions 
   EPSILON=  1.0000000 bulk dielectric constant

 Exchange correlation treatment:
   GGA     =    PS    GGA type
   LEXCH   =    14    internal setting for exchange type
   VOSKOWN=      0    Vosko Wilk Nusair interpolation
   LHFCALC =     F    Hartree Fock is set to
   LHFONE  =     F    Hartree Fock one center treatment
   AEXX    =    0.0000 exact exchange contribution

 Linear response parameters
   LEPSILON=     F    determine dielectric tensor
   LRPA    =     F    only Hartree local field effects (RPA)
   LNABLA  =     F    use nabla operator in PAW spheres
   LVEL    =     F    velocity operator in full k-point grid
   LINTERFAST=   F  fast interpolation
   KINTER  =     0    interpolate to denser k-point grid
   CSHIFT  =0.1000    complex shift for real part using Kramers Kronig
   OMEGAMAX=  -1.0    maximum frequency
   DEG_THRESHOLD= 0.2000000E-02 threshold for treating states as degnerate
   RTIME   =   -0.100 relaxation time in fs
  (WPLASMAI=    0.000 imaginary part of plasma frequency in eV, 0.658/RTIME)
   DFIELD  = 0.0000000 0.0000000 0.0000000 field for delta impulse in time
 
 Orbital magnetization related:
   ORBITALMAG=     F  switch on orbital magnetization
   LCHIMAG   =     F  perturbation theory with respect to B field
   DQ        =  0.001000  dq finite difference perturbation B field
   LLRAUG    =     F  two centre corrections for induced B field



--------------------------------------------------------------------------------------------------------


 Static calculation
 charge density and potential will be updated during run
 non-spin polarized calculation
 Variant of blocked Davidson
 Davidson routine will perform the subspace rotation
 perform sub-space diagonalisation
    after iterative eigenvector-optimisation
 modified Broyden-mixing scheme, WC =      100.0
 initial mixing is a Kerker type mixing with AMIX =  0.4000 and BMIX =      1.0000
 Hartree-type preconditioning will be used
 using additional bands           14
 reciprocal scheme for non local part
 use partial core corrections
 calculate Harris-corrections to forces 
   (improved forces if not selfconsistent)
 use gradient corrections 
 use of overlap-Matrix (Vanderbilt PP)
 Gauss-broadening in eV      SIGMA  =   0.10


--------------------------------------------------------------------------------------------------------


  energy-cutoff  :      400.00
  volume of cell :       18.65
      direct lattice vectors                 reciprocal lattice vectors
     0.000000000  2.104833000  2.104833000    -0.237548537  0.237548537  0.237548537
     2.104833000  0.000000000  2.104833000     0.237548537 -0.237548537  0.237548537
     2.104833000  2.104833000  0.000000000     0.237548537  0.237548537 -0.237548537

  length of vectors
     2.976683375  2.976683375  2.976683375     0.411446136  0.411446136  0.411446136


 
 old parameters found on file WAVECAR:
  energy-cutoff  :      520.00
  volume of cell :       18.65
      direct lattice vectors                 reciprocal lattice vectors
     0.000000000  2.104833000  2.104833000    -0.237548537  0.237548537  0.237548537
     2.104833000  0.000000000  2.104833000     0.237548537 -0.237548537  0.237548537
     2.104833000  2.104833000  0.000000000     0.237548537  0.237548537 -0.237548537

  length of vectors

 
 k-points in units of 2pi/SCALE and weight: Generated by vise. Mode: band, kpt densi
   0.00000000  0.00000000  0.00000000       0.003
  -0.03393551  0.03393551  0.03393551       0.023
  -0.06787101  0.06787101  0.06787101       0.023
  -0.10180652  0.10180652  0.10180652       0.023
   0.00000000  0.00000000  0.06787101       0.017
  -0.03393551  0.03393551  0.10180652       0.070
  -0.06787101  0.06787101  0.13574202       0.070
   0.13574202 -0.13574202 -0.06787101       0.070
   0.10180652 -0.10180652 -0.03393551       0.070
   0.06787101 -0.06787101  0.00000000       0.035
   0.00000000  0.00000000  0.13574202       0.017
  -0.03393551  0.03393551  0.16967753       0.070
   0.16967753 -0.16967753 -0.03393551       0.070
   0.13574202 -0.13574202  0.00000000       0.035
   0.00000000  0.00000000  0.20361303       0.017
   0.20361303 -0.20361303  0.00000000       0.035
  -0.00000000  0.06787101  0.13574202       0.070
   0.20361303 -0.13574202 -0.06787101       0.140
   0.23754854 -0.16967753 -0.03393551       0.070
   0.20361303 -0.13574202  0.00000000       0.070
   0.00000000  0.00000000  0.00000000       0.000
   0.00000000  0.00409566  0.00000000       0.000
   0.00000000  0.00819133  0.00000000       0.000
   0.00000000  0.01228699  0.00000000       0.000
   0.00000000  0.01638266  0.00000000       0.000
   0.00000000  0.02047832  0.00000000       0.000
   0.00000000  0.02457399  0.00000000       0.000
   0.00000000  0.02866965  0.00000000       0.000
   0.00000000  0.03276532  0.00000000       0.000
   0.00000000  0.03686098  0.00000000       0.000
   0.00000000  0.04095664  0.00000000       0.000
   0.00000000  0.04505231  0.00000000       0.000
   0.00000000  0.04914797  0.00000000       0.000
   0.00000000  0.05324364  0.00000000       0.000
   0.00000000  0.05733930  0.00000000       0.000
   0.00000000  0.06143497  0.00000000       0.000
   0.00000000  0.06553063  0.00000000       0.000
   0.00000000  0.06962630  0.00000000       0.000
   0.00000000  0.07372196  0.00000000       0.000
   0.00000000  0.07781762  0.00000000       0.000
   0.00000000  0.08191329  0.00000000       0.000
   0.00000000  0.08600895  0.00000000       0.000
   0.00000000  0.09010462  0.00000000       0.000
   0.00000000  0.09420028  0.00000000       0.000
   0.00000000  0.09829595  0.00000000       0.000
   0.00000000  0.10239161  0.00000000       0.000
   0.00000000  0.10648728  0.00000000       0.000
   0.00000000  0.11058294  0.00000000       0.000
   0.00000000  0.11467860  0.00000000       0.000
   0.00000000  0.11877427  0.00000000       0.000
   0.00000000  0.12286993  0.00000000       0.000
   0.00000000  0.12696560  0.00000000       0.000
   0.00000000  0.13106126  0.00000000       0.000
   0.00000000  0.13515693  0.00000000       0.000
   0.00000000  0.13925259  0.00000000       0.000
   0.00000000  0.14334826  0.00000000       0.000
   0.00000000  0.14744392  0.00000000       0.000
   0.00000000  0.15153958  0.00000000       0.000
   0.00000000  0.15563525  0.00000000       0.000
   0.00000000  0.15973091  0.00000000       0.000
   0.00000000  0.16382658  0.00000000       0.000
   0.00000000  0.16792224  0.00000000       0.000
   0.00000000  0.17201791  0.00000000       0.000
   0.00000000  0.17611357  0.00000000       0.000
   0.00000000  0.18020924  0.00000000       0.000
   0.00000000  0.18430490  0.00000000       0.000
   0.00000000  0.18840056  0.00000000       0.000
   0.00000000  0.19249623  0.00000000       0.000
   0.00000000  0.19659189  0.00000000       0.000
   0.00000000  0.20068756  0.00000000       0.000
   0.00000000  0.20478322  0.00000000       0.000
   0.00000000  0.20887889  0.00000000       0.000
   0.00000000  0.21297455  0.00000000       0.000
   0.00000000  0.21707021  0.00000000       0.000
   0.00000000  0.22116588  0.00000000       0.000
   0.00000000  0.22526154  0.00000000       0.000
   0.00000000  0.22935721  0.00000000       0.000
   0.00000000  0.23345287  0.00000000       0.000
   0.00000000  0.23754854  0.00000000       0.000
   0.00296936  0.23754854  0.00296936       0.000
   0.00593871  0.23754854  0.00593871       0.000
   0.00890807  0.23754854  0.00890807       0.000
   0.01187743  0.23754854  0.01187743       0.000
   0.01484678  0.23754854  0.01484678       0.000
   0.01781614  0.23754854  0.01781614       0.000
   0.02078550  0.23754854  0.02078550       0.000
   0.02375485  0.23754854  0.02375485       0.000
   0.02672421  0.23754854  0.02672421       0.000
   0.02969357  0.23754854  0.02969357       0.000
   0.03266292  0.23754854  0.03266292       0.000
   0.03563228  0.23754854  0.03563228       0.000
   0.03860164  0.23754854  0.03860164       0.000
   0.04157099  0.23754854  0.04157099       0.000
   0.04454035  0.23754854  0.04454035       0.000
   0.04750971  0.23754854  0.04750971       0.000
   0.05047906  0.23754854  0.05047906       0.000
   0.05344842  0.23754854  0.05344842       0.000
   0.05641778  0.23754854  0.05641778       0.000
   0.05938713  0.23754854  0.05938713       0.000
   0.17816140  0.17816140  0.00000000       0.000
   0.17528783  0.17528783  0.00000000       0.000
   0.17241426  0.17241426  0.00000000       0.000
   0.16954069  0.16954069  0.00000000       0.000
   0.16666712  0.16666712  0.00000000       0.000
   0.16379355  0.16379355  0.00000000       0.000
   0.16091998  0.16091998  0.00000000       0.000
   0.15804641  0.15804641  0.00000000       0.000
   0.15517283  0.15517283  0.00000000       0.000
   0.15229926  0.15229926  0.00000000       0.000
   0.14942569  0.14942569  0.00000000       0.000
   0.14655212  0.14655212  0.00000000       0.000
   0.14367855  0.14367855  0.00000000       0.000
   0.14080498  0.14080498  0.00000000       0.000
   0.13793141  0.13793141  0.00000000       0.000
   0.13505784  0.13505784  0.00000000       0.000
   0.13218427  0.13218427  0.00000000       0.000
   0.12931070  0.12931070  0.00000000       0.000
   0.12643712  0.12643712  0.00000000       0.000
   0.12356355  0.12356355  0.00000000       0.000
   0.12068998  0.12068998  0.00000000       0.000
   0.11781641  0.11781641  0.00000000       0.000
   0.11494284  0.11494284  0.00000000       0.000
   0.11206927  0.11206927  0.00000000       0.000
   0.10919570  0.10919570  0.00000000       0.000
   0.10632213  0.10632213  0.00000000       0.000
   0.10344856  0.10344856  0.00000000       0.000
   0.10057499  0.10057499  0.00000000       0.000
   0.09770141  0.09770141  0.00000000       0.000
   0.09482784  0.09482784  0.00000000       0.000
   0.09195427  0.09195427  0.00000000       0.000
   0.08908070  0.08908070  0.00000000       0.000
   0.08620713  0.08620713  0.00000000       0.000
   0.08333356  0.08333356  0.00000000       0.000
   0.08045999  0.08045999  0.00000000       0.000
   0.07758642  0.07758642  0.00000000       0.000
   0.07471285  0.07471285  0.00000000       0.000
   0.07183928  0.07183928  0.00000000       0.000
   0.06896570  0.06896570  0.00000000       0.000
   0.06609213  0.06609213  0.00000000       0.000
   0.06321856  0.06321856  0.00000000       0.000
   0.06034499  0.06034499  0.00000000       0.000
   0.05747142  0.05747142  0.00000000       0.000
   0.05459785  0.05459785  0.00000000       0.000
   0.05172428  0.05172428  0.00000000       0.000
   0.04885071  0.04885071  0.00000000       0.000
   0.04597714  0.04597714  0.00000000       0.000
   0.04310357  0.04310357  0.00000000       0.000
   0.04022999  0.04022999  0.00000000       0.000
   0.03735642  0.03735642  0.00000000       0.000
   0.03448285  0.03448285  0.00000000       0.000
   0.03160928  0.03160928  0.00000000       0.000
   0.02873571  0.02873571  0.00000000       0.000
   0.02586214  0.02586214  0.00000000       0.000
   0.02298857  0.02298857  0.00000000       0.000
   0.02011500  0.02011500  0.00000000       0.000
   0.01724143  0.01724143  0.00000000       0.000
   0.01436786  0.01436786  0.00000000       0.000
   0.01149428  0.01149428  0.00000000       0.000
   0.00862071  0.00862071  0.00000000       0.000
   0.00574714  0.00574714  0.00000000       0.000
   0.00287357  0.00287357  0.00000000       0.000
   0.00000000  0.00000000  0.00000000       0.000
   0.00237549  0.00237549  0.00237549       0.000
   0.00475097  0.00475097  0.00475097       0.000
   0.00712646  0.00712646  0.00712646       0.000
   0.00950194  0.00950194  0.00950194       0.000
   0.01187743  0.01187743  0.01187743       0.000
   0.01425291  0.01425291  0.01425291       0.000
   0.01662840  0.01662840  0.01662840       0.000
   0.01900388  0.01900388  0.01900388       0.000
   0.02137937  0.02137937  0.02137937       0.000
   0.02375485  0.02375485  0.02375485       0.000
   0.02613034  0.02613034  0.02613034       0.000
   0.02850582  0.02850582  0.02850582       0.000
   0.03088131  0.03088131  0.03088131       0.000
   0.03325680  0.03325680  0.03325680       0.000
   0.03563228  0.03563228  0.03563228       0.000
   0.03800777  0.03800777  0.03800777       0.000
   0.04038325  0.04038325  0.04038325       0.000
   0.04275874  0.04275874  0.04275874       0.000
   0.04513422  0.04513422  0.04513422       0.000
   0.04750971  0.04750971  0.04750971       0.000
   0.04988519  0.04988519  0.04988519       0.000
   0.05226068  0.05226068  0.05226068       0.000
   0.05463616  0.05463616  0.05463616       0.000
   0.05701165  0.05701165  0.05701165       0.000
   0.05938713  0.05938713  0.05938713       0.000
   0.06176262  0.06176262  0.06176262       0.000
   0.06413811  0.06413811  0.06413811       0.000
   0.06651359  0.06651359  0.06651359       0.000
   0.06888908  0.06888908  0.06888908       0.000
   0.07126456  0.07126456  0.07126456       0.000
   0.07364005  0.07364005  0.07364005       0.000
   0.07601553  0.07601553  0.07601553       0.000
   0.07839102  0.07839102  0.07839102       0.000
   0.08076650  0.08076650  0.08076650       0.000
   0.08314199  0.08314199  0.08314199       0.000
   0.08551747  0.08551747  0.08551747       0.000
   0.08789296  0.08789296  0.08789296       0.000
   0.09026844  0.09026844  0.09026844       0.000
   0.09264393  0.09264393  0.09264393       0.000
   0.09501941  0.09501941  0.09501941       0.000
   0.09739490  0.09739490  0.09739490       0.000
   0.09977039  0.09977039  0.09977039       0.000
   0.10214587  0.10214587  0.10214587       0.000
   0.10452136  0.10452136  0.10452136       0.000
   0.10689684  0.10689684  0.10689684       0.000
   0.10927233  0.10927233  0.10927233       0.000
   0.11164781  0.11164781  0.11164781       0.000
   0.11402330  0.11402330  0.11402330       0.000
   0.11639878  0.11639878  0.11639878       0.000
   0.11877427  0.11877427  0.11877427       0.000
   0.11877427  0.12167120  0.11587734       0.000
   0.11877427  0.12456814  0.11298040       0.000
   0.11877427  0.12746507  0.11008347       0.000
   0.11877427  0.13036200  0.10718654       0.000
   0.11877427  0.13325894  0.10428960       0.000
   0.11877427  0.13615587  0.10139267       0.000
   0.11877427  0.13905280  0.09849573       0.000
   0.11877427  0.14194974  0.09559880       0.000
   0.11877427  0.14484667  0.09270187       0.000
   0.11877427  0.14774360  0.08980493       0.000
   0.11877427  0.15064054  0.08690800       0.000
   0.11877427  0.15353747  0.08401107       0.000
   0.11877427  0.15643440  0.08111413       0.000
   0.11877427  0.15933134  0.07821720       0.000
   0.11877427  0.16222827  0.07532027       0.000
   0.11877427  0.16512520  0.07242333       0.000
   0.11877427  0.16802214  0.06952640       0.000
   0.11877427  0.17091907  0.06662947       0.000
   0.11877427  0.17381600  0.06373253       0.000
   0.11877427  0.17671294  0.06083560       0.000
   0.11877427  0.17960987  0.05793867       0.000
   0.11877427  0.18250680  0.05504173       0.000
   0.11877427  0.18540374  0.05214480       0.000
   0.11877427  0.18830067  0.04924787       0.000
   0.11877427  0.19119760  0.04635093       0.000
   0.11877427  0.19409454  0.04345400       0.000
   0.11877427  0.19699147  0.04055707       0.000
   0.11877427  0.19988840  0.03766013       0.000
   0.11877427  0.20278534  0.03476320       0.000
   0.11877427  0.20568227  0.03186627       0.000
   0.11877427  0.20857920  0.02896933       0.000
   0.11877427  0.21147614  0.02607240       0.000
   0.11877427  0.21437307  0.02317547       0.000
   0.11877427  0.21727000  0.02027853       0.000
   0.11877427  0.22016694  0.01738160       0.000
   0.11877427  0.22306387  0.01448467       0.000
   0.11877427  0.22596080  0.01158773       0.000
   0.11877427  0.22885774  0.00869080       0.000
   0.11877427  0.23175467  0.00579387       0.000
   0.11877427  0.23465160  0.00289693       0.000
   0.11877427  0.23754854  0.00000000       0.000
   0.11453233  0.23754854  0.00000000       0.000
   0.11029039  0.23754854  0.00000000       0.000
   0.10604845  0.23754854  0.00000000       0.000
   0.10180652  0.23754854  0.00000000       0.000
   0.09756458  0.23754854 -0.00000000       0.000
   0.09332264  0.23754854  0.00000000       0.000
   0.08908070  0.23754854  0.00000000       0.000
   0.08483876  0.23754854 -0.00000000       0.000
   0.08059683  0.23754854  0.00000000       0.000
   0.07635489  0.23754854  0.00000000       0.000
   0.07211295  0.23754854 -0.00000000       0.000
   0.06787101  0.23754854 -0.00000000       0.000
   0.06362907  0.23754854  0.00000000       0.000
   0.05938713  0.23754854  0.00000000       0.000
   0.05514520  0.23754854  0.00000000       0.000
   0.05090326  0.23754854  0.00000000       0.000
   0.04666132  0.23754854  0.00000000       0.000
   0.04241938  0.23754854  0.00000000       0.000
   0.03817744  0.23754854  0.00000000       0.000
   0.03393551  0.23754854  0.00000000       0.000
   0.02969357  0.23754854  0.00000000       0.000
   0.02545163  0.23754854  0.00000000       0.000
   0.02120969  0.23754854  0.00000000       0.000
   0.01696775  0.23754854  0.00000000       0.000
   0.01272581  0.23754854  0.00000000       0.000
   0.00848388  0.23754854  0.00000000       0.000
   0.00424194  0.23754854  0.00000000       0.000
   0.00000000  0.23754854  0.00000000       0.000
 
 k-points in reciprocal lattice and weights: Generated by vise. Mode: band, kpt densi
   0.00000000  0.00000000  0.00000000       0.003
   0.14285714  0.00000000  0.00000000       0.023
   0.28571429  0.00000000  0.00000000       0.023
   0.42857143  0.00000000  0.00000000       0.023
   0.14285714  0.14285714  0.00000000       0.017
   0.28571429  0.14285714  0.00000000       0.070
   0.42857143  0.14285714  0.00000000       0.070
  -0.42857143  0.14285714  0.00000000       0.070
  -0.28571429  0.14285714  0.00000000       0.070
  -0.14285714  0.14285714  0.00000000       0.035
   0.28571429  0.28571429  0.00000000       0.017
   0.42857143  0.28571429  0.00000000       0.070
  -0.42857143  0.28571429  0.00000000       0.070
  -0.28571429  0.28571429  0.00000000       0.035
   0.42857143  0.42857143  0.00000000       0.017
  -0.42857143  0.42857143  0.00000000       0.035
   0.42857143  0.28571429  0.14285714       0.070
  -0.42857143  0.28571429  0.14285714       0.140
  -0.42857143  0.42857143  0.14285714       0.070
  -0.28571429  0.42857143  0.14285714       0.070
   0.00000000  0.00000000  0.00000000       0.000
   0.00862069  0.00000000  0.00862069       0.000
   0.01724138  0.00000000  0.01724138       0.000
   0.02586207  0.00000000  0.02586207       0.000
   0.03448276  0.00000000  0.03448276       0.000
   0.04310345  0.00000000  0.04310345       0.000
   0.05172414  0.00000000  0.05172414       0.000
   0.06034483  0.00000000  0.06034483       0.000
   0.06896552  0.00000000  0.06896552       0.000
   0.07758621  0.00000000  0.07758621       0.000
   0.08620690  0.00000000  0.08620690       0.000
   0.09482759  0.00000000  0.09482759       0.000
   0.10344828  0.00000000  0.10344828       0.000
   0.11206897  0.00000000  0.11206897       0.000
   0.12068966  0.00000000  0.12068966       0.000
   0.12931034  0.00000000  0.12931034       0.000
   0.13793103  0.00000000  0.13793103       0.000
   0.14655172  0.00000000  0.14655172       0.000
   0.15517241  0.00000000  0.15517241       0.000
   0.16379310  0.00000000  0.16379310       0.000
   0.17241379  0.00000000  0.17241379       0.000
   0.18103448  0.00000000  0.18103448       0.000
   0.18965517  0.00000000  0.18965517       0.000
   0.19827586  0.00000000  0.19827586       0.000
   0.20689655  0.00000000  0.20689655       0.000
   0.21551724  0.00000000  0.21551724       0.000
   0.22413793  0.00000000  0.22413793       0.000
   0.23275862  0.00000000  0.23275862       0.000
   0.24137931  0.00000000  0.24137931       0.000
   0.25000000  0.00000000  0.25000000       0.000
   0.25862069  0.00000000  0.25862069       0.000
   0.26724138  0.00000000  0.26724138       0.000
   0.27586207  0.00000000  0.27586207       0.000
   0.28448276  0.00000000  0.28448276       0.000
   0.29310345  0.00000000  0.29310345       0.000
   0.30172414  0.00000000  0.30172414       0.000
   0.31034483  0.00000000  0.31034483       0.000
   0.31896552  0.00000000  0.31896552       0.000
   0.32758621  0.00000000  0.32758621       0.000
   0.33620690  0.00000000  0.33620690       0.000
   0.34482759  0.00000000  0.34482759       0.000
   0.35344828  0.00000000  0.35344828       0.000
   0.36206897  0.00000000  0.36206897       0.000
   0.37068966  0.00000000  0.37068966       0.000
   0.37931034  0.00000000  0.37931034       0.000
   0.38793103  0.00000000  0.38793103       0.000
   0.39655172  0.00000000  0.39655172       0.000
   0.40517241  0.00000000  0.40517241       0.000
   0.41379310  0.00000000  0.41379310       0.000
   0.42241379  0.00000000  0.42241379       0.000
   0.43103448  0.00000000  0.43103448       0.000
   0.43965517  0.00000000  0.43965517       0.000
   0.44827586  0.00000000  0.44827586       0.000
   0.45689655  0.00000000  0.45689655       0.000
   0.46551724  0.00000000  0.46551724       0.000
   0.47413793  0.00000000  0.47413793       0.000
   0.48275862  0.00000000  0.48275862       0.000
   0.49137931  0.00000000  0.49137931       0.000
   0.50000000  0.00000000  0.50000000       0.000
   0.50625000  0.01250000  0.50625000       0.000
   0.51250000  0.02500000  0.51250000       0.000
   0.51875000  0.03750000  0.51875000       0.000
   0.52500000  0.05000000  0.52500000       0.000
   0.53125000  0.06250000  0.53125000       0.000
   0.53750000  0.07500000  0.53750000       0.000
   0.54375000  0.08750000  0.54375000       0.000
   0.55000000  0.10000000  0.55000000       0.000
   0.55625000  0.11250000  0.55625000       0.000
   0.56250000  0.12500000  0.56250000       0.000
   0.56875000  0.13750000  0.56875000       0.000
   0.57500000  0.15000000  0.57500000       0.000
   0.58125000  0.16250000  0.58125000       0.000
   0.58750000  0.17500000  0.58750000       0.000
   0.59375000  0.18750000  0.59375000       0.000
   0.60000000  0.20000000  0.60000000       0.000
   0.60625000  0.21250000  0.60625000       0.000
   0.61250000  0.22500000  0.61250000       0.000
   0.61875000  0.23750000  0.61875000       0.000
   0.62500000  0.25000000  0.62500000       0.000
   0.37500000  0.37500000  0.75000000       0.000
   0.36895161  0.36895161  0.73790323       0.000
   0.36290323  0.36290323  0.72580645       0.000
   0.35685484  0.35685484  0.71370968       0.000
   0.35080645  0.35080645  0.70161290       0.000
   0.34475806  0.34475806  0.68951613       0.000
   0.33870968  0.33870968  0.67741935       0.000
   0.33266129  0.33266129  0.66532258       0.000
   0.32661290  0.32661290  0.65322581       0.000
   0.32056452  0.32056452  0.64112903       0.000
   0.31451613  0.31451613  0.62903226       0.000
   0.30846774  0.30846774  0.61693548       0.000
   0.30241935  0.30241935  0.60483871       0.000
   0.29637097  0.29637097  0.59274194       0.000
   0.29032258  0.29032258  0.58064516       0.000
   0.28427419  0.28427419  0.56854839       0.000
   0.27822581  0.27822581  0.55645161       0.000
   0.27217742  0.27217742  0.54435484       0.000
   0.26612903  0.26612903  0.53225806       0.000
   0.26008065  0.26008065  0.52016129       0.000
   0.25403226  0.25403226  0.50806452       0.000
   0.24798387  0.24798387  0.49596774       0.000
   0.24193548  0.24193548  0.48387097       0.000
   0.23588710  0.23588710  0.47177419       0.000
   0.22983871  0.22983871  0.45967742       0.000
   0.22379032  0.22379032  0.44758065       0.000
   0.21774194  0.21774194  0.43548387       0.000
   0.21169355  0.21169355  0.42338710       0.000
   0.20564516  0.20564516  0.41129032       0.000
   0.19959677  0.19959677  0.39919355       0.000
   0.19354839  0.19354839  0.38709677       0.000
   0.18750000  0.18750000  0.37500000       0.000
   0.18145161  0.18145161  0.36290323       0.000
   0.17540323  0.17540323  0.35080645       0.000
   0.16935484  0.16935484  0.33870968       0.000
   0.16330645  0.16330645  0.32661290       0.000
   0.15725806  0.15725806  0.31451613       0.000
   0.15120968  0.15120968  0.30241935       0.000
   0.14516129  0.14516129  0.29032258       0.000
   0.13911290  0.13911290  0.27822581       0.000
   0.13306452  0.13306452  0.26612903       0.000
   0.12701613  0.12701613  0.25403226       0.000
   0.12096774  0.12096774  0.24193548       0.000
   0.11491935  0.11491935  0.22983871       0.000
   0.10887097  0.10887097  0.21774194       0.000
   0.10282258  0.10282258  0.20564516       0.000
   0.09677419  0.09677419  0.19354839       0.000
   0.09072581  0.09072581  0.18145161       0.000
   0.08467742  0.08467742  0.16935484       0.000
   0.07862903  0.07862903  0.15725806       0.000
   0.07258065  0.07258065  0.14516129       0.000
   0.06653226  0.06653226  0.13306452       0.000
   0.06048387  0.06048387  0.12096774       0.000
   0.05443548  0.05443548  0.10887097       0.000
   0.04838710  0.04838710  0.09677419       0.000
   0.04233871  0.04233871  0.08467742       0.000
   0.03629032  0.03629032  0.07258065       0.000
   0.03024194  0.03024194  0.06048387       0.000
   0.02419355  0.02419355  0.04838710       0.000
   0.01814516  0.01814516  0.03629032       0.000
   0.01209677  0.01209677  0.02419355       0.000
   0.00604839  0.00604839  0.01209677       0.000
   0.00000000  0.00000000  0.00000000       0.000
   0.01000000  0.01000000  0.01000000       0.000
   0.02000000  0.02000000  0.02000000       0.000
   0.03000000  0.03000000  0.03000000       0.000
   0.04000000  0.04000000  0.04000000       0.000
   0.05000000  0.05000000  0.05000000       0.000
   0.06000000  0.06000000  0.06000000       0.000
   0.07000000  0.07000000  0.07000000       0.000
   0.08000000  0.08000000  0.08000000       0.000
   0.09000000  0.09000000  0.09000000       0.000
   0.10000000  0.10000000  0.10000000       0.000
   0.11000000  0.11000000  0.11000000       0.000
   0.12000000  0.12000000  0.12000000       0.000
   0.13000000  0.13000000  0.13000000       0.000
   0.14000000  0.14000000  0.14000000       0.000
   0.15000000  0.15000000  0.15000000       0.000
   0.16000000  0.16000000  0.16000000       0.000
   0.17000000  0.17000000  0.17000000       0.000
   0.18000000  0.18000000  0.18000000       0.000
   0.19000000  0.19000000  0.19000000       0.000
   0.20000000  0.20000000  0.20000000       0.000
   0.21000000  0.21000000  0.21000000       0.000
   0.22000000  0.22000000  0.22000000       0.000
   0.23000000  0.23000000  0.23000000       0.000
   0.24000000  0.24000000  0.24000000       0.000
   0.25000000  0.25000000  0.25000000       0.000
   0.26000000  0.26000000  0.26000000       0.000
   0.27000000  0.27000000  0.27000000       0.000
   0.28000000  0.28000000  0.28000000       0.000
   0.29000000  0.29000000  0.29000000       0.000
   0.30000000  0.30000000  0.30000000       0.000
   0.31000000  0.31000000  0.31000000       0.000
   0.32000000  0.32000000  0.32000000       0.000
   0.33000000  0.33000000  0.33000000       0.000
   0.34000000  0.34000000  0.34000000       0.000
   0.35000000  0.35000000  0.35000000       0.000
   0.36000000  0.36000000  0.36000000       0.000
   0.37000000  0.37000000  0.37000000       0.000
   0.38000000  0.38000000  0.38000000       0.000
   0.39000000  0.39000000  0.39000000       0.000
   0.40000000  0.40000000  0.40000000       0.000
   0.41000000  0.41000000  0.41000000       0.000
   0.42000000  0.42000000  0.42000000       0.000
   0.43000000  0.43000000  0.43000000       0.000
   0.44000000  0.44000000  0.44000000       0.000
   0.45000000  0.45000000  0.45000000       0.000
   0.46000000  0.46000000  0.46000000       0.000
   0.47000000  0.47000000  0.47000000       0.000
   0.48000000  0.48000000  0.48000000       0.000
   0.49000000  0.49000000  0.49000000       0.000
   0.50000000  0.50000000  0.50000000       0.000
   0.50000000  0.49390244  0.50609756       0.000
   0.50000000  0.48780488  0.51219512       0.000
   0.50000000  0.48170732  0.51829268       0.000
   0.50000000  0.47560976  0.52439024       0.000
   0.50000000  0.46951220  0.53048780       0.000
   0.50000000  0.46341463  0.53658537       0.000
   0.50000000  0.45731707  0.54268293       0.000
   0.50000000  0.45121951  0.54878049       0.000
   0.50000000  0.44512195  0.55487805       0.000
   0.50000000  0.43902439  0.56097561       0.000
   0.50000000  0.43292683  0.56707317       0.000
   0.50000000  0.42682927  0.57317073       0.000
   0.50000000  0.42073171  0.57926829       0.000
   0.50000000  0.41463415  0.58536585       0.000
   0.50000000  0.40853659  0.59146341       0.000
   0.50000000  0.40243902  0.59756098       0.000
   0.50000000  0.39634146  0.60365854       0.000
   0.50000000  0.39024390  0.60975610       0.000
   0.50000000  0.38414634  0.61585366       0.000
   0.50000000  0.37804878  0.62195122       0.000
   0.50000000  0.37195122  0.62804878       0.000
   0.50000000  0.36585366  0.63414634       0.000
   0.50000000  0.35975610  0.64024390       0.000
   0.50000000  0.35365854  0.64634146       0.000
   0.50000000  0.34756098  0.65243902       0.000
   0.50000000  0.34146341  0.65853659       0.000
   0.50000000  0.33536585  0.66463415       0.000
   0.50000000  0.32926829  0.67073171       0.000
   0.50000000  0.32317073  0.67682927       0.000
   0.50000000  0.31707317  0.68292683       0.000
   0.50000000  0.31097561  0.68902439       0.000
   0.50000000  0.30487805  0.69512195       0.000
   0.50000000  0.29878049  0.70121951       0.000
   0.50000000  0.29268293  0.70731707       0.000
   0.50000000  0.28658537  0.71341463       0.000
   0.50000000  0.28048780  0.71951220       0.000
   0.50000000  0.27439024  0.72560976       0.000
   0.50000000  0.26829268  0.73170732       0.000
   0.50000000  0.26219512  0.73780488       0.000
   0.50000000  0.25609756  0.74390244       0.000
   0.50000000  0.25000000  0.75000000       0.000
   0.50000000  0.24107143  0.74107143       0.000
   0.50000000  0.23214286  0.73214286       0.000
   0.50000000  0.22321429  0.72321429       0.000
   0.50000000  0.21428571  0.71428571       0.000
   0.50000000  0.20535714  0.70535714       0.000
   0.50000000  0.19642857  0.69642857       0.000
   0.50000000  0.18750000  0.68750000       0.000
   0.50000000  0.17857143  0.67857143       0.000
   0.50000000  0.16964286  0.66964286       0.000
   0.50000000  0.16071429  0.66071429       0.000
   0.50000000  0.15178571  0.65178571       0.000
   0.50000000  0.14285714  0.64285714       0.000
   0.50000000  0.13392857  0.63392857       0.000
   0.50000000  0.12500000  0.62500000       0.000
   0.50000000  0.11607143  0.61607143       0.000
   0.50000000  0.10714286  0.60714286       0.000
   0.50000000  0.09821429  0.59821429       0.000
   0.50000000  0.08928571  0.58928571       0.000
   0.50000000  0.08035714  0.58035714       0.000
   0.50000000  0.07142857  0.57142857       0.000
   0.50000000  0.06250000  0.56250000       0.000
   0.50000000  0.05357143  0.55357143       0.000
   0.50000000  0.04464286  0.54464286       0.000
   0.50000000  0.03571429  0.53571429       0.000
   0.50000000  0.02678571  0.52678571       0.000
   0.50000000  0.01785714  0.51785714       0.000
   0.50000000  0.00892857  0.50892857       0.000
   0.50000000  0.00000000  0.50000000       0.000
 
 position of ions in fractional coordinates (direct lattice) 
   0.00000000  0.00000000  0.00000000
   0.50000000  0.50000000  0.50000000
 
 position of ions in cartesian coordinates  (Angst):
   0.00000000  0.00000000  0.00000000
   2.10483300  2.10483300  2.10483300
 


--------------------------------------------------------------------------------------------------------


 k-point  1 :   0.0000 0.0000 0.0000  plane waves:     331
 k-point  2 :   0.1429 0.0000 0.0000  plane waves:     335
 k-point  3 :   0.2857 0.0000 0.0000  plane waves:     338
 k-point  4 :   0.4286 0.0000 0.0000  plane waves:     338
 k-point  5 :   0.1429 0.1429 0.0000  plane waves:     335
 k-point  6 :   0.2857 0.1429 0.0000  plane waves:     336
 k-point  7 :   0.4286 0.1429 0.0000  plane waves:     339
 k-point  8 :  -0.4286 0.1429 0.0000  plane waves:     342
 k-point  9 :  -0.2857 0.1429 0.0000  plane waves:     335
 k-point 10 :  -0.1429 0.1429 0.0000  plane waves:     333
 k-point 11 :   0.2857 0.2857 0.0000  plane waves:     339
 k-point 12 :   0.4286 0.2857 0.0000  plane waves:     333
 k-point 13 :  -0.4286 0.2857 0.0000  plane waves:     343
 k-point 14 :  -0.2857 0.2857 0.0000  plane waves:     339
 k-point 15 :   0.4286 0.4286 0.0000  plane waves:     335
 k-point 16 :  -0.4286 0.4286 0.0000  plane waves:     342
 k-point 17 :   0.4286 0.2857 0.1429  plane waves:     332
 k-point 18 :  -0.4286 0.2857 0.1429  plane waves:     337
 k-point 19 :  -0.4286 0.4286 0.1429  plane waves:     341
 k-point 20 :  -0.2857 0.4286 0.1429  plane waves:     345
 k-point 21 :   0.0000 0.0000 0.0000  plane waves:     331
 k-point 22 :   0.0086 0.0000 0.0086  plane waves:     331
 k-point 23 :   0.0172 0.0000 0.0172  plane waves:     331
 k-point 24 :   0.0259 0.0000 0.0259  plane waves:     331
 k-point 25 :   0.0345 0.0000 0.0345  plane waves:     331
 k-point 26 :   0.0431 0.0000 0.0431  plane waves:     331
 k-point 27 :   0.0517 0.0000 0.0517  plane waves:     331
 k-point 28 :   0.0603 0.0000 0.0603  plane waves:     335
 k-point 29 :   0.0690 0.0000 0.0690  plane waves:     335
 k-point 30 :   0.0776 0.0000 0.0776  plane waves:     335
 k-point 31 :   0.0862 0.0000 0.0862  plane waves:     335
 k-point 32 :   0.0948 0.0000 0.0948  plane waves:     335
 k-point 33 :   0.1034 0.0000 0.1034  plane waves:     335
 k-point 34 :   0.1121 0.0000 0.1121  plane waves:     335
 k-point 35 :   0.1207 0.0000 0.1207  plane waves:     335
 k-point 36 :   0.1293 0.0000 0.1293  plane waves:     331
 k-point 37 :   0.1379 0.0000 0.1379  plane waves:     331
 k-point 38 :   0.1466 0.0000 0.1466  plane waves:     335
 k-point 39 :   0.1552 0.0000 0.1552  plane waves:     335
 k-point 40 :   0.1638 0.0000 0.1638  plane waves:     335
 k-point 41 :   0.1724 0.0000 0.1724  plane waves:     335
 k-point 42 :   0.1810 0.0000 0.1810  plane waves:     335
 k-point 43 :   0.1897 0.0000 0.1897  plane waves:     335
 k-point 44 :   0.1983 0.0000 0.1983  plane waves:     335
 k-point 45 :   0.2069 0.0000 0.2069  plane waves:     339
 k-point 46 :   0.2155 0.0000 0.2155  plane waves:     343
 k-point 47 :   0.2241 0.0000 0.2241  plane waves:     343
 k-point 48 :   0.2328 0.0000 0.2328  plane waves:     343
 k-point 49 :   0.2414 0.0000 0.2414  plane waves:     343
 k-point 50 :   0.2500 0.0000 0.2500  plane waves:     343
 k-point 51 :   0.2586 0.0000 0.2586  plane waves:     343
 k-point 52 :   0.2672 0.0000 0.2672  plane waves:     343
 k-point 53 :   0.2759 0.0000 0.2759  plane waves:     343
 k-point 54 :   0.2845 0.0000 0.2845  plane waves:     339
 k-point 55 :   0.2931 0.0000 0.2931  plane waves:     339
 k-point 56 :   0.3017 0.0000 0.3017  plane waves:     339
 k-point 57 :   0.3103 0.0000 0.3103  plane waves:     339
 k-point 58 :   0.3190 0.0000 0.3190  plane waves:     331
 k-point 59 :   0.3276 0.0000 0.3276  plane waves:     331
 k-point 60 :   0.3362 0.0000 0.3362  plane waves:     327
 k-point 61 :   0.3448 0.0000 0.3448  plane waves:     327
 k-point 62 :   0.3534 0.0000 0.3534  plane waves:     327
 k-point 63 :   0.3621 0.0000 0.3621  plane waves:     327
 k-point 64 :   0.3707 0.0000 0.3707  plane waves:     327
 k-point 65 :   0.3793 0.0000 0.3793  plane waves:     327
 k-point 66 :   0.3879 0.0000 0.3879  plane waves:     327
 k-point 67 :   0.3966 0.0000 0.3966  plane waves:     335
 k-point 68 :   0.4052 0.0000 0.4052  plane waves:     335
 k-point 69 :   0.4138 0.0000 0.4138  plane waves:     335
 k-point 70 :   0.4224 0.0000 0.4224  plane waves:     335
 k-point 71 :   0.4310 0.0000 0.4310  plane waves:     335
 k-point 72 :   0.4397 0.0000 0.4397  plane waves:     334
 k-point 73 :   0.4483 0.0000 0.4483  plane waves:     334
 k-point 74 :   0.4569 0.0000 0.4569  plane waves:     342
 k-point 75 :   0.4655 0.0000 0.4655  plane waves:     342
 k-point 76 :   0.4741 0.0000 0.4741  plane waves:     342
 k-point 77 :   0.4828 0.0000 0.4828  plane waves:     342
 k-point 78 :   0.4914 0.0000 0.4914  plane waves:     342
 k-point 79 :   0.5000 0.0000 0.5000  plane waves:     342
 k-point 80 :   0.5062 0.0125 0.5062  plane waves:     342
 k-point 81 :   0.5125 0.0250 0.5125  plane waves:     342
 k-point 82 :   0.5188 0.0375 0.5188  plane waves:     342
 k-point 83 :   0.5250 0.0500 0.5250  plane waves:     342
 k-point 84 :   0.5312 0.0625 0.5312  plane waves:     342
 k-point 85 :   0.5375 0.0750 0.5375  plane waves:     342
 k-point 86 :   0.5437 0.0875 0.5437  plane waves:     342
 k-point 87 :   0.5500 0.1000 0.5500  plane waves:     342
 k-point 88 :   0.5563 0.1125 0.5563  plane waves:     342
 k-point 89 :   0.5625 0.1250 0.5625  plane waves:     346
 k-point 90 :   0.5687 0.1375 0.5687  plane waves:     342
 k-point 91 :   0.5750 0.1500 0.5750  plane waves:     343
 k-point 92 :   0.5813 0.1625 0.5813  plane waves:     343
 k-point 93 :   0.5875 0.1750 0.5875  plane waves:     335
 k-point 94 :   0.5938 0.1875 0.5938  plane waves:     341
 k-point 95 :   0.6000 0.2000 0.6000  plane waves:     341
 k-point 96 :   0.6062 0.2125 0.6062  plane waves:     341
 k-point 97 :   0.6125 0.2250 0.6125  plane waves:     341
 k-point 98 :   0.6188 0.2375 0.6188  plane waves:     341
 k-point 99 :   0.6250 0.2500 0.6250  plane waves:     347
 k-point ** :   0.3750 0.3750 0.7500  plane waves:     347
 k-point ** :   0.3690 0.3690 0.7379  plane waves:     343
 k-point ** :   0.3629 0.3629 0.7258  plane waves:     343
 k-point ** :   0.3569 0.3569 0.7137  plane waves:     343
 k-point ** :   0.3508 0.3508 0.7016  plane waves:     343
 k-point ** :   0.3448 0.3448 0.6895  plane waves:     347
 k-point ** :   0.3387 0.3387 0.6774  plane waves:     347
 k-point ** :   0.3327 0.3327 0.6653  plane waves:     347
 k-point ** :   0.3266 0.3266 0.6532  plane waves:     347
 k-point ** :   0.3206 0.3206 0.6411  plane waves:     349
 k-point ** :   0.3145 0.3145 0.6290  plane waves:     343
 k-point ** :   0.3085 0.3085 0.6169  plane waves:     343
 k-point ** :   0.3024 0.3024 0.6048  plane waves:     343
 k-point ** :   0.2964 0.2964 0.5927  plane waves:     339
 k-point ** :   0.2903 0.2903 0.5806  plane waves:     339
 k-point ** :   0.2843 0.2843 0.5685  plane waves:     339
 k-point ** :   0.2782 0.2782 0.5565  plane waves:     335
 k-point ** :   0.2722 0.2722 0.5444  plane waves:     339
 k-point ** :   0.2661 0.2661 0.5323  plane waves:     339
 k-point ** :   0.2601 0.2601 0.5202  plane waves:     339
 k-point ** :   0.2540 0.2540 0.5081  plane waves:     339
 k-point ** :   0.2480 0.2480 0.4960  plane waves:     339
 k-point ** :   0.2419 0.2419 0.4839  plane waves:     339
 k-point ** :   0.2359 0.2359 0.4718  plane waves:     339
 k-point ** :   0.2298 0.2298 0.4597  plane waves:     335
 k-point ** :   0.2238 0.2238 0.4476  plane waves:     335
 k-point ** :   0.2177 0.2177 0.4355  plane waves:     331
 k-point ** :   0.2117 0.2117 0.4234  plane waves:     331
 k-point ** :   0.2056 0.2056 0.4113  plane waves:     333
 k-point ** :   0.1996 0.1996 0.3992  plane waves:     333
 k-point ** :   0.1935 0.1935 0.3871  plane waves:     333
 k-point ** :   0.1875 0.1875 0.3750  plane waves:     333
 k-point ** :   0.1815 0.1815 0.3629  plane waves:     333
 k-point ** :   0.1754 0.1754 0.3508  plane waves:     339
 k-point ** :   0.1694 0.1694 0.3387  plane waves:     331
 k-point ** :   0.1633 0.1633 0.3266  plane waves:     331
 k-point ** :   0.1573 0.1573 0.3145  plane waves:     333
 k-point ** :   0.1512 0.1512 0.3024  plane waves:     333
 k-point ** :   0.1452 0.1452 0.2903  plane waves:     333
 k-point ** :   0.1391 0.1391 0.2782  plane waves:     333
 k-point ** :   0.1331 0.1331 0.2661  plane waves:     333
 k-point ** :   0.1270 0.1270 0.2540  plane waves:     333
 k-point ** :   0.1210 0.1210 0.2419  plane waves:     331
 k-point ** :   0.1149 0.1149 0.2298  plane waves:     331
 k-point ** :   0.1089 0.1089 0.2177  plane waves:     331
 k-point ** :   0.1028 0.1028 0.2056  plane waves:     331
 k-point ** :   0.0968 0.0968 0.1935  plane waves:     329
 k-point ** :   0.0907 0.0907 0.1815  plane waves:     333
 k-point ** :   0.0847 0.0847 0.1694  plane waves:     333
 k-point ** :   0.0786 0.0786 0.1573  plane waves:     333
 k-point ** :   0.0726 0.0726 0.1452  plane waves:     333
 k-point ** :   0.0665 0.0665 0.1331  plane waves:     333
 k-point ** :   0.0605 0.0605 0.1210  plane waves:     333
 k-point ** :   0.0544 0.0544 0.1089  plane waves:     333
 k-point ** :   0.0484 0.0484 0.0968  plane waves:     333
 k-point ** :   0.0423 0.0423 0.0847  plane waves:     333
 k-point ** :   0.0363 0.0363 0.0726  plane waves:     333
 k-point ** :   0.0302 0.0302 0.0605  plane waves:     333
 k-point ** :   0.0242 0.0242 0.0484  plane waves:     331
 k-point ** :   0.0181 0.0181 0.0363  plane waves:     331
 k-point ** :   0.0121 0.0121 0.0242  plane waves:     331
 k-point ** :   0.0060 0.0060 0.0121  plane waves:     331
 k-point ** :   0.0000 0.0000 0.0000  plane waves:     331
 k-point ** :   0.0100 0.0100 0.0100  plane waves:     331
 k-point ** :   0.0200 0.0200 0.0200  plane waves:     331
 k-point ** :   0.0300 0.0300 0.0300  plane waves:     331
 k-point ** :   0.0400 0.0400 0.0400  plane waves:     332
 k-point ** :   0.0500 0.0500 0.0500  plane waves:     332
 k-point ** :   0.0600 0.0600 0.0600  plane waves:     332
 k-point ** :   0.0700 0.0700 0.0700  plane waves:     332
 k-point ** :   0.0800 0.0800 0.0800  plane waves:     332
 k-point ** :   0.0900 0.0900 0.0900  plane waves:     332
 k-point ** :   0.1000 0.1000 0.1000  plane waves:     332
 k-point ** :   0.1100 0.1100 0.1100  plane waves:     332
 k-point ** :   0.1200 0.1200 0.1200  plane waves:     335
 k-point ** :   0.1300 0.1300 0.1300  plane waves:     335
 k-point ** :   0.1400 0.1400 0.1400  plane waves:     335
 k-point ** :   0.1500 0.1500 0.1500  plane waves:     335
 k-point ** :   0.1600 0.1600 0.1600  plane waves:     332
 k-point ** :   0.1700 0.1700 0.1700  plane waves:     332
 k-point ** :   0.1800 0.1800 0.1800  plane waves:     332
 k-point ** :   0.1900 0.1900 0.1900  plane waves:     332
 k-point ** :   0.2000 0.2000 0.2000  plane waves:     332
 k-point ** :   0.2100 0.2100 0.2100  plane waves:     332
 k-point ** :   0.2200 0.2200 0.2200  plane waves:     332
 k-point ** :   0.2300 0.2300 0.2300  plane waves:     338
 k-point ** :   0.2400 0.2400 0.2400  plane waves:     338
 k-point ** :   0.2500 0.2500 0.2500  plane waves:     332
 k-point ** :   0.2600 0.2600 0.2600  plane waves:     338
 k-point ** :   0.2700 0.2700 0.2700  plane waves:     338
 k-point ** :   0.2800 0.2800 0.2800  plane waves:     338
 k-point ** :   0.2900 0.2900 0.2900  plane waves:     338
 k-point ** :   0.3000 0.3000 0.3000  plane waves:     344
 k-point ** :   0.3100 0.3100 0.3100  plane waves:     344
 k-point ** :   0.3200 0.3200 0.3200  plane waves:     344
 k-point ** :   0.3300 0.3300 0.3300  plane waves:     344
 k-point ** :   0.3400 0.3400 0.3400  plane waves:     344
 k-point ** :   0.3500 0.3500 0.3500  plane waves:     344
 k-point ** :   0.3600 0.3600 0.3600  plane waves:     344
 k-point ** :   0.3700 0.3700 0.3700  plane waves:     344
 k-point ** :   0.3800 0.3800 0.3800  plane waves:     338
 k-point ** :   0.3900 0.3900 0.3900  plane waves:     344
 k-point ** :   0.4000 0.4000 0.4000  plane waves:     344
 k-point ** :   0.4100 0.4100 0.4100  plane waves:     344
 k-point ** :   0.4200 0.4200 0.4200  plane waves:     338
 k-point ** :   0.4300 0.4300 0.4300  plane waves:     338
 k-point ** :   0.4400 0.4400 0.4400  plane waves:     338
 k-point ** :   0.4500 0.4500 0.4500  plane waves:     341
 k-point ** :   0.4600 0.4600 0.4600  plane waves:     341
 k-point ** :   0.4700 0.4700 0.4700  plane waves:     341
 k-point ** :   0.4800 0.4800 0.4800  plane waves:     341
 k-point ** :   0.4900 0.4900 0.4900  plane waves:     344
 k-point ** :   0.5000 0.5000 0.5000  plane waves:     344
 k-point ** :   0.5000 0.4939 0.5061  plane waves:     344
 k-point ** :   0.5000 0.4878 0.5122  plane waves:     342
 k-point ** :   0.5000 0.4817 0.5183  plane waves:     342
 k-point ** :   0.5000 0.4756 0.5244  plane waves:     342
 k-point ** :   0.5000 0.4695 0.5305  plane waves:     342
 k-point ** :   0.5000 0.4634 0.5366  plane waves:     342
 k-point ** :   0.5000 0.4573 0.5427  plane waves:     342
 k-point ** :   0.5000 0.4512 0.5488  plane waves:     340
 k-point ** :   0.5000 0.4451 0.5549  plane waves:     342
 k-point ** :   0.5000 0.4390 0.5610  plane waves:     342
 k-point ** :   0.5000 0.4329 0.5671  plane waves:     342
 k-point ** :   0.5000 0.4268 0.5732  plane waves:     342
 k-point ** :   0.5000 0.4207 0.5793  plane waves:     342
 k-point ** :   0.5000 0.4146 0.5854  plane waves:     342
 k-point ** :   0.5000 0.4085 0.5915  plane waves:     342
 k-point ** :   0.5000 0.4024 0.5976  plane waves:     342
 k-point ** :   0.5000 0.3963 0.6037  plane waves:     342
 k-point ** :   0.5000 0.3902 0.6098  plane waves:     344
 k-point ** :   0.5000 0.3841 0.6159  plane waves:     344
 k-point ** :   0.5000 0.3780 0.6220  plane waves:     346
 k-point ** :   0.5000 0.3720 0.6280  plane waves:     346
 k-point ** :   0.5000 0.3659 0.6341  plane waves:     344
 k-point ** :   0.5000 0.3598 0.6402  plane waves:     342
 k-point ** :   0.5000 0.3537 0.6463  plane waves:     344
 k-point ** :   0.5000 0.3476 0.6524  plane waves:     344
 k-point ** :   0.5000 0.3415 0.6585  plane waves:     344
 k-point ** :   0.5000 0.3354 0.6646  plane waves:     346
 k-point ** :   0.5000 0.3293 0.6707  plane waves:     346
 k-point ** :   0.5000 0.3232 0.6768  plane waves:     340
 k-point ** :   0.5000 0.3171 0.6829  plane waves:     340
 k-point ** :   0.5000 0.3110 0.6890  plane waves:     342
 k-point ** :   0.5000 0.3049 0.6951  plane waves:     342
 k-point ** :   0.5000 0.2988 0.7012  plane waves:     344
 k-point ** :   0.5000 0.2927 0.7073  plane waves:     344
 k-point ** :   0.5000 0.2866 0.7134  plane waves:     344
 k-point ** :   0.5000 0.2805 0.7195  plane waves:     340
 k-point ** :   0.5000 0.2744 0.7256  plane waves:     340
 k-point ** :   0.5000 0.2683 0.7317  plane waves:     340
 k-point ** :   0.5000 0.2622 0.7378  plane waves:     340
 k-point ** :   0.5000 0.2561 0.7439  plane waves:     332
 k-point ** :   0.5000 0.2500 0.7500  plane waves:     328
 k-point ** :   0.5000 0.2411 0.7411  plane waves:     336
 k-point ** :   0.5000 0.2321 0.7321  plane waves:     340
 k-point ** :   0.5000 0.2232 0.7232  plane waves:     344
 k-point ** :   0.5000 0.2143 0.7143  plane waves:     344
 k-point ** :   0.5000 0.2054 0.7054  plane waves:     344
 k-point ** :   0.5000 0.1964 0.6964  plane waves:     344
 k-point ** :   0.5000 0.1875 0.6875  plane waves:     344
 k-point ** :   0.5000 0.1786 0.6786  plane waves:     344
 k-point ** :   0.5000 0.1696 0.6696  plane waves:     344
 k-point ** :   0.5000 0.1607 0.6607  plane waves:     344
 k-point ** :   0.5000 0.1518 0.6518  plane waves:     344
 k-point ** :   0.5000 0.1429 0.6429  plane waves:     338
 k-point ** :   0.5000 0.1339 0.6339  plane waves:     338
 k-point ** :   0.5000 0.1250 0.6250  plane waves:     342
 k-point ** :   0.5000 0.1161 0.6161  plane waves:     342
 k-point ** :   0.5000 0.1071 0.6071  plane waves:     342
 k-point ** :   0.5000 0.0982 0.5982  plane waves:     340
 k-point ** :   0.5000 0.0893 0.5893  plane waves:     344
 k-point ** :   0.5000 0.0804 0.5804  plane waves:     346
 k-point ** :   0.5000 0.0714 0.5714  plane waves:     342
 k-point ** :   0.5000 0.0625 0.5625  plane waves:     342
 k-point ** :   0.5000 0.0536 0.5536  plane waves:     342
 k-point ** :   0.5000 0.0446 0.5446  plane waves:     342
 k-point ** :   0.5000 0.0357 0.5357  plane waves:     342
 k-point ** :   0.5000 0.0268 0.5268  plane waves:     342
 k-point ** :   0.5000 0.0179 0.5179  plane waves:     342
 k-point ** :   0.5000 0.0089 0.5089  plane waves:     342
 k-point ** :   0.5000 0.0000 0.5000  plane waves:     342

 maximum and minimum number of plane-waves per node :       349      327

 maximum number of plane-waves:       349
 maximum index in each direction: 
   IXMAX=    5   IYMAX=    4   IZMAX=    4
   IXMIN=   -5   IYMIN=   -5   IZMIN=   -5


 serial   3D FFT for wavefunctions
 parallel 3D FFT for charge:
    minimum data exchange during FFTs selected (reduces bandwidth)


 total amount of memory used by VASP MPI-rank0    54503. kBytes
=======================================================================

   base      :      30000. kBytes
   nonl-proj :      20526. kBytes
   fftplans  :        156. kBytes
   grid      :        407. kBytes
   one-center:         16. kBytes
   wavefun   :       3398. kBytes
 
     INWAV:  cpu time    0.2120: real time    0.2131
 Broyden mixing: mesh for mixing (old mesh)
   NGX =  9   NGY =  9   NGZ =  9
  (NGX  = 32   NGY  = 32   NGZ  = 32)
  gives a total of    729 points

 charge density for first step will be calculated from the start-wavefunctions


--------------------------------------------------------------------------------------------------------


 Maximum index for augmentation-charges         1184 (set IRDMAX)


--------------------------------------------------------------------------------------------------------


 initial charge from wavefunction
 First call to EWALD:  gamma=   0.668
 Maximum number of real-space cells 3x 3x 3
 Maximum number of reciprocal cells 3x 3x 3

    FEWALD:  cpu time    0.0000: real time    0.0012


--------------------------------------- Iteration      1(   1)  ---------------------------------------


    POTLOK:  cpu time    0.0080: real time    0.0168
    SETDIJ:  cpu time    0.1280: real time    0.1265
     EDDAV:  cpu time    0.3360: real time    0.3405
       DOS:  cpu time    0.0040: real time    0.0032
    CHARGE:  cpu time    0.0040: real time    0.0023
    MIXING:  cpu time    0.0000: real time    0.0011
    --------------------------------------------
      LOOP:  cpu time    0.4800: real time    0.4904

 eigenvalue-minimisations  : 12870
 total energy-change (2. order) :-0.9637796E+01  (-0.5710572E+02)
 number of electron       8.0000000 magnetization 
 augmentation part        0.6077154 magnetization 

 Broyden mixing:
  rms(total) = 0.52079E+00    rms(broyden)= 0.52070E+00
  rms(prec ) = 0.16227E+01
  weight for this iteration     100.00

 Free energy of the ion-electron system (eV)
  ---------------------------------------------------
  alpha Z        PSCENC =        19.58670275
  Ewald energy   TEWEN  =      -358.39513837
  -Hartree energ DENC   =      -148.66370939
  -exchange      EXHF   =         0.00000000
  -V(xc)+E(xc)   XCENC  =       -16.79705385
  PAW double counting   =       583.74735680     -535.35390655
  entropy T*S    EENTRO =        -0.00000000
  eigenvalues    EBANDS =        -7.08195260
  atomic energy  EATOM  =       453.31990516
  Solvation  Ediel_sol  =         0.00000000
  ---------------------------------------------------
  free energy    TOTEN  =        -9.63779603 eV

  energy without entropy =       -9.63779603  energy(sigma->0) =       -9.63779603


--------------------------------------------------------------------------------------------------------




--------------------------------------- Iteration      1(   2)  ---------------------------------------


    POTLOK:  cpu time    0.0040: real time    0.0088
    SETDIJ:  cpu time    0.1080: real time    0.1104
     EDDAV:  cpu time    0.3480: real time    0.3483
       DOS:  cpu time    0.0000: real time    0.0014
    CHARGE:  cpu time    0.0040: real time    0.0020
    MIXING:  cpu time    0.0000: real time    0.0006
    --------------------------------------------
      LOOP:  cpu time    0.4640: real time    0.4716

 eigenvalue-minimisations  : 13851
 total energy-change (2. order) :-0.2849058E+01  (-0.3618848E+01)
 number of electron       8.0000000 magnetization 
 augmentation part        0.6688221 magnetization 

 Broyden mixing:
  rms(total) = 0.20659E+00    rms(broyden)= 0.20657E+00
  rms(prec ) = 0.26803E+00
  weight for this iteration     100.00

 eigenvalues of (default mixing * dielectric matrix)
  average eigenvalue GAMMA=   0.9581
  0.9581

 Free energy of the ion-electron system (eV)
  ---------------------------------------------------
  alpha Z        PSCENC =        19.58670275
  Ewald energy   TEWEN  =      -358.39513837
  -Hartree energ DENC   =      -137.66656210
  -exchange      EXHF   =         0.00000000
  -V(xc)+E(xc)   XCENC  =       -17.57559577
  PAW double counting   =       561.09354389     -512.30285709
  entropy T*S    EENTRO =        -0.00000000
  eigenvalues    EBANDS =       -20.54685292
  atomic energy  EATOM  =       453.31990516
  Solvation  Ediel_sol  =         0.00000000
  ---------------------------------------------------
  free energy    TOTEN  =       -12.48685444 eV

  energy without entropy =      -12.48685444  energy(sigma->0) =      -12.48685444


[...]

 k-point   264 :       0.5000    0.1518    0.6518
  band No.  band energies     occupation 
      1     -12.5250      2.00000
      2      -0.6378      2.00000
      3       0.9163      2.00000
      4       1.4091      2.00000
      5      13.2690      0.00000
      6      14.2254      0.00000
      7      15.5644      0.00000
      8      19.7794      0.00000
      9      22.9524      0.00000
     10      28.1837      0.00000
     11      29.1666      0.00000
     12      31.1851      0.00000
     13      34.2629      0.00000
     14      38.3698      0.00000
     15      39.5438      0.00000
     16      41.9351      0.00000
     17      42.0950      0.00000
     18      43.1087      0.00000

 k-point   265 :       0.5000    0.1429    0.6429
  band No.  band energies     occupation 
      1     -12.5269      2.00000
      2      -0.6866      2.00000
      3       0.9929      2.00000
      4       1.4339      2.00000
      5      13.1480      0.00000
      6      14.1038      0.00000
      7      15.6299      0.00000
      8      19.9629      0.00000
      9      22.8364      0.00000
     10      28.5376      0.00000
     11      29.1305      0.00000
     12      31.0649      0.00000
     13      34.2130      0.00000
     14      38.5040      0.00000
     15      39.4653      0.00000
     16      41.9389      0.00000
     17      42.0835      0.00000
     18      43.1929      0.00000

 k-point   266 :       0.5000    0.1339    0.6339
  band No.  band energies     occupation 
      1     -12.5299      2.00000
      2      -0.7333      2.00000
      3       1.0664      2.00000
      4       1.4572      2.00000
      5      13.0293      0.00000
      6      13.9839      0.00000
      7      15.6878      0.00000
      8      20.1448      0.00000
      9      22.7259      0.00000
     10      28.8991      0.00000
     11      29.0906      0.00000
     12      30.9386      0.00000
     13      34.1639      0.00000
     14      38.6418      0.00000
     15      39.3854      0.00000
     16      41.7864      0.00000
     17      42.2340      0.00000
     18      43.2794      0.00000

 k-point   267 :       0.5000    0.1250    0.6250
  band No.  band energies     occupation 
      1     -12.5337      2.00000
      2      -0.7783      2.00000
      3       1.1375      2.00000
      4       1.4798      2.00000
      5      12.9137      0.00000
      6      13.8669      0.00000
      7      15.7376      0.00000
      8      20.3255      0.00000
      9      22.6236      0.00000
     10      29.0461      0.00000
     11      29.2662      0.00000
     12      30.8091      0.00000
     13      34.1163      0.00000
     14      38.7824      0.00000
     15      39.3031      0.00000
     16      41.6325      0.00000
     17      42.3872      0.00000
     18      43.3680      0.00000

 k-point   268 :       0.5000    0.1161    0.6161
  band No.  band energies     occupation 
      1     -12.5368      2.00000
      2      -0.8194      2.00000
      3       1.2063      2.00000
      4       1.5038      2.00000
      5      12.8024      0.00000
      6      13.7549      0.00000
      7      15.7871      0.00000
      8      20.5056      0.00000
      9      22.5302      0.00000
     10      28.9978      0.00000
     11      29.6410      0.00000
     12      30.6856      0.00000
     13      34.0706      0.00000
     14      38.9252      0.00000
     15      39.2168      0.00000
     16      41.4859      0.00000
     17      42.5428      0.00000
     18      43.4587      0.00000

 k-point   269 :       0.5000    0.1071    0.6071
  band No.  band energies     occupation 
      1     -12.5398      2.00000
      2      -0.8576      2.00000
      3       1.2722      2.00000
      4       1.5276      2.00000
      5      12.6959      0.00000
      6      13.6482      0.00000
      7      15.8326      0.00000
      8      20.6828      0.00000
      9      22.4448      0.00000
     10      28.9452      0.00000
     11      30.0211      0.00000
     12      30.5663      0.00000
     13      34.0271      0.00000
     14      39.0687      0.00000
     15      39.1239      0.00000
     16      41.3415      0.00000
     17      42.7004      0.00000
     18      43.5500      0.00000

 k-point   270 :       0.5000    0.0982    0.5982
  band No.  band energies     occupation 
      1     -12.5424      2.00000
      2      -0.8930      2.00000
      3       1.3348      2.00000
      4       1.5524      2.00000
      5      12.5947      0.00000
      6      13.5476      0.00000
      7      15.8742      0.00000
      8      20.8588      0.00000
      9      22.3674      0.00000
     10      28.8889      0.00000
     11      30.4054      0.00000
     12      30.4541      0.00000
     13      33.9863      0.00000
     14      39.0217      0.00000
     15      39.2115      0.00000
     16      41.1989      0.00000
     17      42.8598      0.00000
     18      43.6409      0.00000

 k-point   271 :       0.5000    0.0893    0.5893
  band No.  band energies     occupation 
      1     -12.5460      2.00000
      2      -0.9267      2.00000
      3       1.3937      2.00000
      4       1.5741      2.00000
      5      12.4997      0.00000
      6      13.4534      0.00000
      7      15.9054      0.00000
      8      21.0247      0.00000
      9      22.2973      0.00000
     10      28.8264      0.00000
     11      30.3473      0.00000
     12      30.7914      0.00000
     13      33.9482      0.00000
     14      38.9066      0.00000
     15      39.3519      0.00000
     16      41.0520      0.00000
     17      43.0201      0.00000
     18      43.6228      0.00000

 k-point   272 :       0.5000    0.0804    0.5804
  band No.  band energies     occupation 
      1     -12.5490      2.00000
      2      -0.9563      2.00000
      3       1.4484      2.00000
      4       1.5943      2.00000
      5      12.4115      0.00000
      6      13.3658      0.00000
      7      15.9383      0.00000
      8      21.1817      0.00000
      9      22.2348      0.00000
     10      28.7615      0.00000
     11      30.2487      0.00000
     12      31.1792      0.00000
     13      33.9132      0.00000
     14      38.7745      0.00000
     15      39.4886      0.00000
     16      40.9129      0.00000
     17      43.1810      0.00000
     18      43.2507      0.00000

 k-point   273 :       0.5000    0.0714    0.5714
  band No.  band energies     occupation 
      1     -12.5509      2.00000
      2      -0.9824      2.00000
      3       1.4990      2.00000
      4       1.6167      2.00000
      5      12.3306      0.00000
      6      13.2866      0.00000
      7      15.9704      0.00000
      8      21.3371      0.00000
      9      22.1801      0.00000
     10      28.6953      0.00000
     11      30.1636      0.00000
     12      31.5662      0.00000
     13      33.8815      0.00000
     14      38.6220      0.00000
     15      39.6197      0.00000
     16      40.7795      0.00000
     17      42.9248      0.00000
     18      43.3431      0.00000

 k-point   274 :       0.5000    0.0625    0.5625
  band No.  band energies     occupation 
      1     -12.5532      2.00000
      2      -1.0058      2.00000
      3       1.5444      2.00000
      4       1.6350      2.00000
      5      12.2577      0.00000
      6      13.2156      0.00000
      7      15.9966      0.00000
      8      21.4752      0.00000
      9      22.1317      0.00000
     10      28.6282      0.00000
     11      30.0892      0.00000
     12      31.9484      0.00000
     13      33.8532      0.00000
     14      38.4463      0.00000
     15      39.7432      0.00000
     16      40.6535      0.00000
     17      42.6451      0.00000
     18      43.5004      0.00000

 k-point   275 :       0.5000    0.0536    0.5536
  band No.  band energies     occupation 
      1     -12.5552      2.00000
      2      -1.0261      2.00000
      3       1.5846      2.00000
      4       1.6515      2.00000
      5      12.1933      0.00000
      6      13.1531      0.00000
      7      16.0192      0.00000
      8      21.6002      0.00000
      9      22.0901      0.00000
     10      28.5628      0.00000
     11      30.0258      0.00000
     12      32.3215      0.00000
     13      33.8284      0.00000
     14      38.2477      0.00000
     15      39.8569      0.00000
     16      40.5387      0.00000
     17      42.4125      0.00000
     18      43.6537      0.00000

 k-point   276 :       0.5000    0.0446    0.5446
  band No.  band energies     occupation 
      1     -12.5570      2.00000
      2      -1.0433      2.00000
      3       1.6192      2.00000
      4       1.6658      2.00000
      5      12.1380      0.00000
      6      13.0997      0.00000
      7      16.0382      0.00000
      8      21.7102      0.00000
      9      22.0552      0.00000
     10      28.5015      0.00000
     11      29.9733      0.00000
     12      32.6792      0.00000
     13      33.8073      0.00000
     14      38.0311      0.00000
     15      39.9585      0.00000
     16      40.4388      0.00000
     17      42.2250      0.00000
     18      43.8026      0.00000

 k-point   277 :       0.5000    0.0357    0.5357
  band No.  band energies     occupation 
      1     -12.5585      2.00000
      2      -1.0574      2.00000
      3       1.6479      2.00000
      4       1.6779      2.00000
      5      12.0920      0.00000
      6      13.0556      0.00000
      7      16.0537      0.00000
      8      21.8034      0.00000
      9      22.0268      0.00000
     10      28.4469      0.00000
     11      29.9313      0.00000
     12      33.0122      0.00000
     13      33.7898      0.00000
     14      37.8066      0.00000
     15      40.0458      0.00000
     16      40.3562      0.00000
     17      42.0791      0.00000
     18      43.9442      0.00000

 k-point   278 :       0.5000    0.0268    0.5268
  band No.  band energies     occupation 
      1     -12.5597      2.00000
      2      -1.0684      2.00000
      3       1.6705      2.00000
      4       1.6875      2.00000
      5      12.0559      0.00000
      6      13.0210      0.00000
      7      16.0658      0.00000
      8      21.8779      0.00000
      9      22.0048      0.00000
     10      28.4014      0.00000
     11      29.8992      0.00000
     12      33.3071      0.00000
     13      33.7762      0.00000
     14      37.5906      0.00000
     15      40.1166      0.00000
     16      40.2924      0.00000
     17      41.9708      0.00000
     18      44.1273      0.00000

 k-point   279 :       0.5000    0.0179    0.5179
  band No.  band energies     occupation 
      1     -12.5605      2.00000
      2      -1.0763      2.00000
      3       1.6869      2.00000
      4       1.6944      2.00000
      5      12.0299      0.00000
      6      12.9961      0.00000
      7      16.0743      0.00000
      8      21.9324      0.00000
      9      21.9892      0.00000
     10      28.3672      0.00000
     11      29.8767      0.00000
     12      33.5452      0.00000
     13      33.7665      0.00000
     14      37.4055      0.00000
     15      40.1688      0.00000
     16      40.2473      0.00000
     17      41.8963      0.00000
     18      44.1622      0.00000

 k-point   280 :       0.5000    0.0089    0.5089
  band No.  band energies     occupation 
      1     -12.5610      2.00000
      2      -1.0810      2.00000
      3       1.6967      2.00000
      4       1.6986      2.00000
      5      12.0142      0.00000
      6      12.9811      0.00000
      7      16.0795      0.00000
      8      21.9656      0.00000
      9      21.9799      0.00000
     10      28.3459      0.00000
     11      29.8634      0.00000
     12      33.7029      0.00000
     13      33.7606      0.00000
     14      37.2780      0.00000
     15      40.2008      0.00000
     16      40.2205      0.00000
     17      41.8528      0.00000
     18      44.2245      0.00000

 k-point   281 :       0.5000    0.0000    0.5000
  band No.  band energies     occupation 
      1     -12.5612      2.00000
      2      -1.0826      2.00000
      3       1.7000      2.00000
      4       1.7000      2.00000
      5      12.0090      0.00000
      6      12.9761      0.00000
      7      16.0812      0.00000
      8      21.9767      0.00000
      9      21.9768      0.00000
     10      28.3387      0.00000
     11      29.8589      0.00000
     12      33.7586      0.00000
     13      33.7586      0.00000
     14      37.2321      0.00000
     15      40.2116      0.00000
     16      40.2116      0.00000
     17      41.8385      0.00000
     18      44.2465      0.00000


--------------------------------------------------------------------------------------------------------


 soft charge-density along one line, spin component           1
         0         1         2         3         4         5         6         7         8         9
 total charge-density along one line
 
 pseudopotential strength for first ion, spin component:           1
  2.991   9.484   0.000   0.000   0.000   0.000   0.000   0.000
  9.484  29.914   0.000   0.000   0.000   0.000   0.000  -0.000
  0.000   0.000   7.374  -0.000  -0.000  10.650  -0.000  -0.000
  0.000   0.000  -0.000   7.374  -0.000  -0.000  10.650  -0.000
  0.000   0.000  -0.000  -0.000   7.374  -0.000  -0.000  10.650
  0.000   0.000  10.650  -0.000  -0.000  14.606  -0.000  -0.000
  0.000   0.000  -0.000  10.650  -0.000  -0.000  14.606  -0.000
  0.000  -0.000  -0.000  -0.000  10.650  -0.000  -0.000  14.606
 -0.000  -0.000  -0.000  -0.000   0.000  -0.000  -0.000   0.000
 -0.000  -0.000   0.000   0.000  -0.000   0.000   0.000  -0.000
 -0.000  -0.000  -0.000   0.000  -0.000  -0.000   0.000  -0.000
 -0.000  -0.000  -0.000  -0.000   0.000  -0.000  -0.000   0.000
  0.000   0.000  -0.000  -0.000   0.000  -0.000  -0.000   0.000
 total augmentation occupancy for first ion, spin component:           1
  1.052  -0.053   0.000   0.000   0.000   0.000   0.000   0.000   0.000   0.000   0.000   0.000   0.000
 -0.053   0.003   0.000   0.000   0.000   0.000   0.000   0.000  -0.000   0.000   0.000  -0.000   0.000
  0.000   0.000   0.123  -0.000  -0.000  -0.013  -0.000  -0.000   0.000   0.000   0.000   0.000   0.000
  0.000   0.000  -0.000   0.123  -0.000  -0.000  -0.013   0.000   0.000   0.000   0.000   0.000   0.000
  0.000   0.000  -0.000   0.000   0.123   0.000  -0.000  -0.013   0.000   0.000   0.000   0.000   0.000
  0.000   0.000  -0.013  -0.000  -0.000   0.001   0.000   0.000   0.000   0.000   0.000   0.000   0.000
  0.000   0.000   0.000  -0.013  -0.000   0.000   0.001   0.000   0.000   0.000   0.000   0.000   0.000
  0.000   0.000  -0.000   0.000  -0.013   0.000   0.000   0.001   0.000   0.000   0.000   0.000   0.000
  0.000  -0.000   0.000   0.000   0.000   0.000   0.000   0.000   0.014  -0.000  -0.000  -0.000   0.000
  0.000   0.000   0.000   0.000   0.000   0.000   0.000   0.000   0.000   0.014   0.000  -0.000   0.000
 -0.000   0.000   0.000   0.000   0.000   0.000   0.000   0.000  -0.000   0.000   0.053  -0.000   0.000
  0.000  -0.000   0.000   0.000   0.000   0.000   0.000   0.000   0.000   0.000  -0.000   0.014  -0.000
  0.000   0.000   0.000   0.000   0.000   0.000   0.000   0.000   0.000   0.000   0.000  -0.000   0.053


------------------------ aborting loop because EDIFF is reached ----------------------------------------


 


 total charge     
 
# of ion       s       p       d       tot
------------------------------------------
    1        0.150   0.182   0.080   0.412
    2        1.563   3.556   0.000   5.119
--------------------------------------------------
tot          1.713   3.738   0.080   5.531
 
    CHARGE:  cpu time    0.0000: real time    0.0031
    FORLOC:  cpu time    0.0000: real time    0.0002
    FORNL :  cpu time    0.0120: real time    0.0113
    FORCOR:  cpu time    0.1120: real time    0.1097
    FORHAR:  cpu time    0.0000: real time    0.0005
    MIXING:  cpu time    0.0000: real time    0.0004
    OFIELD:  cpu time    0.0000: real time    0.0000

 VOLUME and BASIS-vectors are now :
 -----------------------------------------------------------------------------
  energy-cutoff  :      400.00
  volume of cell :       18.65
      direct lattice vectors                 reciprocal lattice vectors
     0.000000000  2.104833000  2.104833000    -0.237548537  0.237548537  0.237548537
     2.104833000  0.000000000  2.104833000     0.237548537 -0.237548537  0.237548537
     2.104833000  2.104833000  0.000000000     0.237548537  0.237548537 -0.237548537

  length of vectors
     2.976683375  2.976683375  2.976683375     0.411446136  0.411446136  0.411446136


 FORCES acting on ions
    electron-ion (+dipol)            ewald-force                    non-local-force                 convergence-correction
 -----------------------------------------------------------------------------------------------
   0.134E-15 -.130E-14 -.102E-14   0.167E-16 0.256E-15 -.575E-15   -.199E-22 -.132E-22 -.132E-22   -.120E-17 0.223E-16 0.442E-16
   0.784E-12 0.393E-12 0.550E-12   0.488E-16 0.790E-16 0.719E-15   0.000E+00 -.331E-23 0.000E+00   0.237E-14 0.259E-14 0.179E-14
 -----------------------------------------------------------------------------------------------
   0.784E-12 0.392E-12 0.549E-12   0.655E-16 0.335E-15 0.144E-15   -.199E-22 -.165E-22 -.132E-22   0.236E-14 0.261E-14 0.184E-14
 
 
 POSITION                                       TOTAL-FORCE (eV/Angst)
 -----------------------------------------------------------------------------------
      0.00000      0.00000      0.00000        -0.000000      0.000000      0.000000
      2.10483      2.10483      2.10483         0.000000     -0.000000     -0.000000
 -----------------------------------------------------------------------------------
    total drift:                                0.000000      0.000000      0.000000


--------------------------------------------------------------------------------------------------------



  FREE ENERGIE OF THE ION-ELECTRON SYSTEM (eV)
  ---------------------------------------------------
  free  energy   TOTEN  =       -12.52978691 eV

  energy  without entropy=      -12.52978691  energy(sigma->0) =      -12.52978691
 


--------------------------------------------------------------------------------------------------------


    POTLOK:  cpu time    0.1080: real time    0.1100


--------------------------------------------------------------------------------------------------------


 writing wavefunctions
     LOOP+:  cpu time    3.4720: real time    3.5346
    4ORBIT:  cpu time    0.0000: real time    0.0000
 


 total charge     
 
# of ion       s       p       d       tot
------------------------------------------
    1        0.150   0.182   0.080   0.412
    2        1.563   3.556   0.000   5.119
--------------------------------------------------
tot          1.713   3.738   0.080   5.531
 

 total amount of memory used by VASP MPI-rank0    54503. kBytes
=======================================================================

   base      :      30000. kBytes
   nonl-proj :      20526. kBytes
   fftplans  :        156. kBytes
   grid      :        407. kBytes
   one-center:         16. kBytes
   wavefun   :       3398. kBytes
 
  
  
 General timing and accounting informations for this job:
 ========================================================
  
                  Total CPU time used (sec):        4.716
                            User time (sec):        4.104
                          System time (sec):        0.612
                         Elapsed time (sec):        5.061
  
                   Maximum memory used (kb):       89352.
                   Average memory used (kb):           0.
  
                          Minor page faults:       154935
                          Major page faults:           18
                 Voluntary context switches:         1774
