 vasp.5.4.4.18Apr17-6-g9f103f2a35 (build Jan 15 2019 14:25:10) complex          
  
 executed on             LinuxIFC date 2020.11.17  12:38:57
 running on   32 total cores
 distrk:  each k-point on    8 cores,    4 groups
 distr:  one band on NCORES_PER_BAND=   1 cores,    8 groups


--------------------------------------------------------------------------------------------------------


 INCAR:
 POTCAR:    PAW_PBE He 05Jan2001                  

 ----------------------------------------------------------------------------- 
|                                                                             |
|           W    W    AA    RRRRR   N    N  II  N    N   GGGG   !!!           |
|           W    W   A  A   R    R  NN   N  II  NN   N  G    G  !!!           |
|           W    W  A    A  R    R  N N  N  II  N N  N  G       !!!           |
|           W WW W  AAAAAA  RRRRR   N  N N  II  N  N N  G  GGG   !            |
|           WW  WW  A    A  R   R   N   NN  II  N   NN  G    G                |
|           W    W  A    A  R    R  N    N  II  N    N   GGGG   !!!           |
|                                                                             |
|      For optimal performance we recommend to set                            |
|        NCORE= 4 - approx SQRT( number of cores)                             |
|      NCORE specifies how many cores store one orbital (NPAR=cpu/NCORE).     |
|      This setting can  greatly improve the performance of VASP for DFT.     |
|      The default,   NCORE=1            might be grossly inefficient         |
|      on modern multi-core architectures or massively parallel machines.     |
|      Do your own testing !!!!                                               |
|      Unfortunately you need to use the default for GW and RPA calculations. |
|      (for HF NCORE is supported but not extensively tested yet)             |
|                                                                             |
 ----------------------------------------------------------------------------- 


 ----------------------------------------------------------------------------- 
|                                                                             |
|           W    W    AA    RRRRR   N    N  II  N    N   GGGG   !!!           |
|           W    W   A  A   R    R  NN   N  II  NN   N  G    G  !!!           |
|           W    W  A    A  R    R  N N  N  II  N N  N  G       !!!           |
|           W WW W  AAAAAA  RRRRR   N  N N  II  N  N N  G  GGG   !            |
|           WW  WW  A    A  R   R   N   NN  II  N   NN  G    G                |
|           W    W  A    A  R    R  N    N  II  N    N   GGGG   !!!           |
|                                                                             |
|      You have enabled k-point parallelism (KPAR>1).                         |
|      This developmental code was originally  written by Paul Kent at ORNL,  |
|      and carefully double checked in Vienna.                                |
|      GW as well as linear response parallelism added by Martijn Marsman     |
|      and Georg Kresse.                                                      |
|      Carefully verify results versus KPAR=1.                                |
|      Report problems to Paul Kent and Vienna.                               |
|                                                                             |
 ----------------------------------------------------------------------------- 

 POTCAR:    PAW_PBE He 05Jan2001                  
   VRHFIN =He: 1s                                                               
   LEXCH  = PE                                                                  
   EATOM  =    78.7251 eV,    5.7861 Ry                                         
                                                                                
   TITEL  = PAW_PBE He 05Jan2001                                                
   LULTRA =        F    use ultrasoft PP ?                                      
   IUNSCR =        0    unscreen: 0-lin 1-nonlin 2-no                           
   RPACOR =    0.000    partial core radius                                     
   POMASS =    4.000; ZVAL   =    2.000    mass and valenz                      
   RCORE  =    1.100    outmost cutoff radius                                   
   RWIGS  =    1.200; RWIGS  =    0.635    wigner-seitz radius (au A)           
   ENMAX  =  478.896; ENMIN  =  359.172 eV                                      
   RCLOC  =    0.703    cutoff for local pot                                    
   LCOR   =        T    correct aug charges                                     
   LPAW   =        T    paw PP                                                  
   EAUG   = 1180.948                                                            
   RMAX   =    1.121    core radius for proj-oper                               
   RAUG   =    1.200    factor for augmentation sphere                          
   RDEP   =    1.110    radius for radial grids                                 
   RDEPT  =    0.925    core radius for aug-charge                              
                                                                                
   Atomic configuration                                                         
    2 entries                                                                   
     n  l   j            E        occ.                                          
     1  0  0.50       -15.7639   2.0000                                         
     2  1  0.50        -2.8912   0.0000                                         
   Description                                                                  
     l       E           TYP  RCUT    TYP  RCUT                                 
     0    -15.7638888     23  1.100                                             
     0      6.8029130     23  1.100                                             
     1     -6.8029130     23  1.100                                             
  local pseudopotential read in
  atomic valenz-charges read in
  non local Contribution for L=           0  read in
    real space projection operators read in
  non local Contribution for L=           0  read in
    real space projection operators read in
  non local Contribution for L=           1  read in
    real space projection operators read in
    PAW grid and wavefunctions read in
 
   number of l-projection  operators is LMAX  =           3
   number of lm-projection operators is LMMAX =           5
 

 ----------------------------------------------------------------------------- 
|                                                                             |
|  ADVICE TO THIS USER RUNNING 'VASP/VAMP'   (HEAR YOUR MASTER'S VOICE ...):  |
|                                                                             |
|      You enforced a specific xc-type in the INCAR file,                     |
|      a different type was found on the POTCAR file                          |
|          I HOPE YOU KNOW, WHAT YOU ARE  DOING                               |
|                                                                             |
 ----------------------------------------------------------------------------- 

  PAW_PBE He 05Jan2001                  :
 energy of atom  1       EATOM=  -78.7251
 kinetic energy error for atom=    0.0417 (will be added to EATOM!!)
 
 
 POSCAR: He1                                     
  positions in direct lattice
  No initial velocities read in
 exchange correlation table for  LEXCH =       14
   RHO(1)=    0.500       N(1)  =     2000
   RHO(2)=  100.500       N(2)  =     4000
 


--------------------------------------------------------------------------------------------------------


 ion  position               nearest neighbor table
   1  0.000  0.000  0.000-
 
  LATTYP: Found a body centered cubic cell.
 ALAT       =     3.1833720000
  
  Lattice vectors:
  
 A1 = (  -1.5916860000,   1.5916860000,   1.5916860000)
 A2 = (   1.5916860000,  -1.5916860000,   1.5916860000)
 A3 = (   1.5916860000,   1.5916860000,  -1.5916860000)


Analysis of symmetry for initial positions (statically):
=====================================================================
 Subroutine PRICEL returns:
 Original cell was already a primitive cell.
 

 Routine SETGRP: Setting up the symmetry group for a 
 body centered cubic supercell.


 Subroutine GETGRP returns: Found 48 space group operations
 (whereof 48 operations were pure point group operations)
 out of a pool of 48 trial point group operations.


The static configuration has the point symmetry O_h .


Analysis of symmetry for dynamics (positions and initial velocities):
=====================================================================
 Subroutine PRICEL returns:
 Original cell was already a primitive cell.
 

 Routine SETGRP: Setting up the symmetry group for a 
 body centered cubic supercell.


 Subroutine GETGRP returns: Found 48 space group operations
 (whereof 48 operations were pure point group operations)
 out of a pool of 48 trial point group operations.


The dynamic configuration has the point symmetry O_h .


 Subroutine INISYM returns: Found 48 space group operations
 (whereof 48 operations are pure point group operations),
 and found     1 'primitive' translations

 
 
 KPOINTS: Num irrep kpoints: 1903                 

Automatic generation of k-mesh.
Space group operators:
 irot       det(A)        alpha          n_x          n_y          n_z        tau_x        tau_y        tau_z
    1     1.000000     0.000000     1.000000     0.000000     0.000000     0.000000     0.000000     0.000000
    2    -1.000000     0.000000     1.000000     0.000000     0.000000     0.000000     0.000000     0.000000
    3     1.000000   120.000000    -0.577350    -0.577350    -0.577350     0.000000     0.000000     0.000000
    4    -1.000000   120.000000    -0.577350    -0.577350    -0.577350     0.000000     0.000000     0.000000
    5     1.000000   120.000000     0.577350     0.577350     0.577350     0.000000     0.000000     0.000000
    6    -1.000000   120.000000     0.577350     0.577350     0.577350     0.000000     0.000000     0.000000
    7     1.000000    90.000000     0.000000     0.000000    -1.000000     0.000000     0.000000     0.000000
    8    -1.000000    90.000000     0.000000     0.000000    -1.000000     0.000000     0.000000     0.000000
    9     1.000000   180.000000     0.000000     0.707107     0.707107     0.000000     0.000000     0.000000
   10    -1.000000   180.000000     0.000000     0.707107     0.707107     0.000000     0.000000     0.000000
   11     1.000000    90.000000     0.000000     1.000000     0.000000     0.000000     0.000000     0.000000
   12    -1.000000    90.000000     0.000000     1.000000     0.000000     0.000000     0.000000     0.000000
   13     1.000000   180.000000     0.000000     0.000000     1.000000     0.000000     0.000000     0.000000
   14    -1.000000   180.000000     0.000000     0.000000     1.000000     0.000000     0.000000     0.000000
   15     1.000000   120.000000    -0.577350     0.577350     0.577350     0.000000     0.000000     0.000000
   16    -1.000000   120.000000    -0.577350     0.577350     0.577350     0.000000     0.000000     0.000000
   17     1.000000   120.000000    -0.577350     0.577350    -0.577350     0.000000     0.000000     0.000000
   18    -1.000000   120.000000    -0.577350     0.577350    -0.577350     0.000000     0.000000     0.000000
   19     1.000000    90.000000     0.000000     0.000000     1.000000     0.000000     0.000000     0.000000
   20    -1.000000    90.000000     0.000000     0.000000     1.000000     0.000000     0.000000     0.000000
   21     1.000000    90.000000    -1.000000     0.000000     0.000000     0.000000     0.000000     0.000000
   22    -1.000000    90.000000    -1.000000     0.000000     0.000000     0.000000     0.000000     0.000000
   23     1.000000   180.000000     0.707107     0.000000     0.707107     0.000000     0.000000     0.000000
   24    -1.000000   180.000000     0.707107     0.000000     0.707107     0.000000     0.000000     0.000000
   25     1.000000   120.000000     0.577350    -0.577350     0.577350     0.000000     0.000000     0.000000
   26    -1.000000   120.000000     0.577350    -0.577350     0.577350     0.000000     0.000000     0.000000
   27     1.000000   120.000000    -0.577350    -0.577350     0.577350     0.000000     0.000000     0.000000
   28    -1.000000   120.000000    -0.577350    -0.577350     0.577350     0.000000     0.000000     0.000000
   29     1.000000   180.000000     1.000000     0.000000     0.000000     0.000000     0.000000     0.000000
   30    -1.000000   180.000000     1.000000     0.000000     0.000000     0.000000     0.000000     0.000000
   31     1.000000    90.000000     0.000000    -1.000000     0.000000     0.000000     0.000000     0.000000
   32    -1.000000    90.000000     0.000000    -1.000000     0.000000     0.000000     0.000000     0.000000
   33     1.000000   180.000000     0.707107     0.707107     0.000000     0.000000     0.000000     0.000000
   34    -1.000000   180.000000     0.707107     0.707107     0.000000     0.000000     0.000000     0.000000
   35     1.000000    90.000000     1.000000     0.000000     0.000000     0.000000     0.000000     0.000000
   36    -1.000000    90.000000     1.000000     0.000000     0.000000     0.000000     0.000000     0.000000
   37     1.000000   120.000000     0.577350    -0.577350    -0.577350     0.000000     0.000000     0.000000
   38    -1.000000   120.000000     0.577350    -0.577350    -0.577350     0.000000     0.000000     0.000000
   39     1.000000   180.000000     0.000000     1.000000     0.000000     0.000000     0.000000     0.000000
   40    -1.000000   180.000000     0.000000     1.000000     0.000000     0.000000     0.000000     0.000000
   41     1.000000   120.000000     0.577350     0.577350    -0.577350     0.000000     0.000000     0.000000
   42    -1.000000   120.000000     0.577350     0.577350    -0.577350     0.000000     0.000000     0.000000
   43     1.000000   180.000000     0.000000    -0.707107     0.707107     0.000000     0.000000     0.000000
   44    -1.000000   180.000000     0.000000    -0.707107     0.707107     0.000000     0.000000     0.000000
   45     1.000000   180.000000     0.707107    -0.707107     0.000000     0.000000     0.000000     0.000000
   46    -1.000000   180.000000     0.707107    -0.707107     0.000000     0.000000     0.000000     0.000000
   47     1.000000   180.000000     0.707107     0.000000    -0.707107     0.000000     0.000000     0.000000
   48    -1.000000   180.000000     0.707107     0.000000    -0.707107     0.000000     0.000000     0.000000
 
 Subroutine IBZKPT returns following result:
 ===========================================
 
 Found   1903 irreducible k-points:
 
 Following reciprocal coordinates:
            Coordinates               Weight
  0.000000  0.000000  0.000000      1.000000
  0.023810  0.000000  0.000000     12.000000
  0.047619  0.000000  0.000000     12.000000
  0.071429  0.000000  0.000000     12.000000
  0.095238  0.000000  0.000000     12.000000
  0.119048  0.000000  0.000000     12.000000
  0.142857  0.000000  0.000000     12.000000
  0.166667  0.000000  0.000000     12.000000
  0.190476  0.000000  0.000000     12.000000
  0.214286  0.000000  0.000000     12.000000
  0.238095  0.000000  0.000000     12.000000
  0.261905  0.000000  0.000000     12.000000
  0.285714  0.000000  0.000000     12.000000
  0.309524  0.000000  0.000000     12.000000
  0.333333  0.000000  0.000000     12.000000
  0.357143  0.000000  0.000000     12.000000
  0.380952  0.000000  0.000000     12.000000
  0.404762  0.000000  0.000000     12.000000
  0.428571  0.000000  0.000000     12.000000
  0.452381  0.000000  0.000000     12.000000
  0.476190  0.000000  0.000000     12.000000
  0.500000  0.000000  0.000000      6.000000
  0.023810  0.023810  0.000000     24.000000
  0.047619  0.023810  0.000000     48.000000
  0.071429  0.023810 -0.000000     48.000000
  0.095238  0.023810  0.000000     48.000000
  0.119048  0.023810  0.000000     48.000000
  0.142857  0.023810  0.000000     48.000000
  0.166667  0.023810  0.000000     48.000000
  0.190476  0.023810 -0.000000     48.000000
  0.214286  0.023810 -0.000000     48.000000
  0.238095  0.023810 -0.000000     48.000000
  0.261905  0.023810  0.000000     48.000000
  0.285714  0.023810  0.000000     48.000000
  0.309524  0.023810  0.000000     48.000000
  0.333333  0.023810  0.000000     48.000000
  0.357143  0.023810  0.000000     48.000000
  0.380952  0.023810 -0.000000     48.000000
  0.404762  0.023810  0.000000     48.000000
  0.428571  0.023810  0.000000     48.000000
  0.452381  0.023810 -0.000000     48.000000
  0.476190  0.023810  0.000000     48.000000
  0.047619  0.047619  0.000000     24.000000
  0.071429  0.047619 -0.000000     48.000000
  0.095238  0.047619  0.000000     48.000000
  0.119048  0.047619 -0.000000     48.000000
  0.142857  0.047619  0.000000     48.000000
  0.166667  0.047619  0.000000     48.000000
  0.190476  0.047619  0.000000     48.000000
  0.214286  0.047619  0.000000     48.000000
  0.238095  0.047619  0.000000     48.000000
  0.261905  0.047619  0.000000     48.000000
  0.285714  0.047619  0.000000     48.000000
  0.309524  0.047619  0.000000     48.000000
  0.333333  0.047619  0.000000     48.000000
  0.357143  0.047619  0.000000     48.000000
  0.380952  0.047619 -0.000000     48.000000
  0.404762  0.047619 -0.000000     48.000000
  0.428571  0.047619 -0.000000     48.000000
  0.452381  0.047619 -0.000000     48.000000
  0.476190  0.047619 -0.000000     24.000000
  0.071429  0.071429  0.000000     24.000000
  0.095238  0.071429 -0.000000     48.000000
  0.119048  0.071429 -0.000000     48.000000
  0.142857  0.071429  0.000000     48.000000
  0.166667  0.071429  0.000000     48.000000
  0.190476  0.071429  0.000000     48.000000
  0.214286  0.071429  0.000000     48.000000
  0.238095  0.071429  0.000000     48.000000
  0.261905  0.071429  0.000000     48.000000
  0.285714  0.071429  0.000000     48.000000
  0.309524  0.071429  0.000000     48.000000
  0.333333  0.071429  0.000000     48.000000
  0.357143  0.071429 -0.000000     48.000000
  0.380952  0.071429 -0.000000     48.000000
  0.404762  0.071429 -0.000000     48.000000
  0.428571  0.071429 -0.000000     48.000000
  0.452381  0.071429  0.000000     48.000000
  0.095238  0.095238  0.000000     24.000000
  0.119048  0.095238  0.000000     48.000000
  0.142857  0.095238  0.000000     48.000000
  0.166667  0.095238  0.000000     48.000000
  0.190476  0.095238  0.000000     48.000000
  0.214286  0.095238  0.000000     48.000000
  0.238095  0.095238 -0.000000     48.000000
  0.261905  0.095238  0.000000     48.000000
  0.285714  0.095238  0.000000     48.000000
  0.309524  0.095238  0.000000     48.000000
  0.333333  0.095238  0.000000     48.000000
  0.357143  0.095238  0.000000     48.000000
  0.380952  0.095238  0.000000     48.000000
  0.404762  0.095238  0.000000     48.000000
  0.428571  0.095238  0.000000     48.000000
  0.452381  0.095238  0.000000     24.000000
  0.119048  0.119048  0.000000     24.000000
  0.142857  0.119048  0.000000     48.000000
  0.166667  0.119048  0.000000     48.000000
  0.190476  0.119048  0.000000     48.000000
  0.214286  0.119048  0.000000     48.000000
  0.238095  0.119048  0.000000     48.000000
  0.261905  0.119048 -0.000000     48.000000
  0.285714  0.119048  0.000000     48.000000
  0.309524  0.119048  0.000000     48.000000
  0.333333  0.119048  0.000000     48.000000
  0.357143  0.119048  0.000000     48.000000
  0.380952  0.119048 -0.000000     48.000000
  0.404762  0.119048  0.000000     48.000000
  0.428571  0.119048  0.000000     48.000000
  0.142857  0.142857  0.000000     24.000000
  0.166667  0.142857  0.000000     48.000000
  0.190476  0.142857 -0.000000     48.000000
  0.214286  0.142857  0.000000     48.000000
  0.238095  0.142857 -0.000000     48.000000
  0.261905  0.142857  0.000000     48.000000
  0.285714  0.142857  0.000000     48.000000
  0.309524  0.142857  0.000000     48.000000
  0.333333  0.142857  0.000000     48.000000
  0.357143  0.142857  0.000000     48.000000
  0.380952  0.142857 -0.000000     48.000000
  0.404762  0.142857  0.000000     48.000000
  0.428571  0.142857  0.000000     24.000000
  0.166667  0.166667  0.000000     24.000000
  0.190476  0.166667 -0.000000     48.000000
  0.214286  0.166667  0.000000     48.000000
  0.238095  0.166667  0.000000     48.000000
  0.261905  0.166667  0.000000     48.000000
  0.285714  0.166667  0.000000     48.000000
  0.309524  0.166667  0.000000     48.000000
  0.333333  0.166667  0.000000     48.000000
  0.357143  0.166667  0.000000     48.000000
  0.380952  0.166667  0.000000     48.000000
  0.404762  0.166667  0.000000     48.000000
  0.190476  0.190476  0.000000     24.000000
  0.214286  0.190476  0.000000     48.000000
  0.238095  0.190476 -0.000000     48.000000
  0.261905  0.190476  0.000000     48.000000
  0.285714  0.190476  0.000000     48.000000
  0.309524  0.190476 -0.000000     48.000000
  0.333333  0.190476  0.000000     48.000000
  0.357143  0.190476  0.000000     48.000000
  0.380952  0.190476  0.000000     48.000000
  0.404762  0.190476  0.000000     24.000000
  0.214286  0.214286  0.000000     24.000000
  0.238095  0.214286  0.000000     48.000000
  0.261905  0.214286  0.000000     48.000000
  0.285714  0.214286 -0.000000     48.000000
  0.309524  0.214286  0.000000     48.000000
  0.333333  0.214286  0.000000     48.000000
  0.357143  0.214286  0.000000     48.000000
  0.380952  0.214286  0.000000     48.000000
  0.238095  0.238095  0.000000     24.000000
  0.261905  0.238095 -0.000000     48.000000
  0.285714  0.238095  0.000000     48.000000
  0.309524  0.238095  0.000000     48.000000
  0.333333  0.238095  0.000000     48.000000
  0.357143  0.238095  0.000000     48.000000
  0.380952  0.238095  0.000000     24.000000
  0.261905  0.261905  0.000000     24.000000
  0.285714  0.261905  0.000000     48.000000
  0.309524  0.261905  0.000000     48.000000
  0.333333  0.261905  0.000000     48.000000
  0.357143  0.261905  0.000000     48.000000
  0.285714  0.285714  0.000000     24.000000
  0.309524  0.285714  0.000000     48.000000
  0.333333  0.285714  0.000000     48.000000
  0.357143  0.285714 -0.000000     24.000000
  0.309524  0.309524  0.000000     24.000000
  0.333333  0.309524 -0.000000     48.000000
  0.333333  0.333333  0.000000      8.000000
  0.023810  0.023810  0.023810      8.000000
  0.047619  0.023810  0.023810     24.000000
  0.071429  0.023810  0.023810     24.000000
  0.095238  0.023810  0.023810     24.000000
  0.119048  0.023810  0.023810     24.000000
  0.142857  0.023810  0.023810     24.000000
  0.166667  0.023810  0.023810     24.000000
  0.190476  0.023810  0.023810     24.000000
  0.214286  0.023810  0.023810     24.000000
  0.238095  0.023810  0.023810     24.000000
  0.261905  0.023810  0.023810     24.000000
  0.285714  0.023810  0.023810     24.000000
  0.309524  0.023810  0.023810     24.000000
  0.333333  0.023810  0.023810     24.000000
  0.357143  0.023810  0.023810     24.000000
  0.380952  0.023810  0.023810     24.000000
  0.404762  0.023810  0.023810     24.000000
  0.428571  0.023810  0.023810     24.000000
  0.452381  0.023810  0.023810     24.000000
  0.476190  0.023810  0.023810     12.000000
 -0.023810  0.023810  0.023810      6.000000
  0.047619  0.047619  0.023810     24.000000
  0.071429  0.047619  0.023810     48.000000
  0.095238  0.047619  0.023810     48.000000
  0.119048  0.047619  0.023810     48.000000
  0.142857  0.047619  0.023810     48.000000
  0.166667  0.047619  0.023810     48.000000
  0.190476  0.047619  0.023810     48.000000
  0.214286  0.047619  0.023810     48.000000
  0.238095  0.047619  0.023810     48.000000
  0.261905  0.047619  0.023810     48.000000
  0.285714  0.047619  0.023810     48.000000
  0.309524  0.047619  0.023810     48.000000
  0.333333  0.047619  0.023810     48.000000
  0.357143  0.047619  0.023810     48.000000
  0.380952  0.047619  0.023810     48.000000
  0.404762  0.047619  0.023810     48.000000
  0.428571  0.047619  0.023810     48.000000
  0.452381  0.047619  0.023810     48.000000
 -0.047619  0.047619  0.023810     24.000000
  0.071429  0.071429  0.023810     24.000000
  0.095238  0.071429  0.023810     48.000000
  0.119048  0.071429  0.023810     48.000000
  0.142857  0.071429  0.023810     48.000000
  0.166667  0.071429  0.023810     48.000000
  0.190476  0.071429  0.023810     48.000000
  0.214286  0.071429  0.023810     48.000000
  0.238095  0.071429  0.023810     48.000000
  0.261905  0.071429  0.023810     48.000000
  0.285714  0.071429  0.023810     48.000000
  0.309524  0.071429  0.023810     48.000000
  0.333333  0.071429  0.023810     48.000000
  0.357143  0.071429  0.023810     48.000000
  0.380952  0.071429  0.023810     48.000000
  0.404762  0.071429  0.023810     48.000000
  0.428571  0.071429  0.023810     48.000000
  0.452381  0.071429  0.023810     24.000000
 -0.071429  0.071429  0.023810     24.000000
 -0.047619  0.071429  0.023810     24.000000
  0.095238  0.095238  0.023810     24.000000
  0.119048  0.095238  0.023810     48.000000
  0.142857  0.095238  0.023810     48.000000
  0.166667  0.095238  0.023810     48.000000
  0.190476  0.095238  0.023810     48.000000
  0.214286  0.095238  0.023810     48.000000
  0.238095  0.095238  0.023810     48.000000
  0.261905  0.095238  0.023810     48.000000
  0.285714  0.095238  0.023810     48.000000
  0.309524  0.095238  0.023810     48.000000
  0.333333  0.095238  0.023810     48.000000
  0.357143  0.095238  0.023810     48.000000
  0.380952  0.095238  0.023810     48.000000
  0.404762  0.095238  0.023810     48.000000
  0.428571  0.095238  0.023810     48.000000
 -0.095238  0.095238  0.023810     24.000000
 -0.071429  0.095238  0.023810     48.000000
  0.119048  0.119048  0.023810     24.000000
  0.142857  0.119048  0.023810     48.000000
  0.166667  0.119048  0.023810     48.000000
  0.190476  0.119048  0.023810     48.000000
  0.214286  0.119048  0.023810     48.000000
  0.238095  0.119048  0.023810     48.000000
  0.261905  0.119048  0.023810     48.000000
  0.285714  0.119048  0.023810     48.000000
  0.309524  0.119048  0.023810     48.000000
  0.333333  0.119048  0.023810     48.000000
  0.357143  0.119048  0.023810     48.000000
  0.380952  0.119048  0.023810     48.000000
  0.404762  0.119048  0.023810     48.000000
  0.428571  0.119048  0.023810     24.000000
 -0.119048  0.119048  0.023810     24.000000
 -0.095238  0.119048  0.023810     48.000000
 -0.071429  0.119048  0.023810     24.000000
  0.142857  0.142857  0.023810     24.000000
  0.166667  0.142857  0.023810     48.000000
  0.190476  0.142857  0.023810     48.000000
  0.214286  0.142857  0.023810     48.000000
  0.238095  0.142857  0.023810     48.000000
  0.261905  0.142857  0.023810     48.000000
  0.285714  0.142857  0.023810     48.000000
  0.309524  0.142857  0.023810     48.000000
  0.333333  0.142857  0.023810     48.000000
  0.357143  0.142857  0.023810     48.000000
  0.380952  0.142857  0.023810     48.000000
  0.404762  0.142857  0.023810     48.000000
 -0.142857  0.142857  0.023810     24.000000
 -0.119048  0.142857  0.023810     48.000000
 -0.095238  0.142857  0.023810     48.000000
  0.166667  0.166667  0.023810     24.000000
  0.190476  0.166667  0.023810     48.000000
  0.214286  0.166667  0.023810     48.000000
  0.238095  0.166667  0.023810     48.000000
  0.261905  0.166667  0.023810     48.000000
  0.285714  0.166667  0.023810     48.000000
  0.309524  0.166667  0.023810     48.000000
  0.333333  0.166667  0.023810     48.000000
  0.357143  0.166667  0.023810     48.000000
  0.380952  0.166667  0.023810     48.000000
  0.404762  0.166667  0.023810     24.000000
 -0.166667  0.166667  0.023810     24.000000
 -0.142857  0.166667  0.023810     48.000000
 -0.119048  0.166667  0.023810     48.000000
 -0.095238  0.166667  0.023810     24.000000
  0.190476  0.190476  0.023810     24.000000
  0.214286  0.190476  0.023810     48.000000
  0.238095  0.190476  0.023810     48.000000
  0.261905  0.190476  0.023810     48.000000
  0.285714  0.190476  0.023810     48.000000
  0.309524  0.190476  0.023810     48.000000
  0.333333  0.190476  0.023810     48.000000
  0.357143  0.190476  0.023810     48.000000
  0.380952  0.190476  0.023810     48.000000
 -0.190476  0.190476  0.023810     24.000000
 -0.166667  0.190476  0.023810     48.000000
 -0.142857  0.190476  0.023810     48.000000
 -0.119048  0.190476  0.023810     48.000000
  0.214286  0.214286  0.023810     24.000000
  0.238095  0.214286  0.023810     48.000000
  0.261905  0.214286  0.023810     48.000000
  0.285714  0.214286  0.023810     48.000000
  0.309524  0.214286  0.023810     48.000000
  0.333333  0.214286  0.023810     48.000000
  0.357143  0.214286  0.023810     48.000000
  0.380952  0.214286  0.023810     24.000000
 -0.214286  0.214286  0.023810     24.000000
 -0.190476  0.214286  0.023810     48.000000
 -0.166667  0.214286  0.023810     48.000000
 -0.142857  0.214286  0.023810     48.000000
 -0.119048  0.214286  0.023810     24.000000
  0.238095  0.238095  0.023810     24.000000
  0.261905  0.238095  0.023810     48.000000
  0.285714  0.238095  0.023810     48.000000
  0.309524  0.238095  0.023810     48.000000
  0.333333  0.238095  0.023810     48.000000
  0.357143  0.238095  0.023810     48.000000
 -0.238095  0.238095  0.023810     24.000000
 -0.214286  0.238095  0.023810     48.000000
 -0.190476  0.238095  0.023810     48.000000
 -0.166667  0.238095  0.023810     48.000000
 -0.142857  0.238095  0.023810     48.000000
  0.261905  0.261905  0.023810     24.000000
  0.285714  0.261905  0.023810     48.000000
  0.309524  0.261905  0.023810     48.000000
  0.333333  0.261905  0.023810     48.000000
  0.357143  0.261905  0.023810     24.000000
 -0.261905  0.261905  0.023810     24.000000
 -0.238095  0.261905  0.023810     48.000000
 -0.214286  0.261905  0.023810     48.000000
 -0.190476  0.261905  0.023810     48.000000
 -0.166667  0.261905  0.023810     48.000000
 -0.142857  0.261905  0.023810     24.000000
  0.285714  0.285714  0.023810     24.000000
  0.309524  0.285714  0.023810     48.000000
  0.333333  0.285714  0.023810     48.000000
 -0.285714  0.285714  0.023810     24.000000
 -0.261905  0.285714  0.023810     48.000000
 -0.238095  0.285714  0.023810     48.000000
 -0.214286  0.285714  0.023810     48.000000
 -0.190476  0.285714  0.023810     48.000000
 -0.166667  0.285714  0.023810     48.000000
  0.309524  0.309524  0.023810     24.000000
  0.333333  0.309524  0.023810     24.000000
 -0.309524  0.309524  0.023810     24.000000
 -0.285714  0.309524  0.023810     48.000000
 -0.261905  0.309524  0.023810     48.000000
 -0.238095  0.309524  0.023810     48.000000
 -0.214286  0.309524  0.023810     48.000000
 -0.190476  0.309524  0.023810     48.000000
 -0.166667  0.309524  0.023810     24.000000
 -0.333333  0.333333  0.023810     24.000000
 -0.309524  0.333333  0.023810     48.000000
 -0.285714  0.333333  0.023810     48.000000
 -0.261905  0.333333  0.023810     48.000000
 -0.238095  0.333333  0.023810     48.000000
 -0.214286  0.333333  0.023810     48.000000
 -0.190476  0.333333  0.023810     48.000000
 -0.357143  0.357143  0.023810     24.000000
 -0.333333  0.357143  0.023810     48.000000
 -0.309524  0.357143  0.023810     48.000000
 -0.285714  0.357143  0.023810     48.000000
 -0.261905  0.357143  0.023810     48.000000
 -0.238095  0.357143  0.023810     48.000000
 -0.214286  0.357143  0.023810     48.000000
 -0.190476  0.357143  0.023810     24.000000
 -0.380952  0.380952  0.023810     24.000000
 -0.357143  0.380952  0.023810     48.000000
 -0.333333  0.380952  0.023810     48.000000
 -0.309524  0.380952  0.023810     48.000000
 -0.285714  0.380952  0.023810     48.000000
 -0.261905  0.380952  0.023810     48.000000
 -0.238095  0.380952  0.023810     48.000000
 -0.214286  0.380952  0.023810     48.000000
 -0.404762  0.404762  0.023810     24.000000
 -0.380952  0.404762  0.023810     48.000000
 -0.357143  0.404762  0.023810     48.000000
 -0.333333  0.404762  0.023810     48.000000
 -0.309524  0.404762  0.023810     48.000000
 -0.285714  0.404762  0.023810     48.000000
 -0.261905  0.404762  0.023810     48.000000
 -0.238095  0.404762  0.023810     48.000000
 -0.214286  0.404762  0.023810     24.000000
 -0.428571  0.428571  0.023810     24.000000
 -0.404762  0.428571  0.023810     48.000000
 -0.380952  0.428571  0.023810     48.000000
 -0.357143  0.428571  0.023810     48.000000
 -0.333333  0.428571  0.023810     48.000000
 -0.309524  0.428571  0.023810     48.000000
 -0.285714  0.428571  0.023810     48.000000
 -0.261905  0.428571  0.023810     48.000000
 -0.238095  0.428571  0.023810     48.000000
 -0.452381  0.452381  0.023810     24.000000
 -0.428571  0.452381  0.023810     48.000000
 -0.404762  0.452381  0.023810     48.000000
 -0.380952  0.452381  0.023810     48.000000
 -0.357143  0.452381  0.023810     48.000000
 -0.333333  0.452381  0.023810     48.000000
 -0.309524  0.452381  0.023810     48.000000
 -0.285714  0.452381  0.023810     48.000000
 -0.261905  0.452381  0.023810     48.000000
 -0.238095  0.452381  0.023810     24.000000
 -0.476190  0.476190  0.023810     24.000000
 -0.452381  0.476190  0.023810     48.000000
 -0.428571  0.476190  0.023810     48.000000
 -0.404762  0.476190  0.023810     48.000000
 -0.380952  0.476190  0.023810     48.000000
 -0.357143  0.476190  0.023810     48.000000
 -0.333333  0.476190  0.023810     48.000000
 -0.309524  0.476190  0.023810     48.000000
 -0.285714  0.476190  0.023810     48.000000
 -0.261905  0.476190  0.023810     48.000000
  0.500000  0.500000  0.023810     12.000000
 -0.476190  0.500000  0.023810     48.000000
 -0.452381  0.500000  0.023810     48.000000
 -0.428571  0.500000  0.023810     48.000000
 -0.404762  0.500000  0.023810     48.000000
 -0.380952  0.500000  0.023810     48.000000
 -0.357143  0.500000  0.023810     48.000000
 -0.333333  0.500000  0.023810     48.000000
 -0.309524  0.500000  0.023810     48.000000
 -0.285714  0.500000  0.023810     48.000000
 -0.261905  0.500000  0.023810     24.000000
 -0.476190 -0.476190  0.023810     24.000000
 -0.452381 -0.476190  0.023810     48.000000
 -0.428571 -0.476190  0.023810     48.000000
 -0.404762 -0.476190  0.023810     48.000000
 -0.380952 -0.476190  0.023810     48.000000
 -0.357143 -0.476190  0.023810     48.000000
 -0.333333 -0.476190  0.023810     48.000000
 -0.309524 -0.476190  0.023810     48.000000
 -0.285714 -0.476190  0.023810     48.000000
 -0.452381 -0.452381  0.023810     24.000000
 -0.428571 -0.452381  0.023810     48.000000
 -0.404762 -0.452381  0.023810     48.000000
 -0.380952 -0.452381  0.023810     48.000000
 -0.357143 -0.452381  0.023810     48.000000
 -0.333333 -0.452381  0.023810     48.000000
 -0.309524 -0.452381  0.023810     48.000000
 -0.285714 -0.452381  0.023810     24.000000
 -0.428571 -0.428571  0.023810     24.000000
 -0.404762 -0.428571  0.023810     48.000000
 -0.380952 -0.428571  0.023810     48.000000
 -0.357143 -0.428571  0.023810     48.000000
 -0.333333 -0.428571  0.023810     48.000000
 -0.309524 -0.428571  0.023810     48.000000
 -0.404762 -0.404762  0.023810     24.000000
 -0.380952 -0.404762  0.023810     48.000000
 -0.357143 -0.404762  0.023810     48.000000
 -0.333333 -0.404762  0.023810     48.000000
 -0.309524 -0.404762  0.023810     24.000000
 -0.380952 -0.380952  0.023810     24.000000
 -0.357143 -0.380952  0.023810     48.000000
 -0.333333 -0.380952  0.023810     48.000000
 -0.357143 -0.357143  0.023810     24.000000
 -0.333333 -0.357143  0.023810     24.000000
  0.047619  0.047619  0.047619      8.000000
  0.071429  0.047619  0.047619     24.000000
  0.095238  0.047619  0.047619     24.000000
  0.119048  0.047619  0.047619     24.000000
  0.142857  0.047619  0.047619     24.000000
  0.166667  0.047619  0.047619     24.000000
  0.190476  0.047619  0.047619     24.000000
  0.214286  0.047619  0.047619     24.000000
  0.238095  0.047619  0.047619     24.000000
  0.261905  0.047619  0.047619     24.000000
  0.285714  0.047619  0.047619     24.000000
  0.309524  0.047619  0.047619     24.000000
  0.333333  0.047619  0.047619     24.000000
  0.357143  0.047619  0.047619     24.000000
  0.380952  0.047619  0.047619     24.000000
  0.404762  0.047619  0.047619     24.000000
  0.428571  0.047619  0.047619     24.000000
  0.452381  0.047619  0.047619     12.000000
 -0.047619  0.047619  0.047619      6.000000
  0.071429  0.071429  0.047619     24.000000
  0.095238  0.071429  0.047619     48.000000
  0.119048  0.071429  0.047619     48.000000
  0.142857  0.071429  0.047619     48.000000
  0.166667  0.071429  0.047619     48.000000
  0.190476  0.071429  0.047619     48.000000
  0.214286  0.071429  0.047619     48.000000
  0.238095  0.071429  0.047619     48.000000
  0.261905  0.071429  0.047619     48.000000
  0.285714  0.071429  0.047619     48.000000
  0.309524  0.071429  0.047619     48.000000
  0.333333  0.071429  0.047619     48.000000
  0.357143  0.071429  0.047619     48.000000
  0.380952  0.071429  0.047619     48.000000
  0.404762  0.071429  0.047619     48.000000
  0.428571  0.071429  0.047619     48.000000
 -0.071429  0.071429  0.047619     24.000000
  0.095238  0.095238  0.047619     24.000000
  0.119048  0.095238  0.047619     48.000000
  0.142857  0.095238  0.047619     48.000000
  0.166667  0.095238  0.047619     48.000000
  0.190476  0.095238  0.047619     48.000000
  0.214286  0.095238  0.047619     48.000000
  0.238095  0.095238  0.047619     48.000000
  0.261905  0.095238  0.047619     48.000000
  0.285714  0.095238  0.047619     48.000000
  0.309524  0.095238  0.047619     48.000000
  0.333333  0.095238  0.047619     48.000000
  0.357143  0.095238  0.047619     48.000000
  0.380952  0.095238  0.047619     48.000000
  0.404762  0.095238  0.047619     48.000000
  0.428571  0.095238  0.047619     24.000000
 -0.095238  0.095238  0.047619     24.000000
 -0.071429  0.095238  0.047619     24.000000
  0.119048  0.119048  0.047619     24.000000
  0.142857  0.119048  0.047619     48.000000
  0.166667  0.119048  0.047619     48.000000
  0.190476  0.119048  0.047619     48.000000
  0.214286  0.119048  0.047619     48.000000
  0.238095  0.119048  0.047619     48.000000
  0.261905  0.119048  0.047619     48.000000
  0.285714  0.119048  0.047619     48.000000
  0.309524  0.119048  0.047619     48.000000
  0.333333  0.119048  0.047619     48.000000
  0.357143  0.119048  0.047619     48.000000
  0.380952  0.119048  0.047619     48.000000
  0.404762  0.119048  0.047619     48.000000
 -0.119048  0.119048  0.047619     24.000000
 -0.095238  0.119048  0.047619     48.000000
  0.142857  0.142857  0.047619     24.000000
  0.166667  0.142857  0.047619     48.000000
  0.190476  0.142857  0.047619     48.000000
  0.214286  0.142857  0.047619     48.000000
  0.238095  0.142857  0.047619     48.000000
  0.261905  0.142857  0.047619     48.000000
  0.285714  0.142857  0.047619     48.000000
  0.309524  0.142857  0.047619     48.000000
  0.333333  0.142857  0.047619     48.000000
  0.357143  0.142857  0.047619     48.000000
  0.380952  0.142857  0.047619     48.000000
  0.404762  0.142857  0.047619     24.000000
 -0.142857  0.142857  0.047619     24.000000
 -0.119048  0.142857  0.047619     48.000000
 -0.095238  0.142857  0.047619     24.000000
  0.166667  0.166667  0.047619     24.000000
  0.190476  0.166667  0.047619     48.000000
  0.214286  0.166667  0.047619     48.000000
  0.238095  0.166667  0.047619     48.000000
  0.261905  0.166667  0.047619     48.000000
  0.285714  0.166667  0.047619     48.000000
  0.309524  0.166667  0.047619     48.000000
  0.333333  0.166667  0.047619     48.000000
  0.357143  0.166667  0.047619     48.000000
  0.380952  0.166667  0.047619     48.000000
 -0.166667  0.166667  0.047619     24.000000
 -0.142857  0.166667  0.047619     48.000000
 -0.119048  0.166667  0.047619     48.000000
  0.190476  0.190476  0.047619     24.000000
  0.214286  0.190476  0.047619     48.000000
  0.238095  0.190476  0.047619     48.000000
  0.261905  0.190476  0.047619     48.000000
  0.285714  0.190476  0.047619     48.000000
  0.309524  0.190476  0.047619     48.000000
  0.333333  0.190476  0.047619     48.000000
  0.357143  0.190476  0.047619     48.000000
  0.380952  0.190476  0.047619     24.000000
 -0.190476  0.190476  0.047619     24.000000
 -0.166667  0.190476  0.047619     48.000000
 -0.142857  0.190476  0.047619     48.000000
 -0.119048  0.190476  0.047619     24.000000
  0.214286  0.214286  0.047619     24.000000
  0.238095  0.214286  0.047619     48.000000
  0.261905  0.214286  0.047619     48.000000
  0.285714  0.214286  0.047619     48.000000
  0.309524  0.214286  0.047619     48.000000
  0.333333  0.214286  0.047619     48.000000
  0.357143  0.214286  0.047619     48.000000
 -0.214286  0.214286  0.047619     24.000000
 -0.190476  0.214286  0.047619     48.000000
 -0.166667  0.214286  0.047619     48.000000
 -0.142857  0.214286  0.047619     48.000000
  0.238095  0.238095  0.047619     24.000000
  0.261905  0.238095  0.047619     48.000000
  0.285714  0.238095  0.047619     48.000000
  0.309524  0.238095  0.047619     48.000000
  0.333333  0.238095  0.047619     48.000000
  0.357143  0.238095  0.047619     24.000000
 -0.238095  0.238095  0.047619     24.000000
 -0.214286  0.238095  0.047619     48.000000
 -0.190476  0.238095  0.047619     48.000000
 -0.166667  0.238095  0.047619     48.000000
 -0.142857  0.238095  0.047619     24.000000
  0.261905  0.261905  0.047619     24.000000
  0.285714  0.261905  0.047619     48.000000
  0.309524  0.261905  0.047619     48.000000
  0.333333  0.261905  0.047619     48.000000
 -0.261905  0.261905  0.047619     24.000000
 -0.238095  0.261905  0.047619     48.000000
 -0.214286  0.261905  0.047619     48.000000
 -0.190476  0.261905  0.047619     48.000000
 -0.166667  0.261905  0.047619     48.000000
  0.285714  0.285714  0.047619     24.000000
  0.309524  0.285714  0.047619     48.000000
  0.333333  0.285714  0.047619     24.000000
 -0.285714  0.285714  0.047619     24.000000
 -0.261905  0.285714  0.047619     48.000000
 -0.238095  0.285714  0.047619     48.000000
 -0.214286  0.285714  0.047619     48.000000
 -0.190476  0.285714  0.047619     48.000000
 -0.166667  0.285714  0.047619     24.000000
  0.309524  0.309524  0.047619     24.000000
 -0.309524  0.309524  0.047619     24.000000
 -0.285714  0.309524  0.047619     48.000000
 -0.261905  0.309524  0.047619     48.000000
 -0.238095  0.309524  0.047619     48.000000
 -0.214286  0.309524  0.047619     48.000000
 -0.190476  0.309524  0.047619     48.000000
 -0.333333  0.333333  0.047619     24.000000
 -0.309524  0.333333  0.047619     48.000000
 -0.285714  0.333333  0.047619     48.000000
 -0.261905  0.333333  0.047619     48.000000
 -0.238095  0.333333  0.047619     48.000000
 -0.214286  0.333333  0.047619     48.000000
 -0.190476  0.333333  0.047619     24.000000
 -0.357143  0.357143  0.047619     24.000000
 -0.333333  0.357143  0.047619     48.000000
 -0.309524  0.357143  0.047619     48.000000
 -0.285714  0.357143  0.047619     48.000000
 -0.261905  0.357143  0.047619     48.000000
 -0.238095  0.357143  0.047619     48.000000
 -0.214286  0.357143  0.047619     48.000000
 -0.380952  0.380952  0.047619     24.000000
 -0.357143  0.380952  0.047619     48.000000
 -0.333333  0.380952  0.047619     48.000000
 -0.309524  0.380952  0.047619     48.000000
 -0.285714  0.380952  0.047619     48.000000
 -0.261905  0.380952  0.047619     48.000000
 -0.238095  0.380952  0.047619     48.000000
 -0.214286  0.380952  0.047619     24.000000
 -0.404762  0.404762  0.047619     24.000000
 -0.380952  0.404762  0.047619     48.000000
 -0.357143  0.404762  0.047619     48.000000
 -0.333333  0.404762  0.047619     48.000000
 -0.309524  0.404762  0.047619     48.000000
 -0.285714  0.404762  0.047619     48.000000
 -0.261905  0.404762  0.047619     48.000000
 -0.238095  0.404762  0.047619     48.000000
 -0.428571  0.428571  0.047619     24.000000
 -0.404762  0.428571  0.047619     48.000000
 -0.380952  0.428571  0.047619     48.000000
 -0.357143  0.428571  0.047619     48.000000
 -0.333333  0.428571  0.047619     48.000000
 -0.309524  0.428571  0.047619     48.000000
 -0.285714  0.428571  0.047619     48.000000
 -0.261905  0.428571  0.047619     48.000000
 -0.238095  0.428571  0.047619     24.000000
 -0.452381  0.452381  0.047619     24.000000
 -0.428571  0.452381  0.047619     48.000000
 -0.404762  0.452381  0.047619     48.000000
 -0.380952  0.452381  0.047619     48.000000
 -0.357143  0.452381  0.047619     48.000000
 -0.333333  0.452381  0.047619     48.000000
 -0.309524  0.452381  0.047619     48.000000
 -0.285714  0.452381  0.047619     48.000000
 -0.261905  0.452381  0.047619     48.000000
 -0.476190  0.476190  0.047619     24.000000
 -0.452381  0.476190  0.047619     48.000000
 -0.428571  0.476190  0.047619     48.000000
 -0.404762  0.476190  0.047619     48.000000
 -0.380952  0.476190  0.047619     48.000000
 -0.357143  0.476190  0.047619     48.000000
 -0.333333  0.476190  0.047619     48.000000
 -0.309524  0.476190  0.047619     48.000000
 -0.285714  0.476190  0.047619     48.000000
 -0.261905  0.476190  0.047619     24.000000
  0.500000  0.500000  0.047619     12.000000
 -0.476190  0.500000  0.047619     48.000000
 -0.452381  0.500000  0.047619     48.000000
 -0.428571  0.500000  0.047619     48.000000
 -0.404762  0.500000  0.047619     48.000000
 -0.380952  0.500000  0.047619     48.000000
 -0.357143  0.500000  0.047619     48.000000
 -0.333333  0.500000  0.047619     48.000000
 -0.309524  0.500000  0.047619     48.000000
 -0.285714  0.500000  0.047619     48.000000
 -0.476190 -0.476190  0.047619     24.000000
 -0.452381 -0.476190  0.047619     48.000000
 -0.428571 -0.476190  0.047619     48.000000
 -0.404762 -0.476190  0.047619     48.000000
 -0.380952 -0.476190  0.047619     48.000000
 -0.357143 -0.476190  0.047619     48.000000
 -0.333333 -0.476190  0.047619     48.000000
 -0.309524 -0.476190  0.047619     48.000000
 -0.285714 -0.476190  0.047619     24.000000
 -0.452381 -0.452381  0.047619     24.000000
 -0.428571 -0.452381  0.047619     48.000000
 -0.404762 -0.452381  0.047619     48.000000
 -0.380952 -0.452381  0.047619     48.000000
 -0.357143 -0.452381  0.047619     48.000000
 -0.333333 -0.452381  0.047619     48.000000
 -0.309524 -0.452381  0.047619     48.000000
 -0.428571 -0.428571  0.047619     24.000000
 -0.404762 -0.428571  0.047619     48.000000
 -0.380952 -0.428571  0.047619     48.000000
 -0.357143 -0.428571  0.047619     48.000000
 -0.333333 -0.428571  0.047619     48.000000
 -0.309524 -0.428571  0.047619     24.000000
 -0.404762 -0.404762  0.047619     24.000000
 -0.380952 -0.404762  0.047619     48.000000
 -0.357143 -0.404762  0.047619     48.000000
 -0.333333 -0.404762  0.047619     48.000000
 -0.380952 -0.380952  0.047619     24.000000
 -0.357143 -0.380952  0.047619     48.000000
 -0.333333 -0.380952  0.047619     24.000000
 -0.357143 -0.357143  0.047619     24.000000
  0.071429  0.071429  0.071429      8.000000
  0.095238  0.071429  0.071429     24.000000
  0.119048  0.071429  0.071429     24.000000
  0.142857  0.071429  0.071429     24.000000
  0.166667  0.071429  0.071429     24.000000
  0.190476  0.071429  0.071429     24.000000
  0.214286  0.071429  0.071429     24.000000
  0.238095  0.071429  0.071429     24.000000
  0.261905  0.071429  0.071429     24.000000
  0.285714  0.071429  0.071429     24.000000
  0.309524  0.071429  0.071429     24.000000
  0.333333  0.071429  0.071429     24.000000
  0.357143  0.071429  0.071429     24.000000
  0.380952  0.071429  0.071429     24.000000
  0.404762  0.071429  0.071429     24.000000
  0.428571  0.071429  0.071429     12.000000
 -0.071429  0.071429  0.071429      6.000000
  0.095238  0.095238  0.071429     24.000000
  0.119048  0.095238  0.071429     48.000000
  0.142857  0.095238  0.071429     48.000000
  0.166667  0.095238  0.071429     48.000000
  0.190476  0.095238  0.071429     48.000000
  0.214286  0.095238  0.071429     48.000000
  0.238095  0.095238  0.071429     48.000000
  0.261905  0.095238  0.071429     48.000000
  0.285714  0.095238  0.071429     48.000000
  0.309524  0.095238  0.071429     48.000000
  0.333333  0.095238  0.071429     48.000000
  0.357143  0.095238  0.071429     48.000000
  0.380952  0.095238  0.071429     48.000000
  0.404762  0.095238  0.071429     48.000000
 -0.095238  0.095238  0.071429     24.000000
  0.119048  0.119048  0.071429     24.000000
  0.142857  0.119048  0.071429     48.000000
  0.166667  0.119048  0.071429     48.000000
  0.190476  0.119048  0.071429     48.000000
  0.214286  0.119048  0.071429     48.000000
  0.238095  0.119048  0.071429     48.000000
  0.261905  0.119048  0.071429     48.000000
  0.285714  0.119048  0.071429     48.000000
  0.309524  0.119048  0.071429     48.000000
  0.333333  0.119048  0.071429     48.000000
  0.357143  0.119048  0.071429     48.000000
  0.380952  0.119048  0.071429     48.000000
  0.404762  0.119048  0.071429     24.000000
 -0.119048  0.119048  0.071429     24.000000
 -0.095238  0.119048  0.071429     24.000000
  0.142857  0.142857  0.071429     24.000000
  0.166667  0.142857  0.071429     48.000000
  0.190476  0.142857  0.071429     48.000000
  0.214286  0.142857  0.071429     48.000000
  0.238095  0.142857  0.071429     48.000000
  0.261905  0.142857  0.071429     48.000000
  0.285714  0.142857  0.071429     48.000000
  0.309524  0.142857  0.071429     48.000000
  0.333333  0.142857  0.071429     48.000000
  0.357143  0.142857  0.071429     48.000000
  0.380952  0.142857  0.071429     48.000000
 -0.142857  0.142857  0.071429     24.000000
 -0.119048  0.142857  0.071429     48.000000
  0.166667  0.166667  0.071429     24.000000
  0.190476  0.166667  0.071429     48.000000
  0.214286  0.166667  0.071429     48.000000
  0.238095  0.166667  0.071429     48.000000
  0.261905  0.166667  0.071429     48.000000
  0.285714  0.166667  0.071429     48.000000
  0.309524  0.166667  0.071429     48.000000
  0.333333  0.166667  0.071429     48.000000
  0.357143  0.166667  0.071429     48.000000
  0.380952  0.166667  0.071429     24.000000
 -0.166667  0.166667  0.071429     24.000000
 -0.142857  0.166667  0.071429     48.000000
 -0.119048  0.166667  0.071429     24.000000
  0.190476  0.190476  0.071429     24.000000
  0.214286  0.190476  0.071429     48.000000
  0.238095  0.190476  0.071429     48.000000
  0.261905  0.190476  0.071429     48.000000
  0.285714  0.190476  0.071429     48.000000
  0.309524  0.190476  0.071429     48.000000
  0.333333  0.190476  0.071429     48.000000
  0.357143  0.190476  0.071429     48.000000
 -0.190476  0.190476  0.071429     24.000000
 -0.166667  0.190476  0.071429     48.000000
 -0.142857  0.190476  0.071429     48.000000
  0.214286  0.214286  0.071429     24.000000
  0.238095  0.214286  0.071429     48.000000
  0.261905  0.214286  0.071429     48.000000
  0.285714  0.214286  0.071429     48.000000
  0.309524  0.214286  0.071429     48.000000
  0.333333  0.214286  0.071429     48.000000
  0.357143  0.214286  0.071429     24.000000
 -0.214286  0.214286  0.071429     24.000000
 -0.190476  0.214286  0.071429     48.000000
 -0.166667  0.214286  0.071429     48.000000
 -0.142857  0.214286  0.071429     24.000000
  0.238095  0.238095  0.071429     24.000000
  0.261905  0.238095  0.071429     48.000000
  0.285714  0.238095  0.071429     48.000000
  0.309524  0.238095  0.071429     48.000000
  0.333333  0.238095  0.071429     48.000000
 -0.238095  0.238095  0.071429     24.000000
 -0.214286  0.238095  0.071429     48.000000
 -0.190476  0.238095  0.071429     48.000000
 -0.166667  0.238095  0.071429     48.000000
  0.261905  0.261905  0.071429     24.000000
  0.285714  0.261905  0.071429     48.000000
  0.309524  0.261905  0.071429     48.000000
  0.333333  0.261905  0.071429     24.000000
 -0.261905  0.261905  0.071429     24.000000
 -0.238095  0.261905  0.071429     48.000000
 -0.214286  0.261905  0.071429     48.000000
 -0.190476  0.261905  0.071429     48.000000
 -0.166667  0.261905  0.071429     24.000000
  0.285714  0.285714  0.071429     24.000000
  0.309524  0.285714  0.071429     48.000000
 -0.285714  0.285714  0.071429     24.000000
 -0.261905  0.285714  0.071429     48.000000
 -0.238095  0.285714  0.071429     48.000000
 -0.214286  0.285714  0.071429     48.000000
 -0.190476  0.285714  0.071429     48.000000
  0.309524  0.309524  0.071429      8.000000
 -0.309524  0.309524  0.071429     24.000000
 -0.285714  0.309524  0.071429     48.000000
 -0.261905  0.309524  0.071429     48.000000
 -0.238095  0.309524  0.071429     48.000000
 -0.214286  0.309524  0.071429     48.000000
 -0.190476  0.309524  0.071429     24.000000
 -0.333333  0.333333  0.071429     24.000000
 -0.309524  0.333333  0.071429     48.000000
 -0.285714  0.333333  0.071429     48.000000
 -0.261905  0.333333  0.071429     48.000000
 -0.238095  0.333333  0.071429     48.000000
 -0.214286  0.333333  0.071429     48.000000
 -0.357143  0.357143  0.071429     24.000000
 -0.333333  0.357143  0.071429     48.000000
 -0.309524  0.357143  0.071429     48.000000
 -0.285714  0.357143  0.071429     48.000000
 -0.261905  0.357143  0.071429     48.000000
 -0.238095  0.357143  0.071429     48.000000
 -0.214286  0.357143  0.071429     24.000000
 -0.380952  0.380952  0.071429     24.000000
 -0.357143  0.380952  0.071429     48.000000
 -0.333333  0.380952  0.071429     48.000000
 -0.309524  0.380952  0.071429     48.000000
 -0.285714  0.380952  0.071429     48.000000
 -0.261905  0.380952  0.071429     48.000000
 -0.238095  0.380952  0.071429     48.000000
 -0.404762  0.404762  0.071429     24.000000
 -0.380952  0.404762  0.071429     48.000000
 -0.357143  0.404762  0.071429     48.000000
 -0.333333  0.404762  0.071429     48.000000
 -0.309524  0.404762  0.071429     48.000000
 -0.285714  0.404762  0.071429     48.000000
 -0.261905  0.404762  0.071429     48.000000
 -0.238095  0.404762  0.071429     24.000000
 -0.428571  0.428571  0.071429     24.000000
 -0.404762  0.428571  0.071429     48.000000
 -0.380952  0.428571  0.071429     48.000000
 -0.357143  0.428571  0.071429     48.000000
 -0.333333  0.428571  0.071429     48.000000
 -0.309524  0.428571  0.071429     48.000000
 -0.285714  0.428571  0.071429     48.000000
 -0.261905  0.428571  0.071429     48.000000
 -0.452381  0.452381  0.071429     24.000000
 -0.428571  0.452381  0.071429     48.000000
 -0.404762  0.452381  0.071429     48.000000
 -0.380952  0.452381  0.071429     48.000000
 -0.357143  0.452381  0.071429     48.000000
 -0.333333  0.452381  0.071429     48.000000
 -0.309524  0.452381  0.071429     48.000000
 -0.285714  0.452381  0.071429     48.000000
 -0.261905  0.452381  0.071429     24.000000
 -0.476190  0.476190  0.071429     24.000000
 -0.452381  0.476190  0.071429     48.000000
 -0.428571  0.476190  0.071429     48.000000
 -0.404762  0.476190  0.071429     48.000000
 -0.380952  0.476190  0.071429     48.000000
 -0.357143  0.476190  0.071429     48.000000
 -0.333333  0.476190  0.071429     48.000000
 -0.309524  0.476190  0.071429     48.000000
 -0.285714  0.476190  0.071429     48.000000
  0.500000  0.500000  0.071429     12.000000
 -0.476190  0.500000  0.071429     48.000000
 -0.452381  0.500000  0.071429     48.000000
 -0.428571  0.500000  0.071429     48.000000
 -0.404762  0.500000  0.071429     48.000000
 -0.380952  0.500000  0.071429     48.000000
 -0.357143  0.500000  0.071429     48.000000
 -0.333333  0.500000  0.071429     48.000000
 -0.309524  0.500000  0.071429     48.000000
 -0.285714  0.500000  0.071429     24.000000
 -0.476190 -0.476190  0.071429     24.000000
 -0.452381 -0.476190  0.071429     48.000000
 -0.428571 -0.476190  0.071429     48.000000
 -0.404762 -0.476190  0.071429     48.000000
 -0.380952 -0.476190  0.071429     48.000000
 -0.357143 -0.476190  0.071429     48.000000
 -0.333333 -0.476190  0.071429     48.000000
 -0.309524 -0.476190  0.071429     48.000000
 -0.452381 -0.452381  0.071429     24.000000
 -0.428571 -0.452381  0.071429     48.000000
 -0.404762 -0.452381  0.071429     48.000000
 -0.380952 -0.452381  0.071429     48.000000
 -0.357143 -0.452381  0.071429     48.000000
 -0.333333 -0.452381  0.071429     48.000000
 -0.309524 -0.452381  0.071429     24.000000
 -0.428571 -0.428571  0.071429     24.000000
 -0.404762 -0.428571  0.071429     48.000000
 -0.380952 -0.428571  0.071429     48.000000
 -0.357143 -0.428571  0.071429     48.000000
 -0.333333 -0.428571  0.071429     48.000000
 -0.404762 -0.404762  0.071429     24.000000
 -0.380952 -0.404762  0.071429     48.000000
 -0.357143 -0.404762  0.071429     48.000000
 -0.333333 -0.404762  0.071429     24.000000
 -0.380952 -0.380952  0.071429     24.000000
 -0.357143 -0.380952  0.071429     48.000000
 -0.357143 -0.357143  0.071429      8.000000
  0.095238  0.095238  0.095238      8.000000
  0.119048  0.095238  0.095238     24.000000
  0.142857  0.095238  0.095238     24.000000
  0.166667  0.095238  0.095238     24.000000
  0.190476  0.095238  0.095238     24.000000
  0.214286  0.095238  0.095238     24.000000
  0.238095  0.095238  0.095238     24.000000
  0.261905  0.095238  0.095238     24.000000
  0.285714  0.095238  0.095238     24.000000
  0.309524  0.095238  0.095238     24.000000
  0.333333  0.095238  0.095238     24.000000
  0.357143  0.095238  0.095238     24.000000
  0.380952  0.095238  0.095238     24.000000
  0.404762  0.095238  0.095238     12.000000
 -0.095238  0.095238  0.095238      6.000000
  0.119048  0.119048  0.095238     24.000000
  0.142857  0.119048  0.095238     48.000000
  0.166667  0.119048  0.095238     48.000000
  0.190476  0.119048  0.095238     48.000000
  0.214286  0.119048  0.095238     48.000000
  0.238095  0.119048  0.095238     48.000000
  0.261905  0.119048  0.095238     48.000000
  0.285714  0.119048  0.095238     48.000000
  0.309524  0.119048  0.095238     48.000000
  0.333333  0.119048  0.095238     48.000000
  0.357143  0.119048  0.095238     48.000000
  0.380952  0.119048  0.095238     48.000000
 -0.119048  0.119048  0.095238     24.000000
  0.142857  0.142857  0.095238     24.000000
  0.166667  0.142857  0.095238     48.000000
  0.190476  0.142857  0.095238     48.000000
  0.214286  0.142857  0.095238     48.000000
  0.238095  0.142857  0.095238     48.000000
  0.261905  0.142857  0.095238     48.000000
  0.285714  0.142857  0.095238     48.000000
  0.309524  0.142857  0.095238     48.000000
  0.333333  0.142857  0.095238     48.000000
  0.357143  0.142857  0.095238     48.000000
  0.380952  0.142857  0.095238     24.000000
 -0.142857  0.142857  0.095238     24.000000
 -0.119048  0.142857  0.095238     24.000000
  0.166667  0.166667  0.095238     24.000000
  0.190476  0.166667  0.095238     48.000000
  0.214286  0.166667  0.095238     48.000000
  0.238095  0.166667  0.095238     48.000000
  0.261905  0.166667  0.095238     48.000000
  0.285714  0.166667  0.095238     48.000000
  0.309524  0.166667  0.095238     48.000000
  0.333333  0.166667  0.095238     48.000000
  0.357143  0.166667  0.095238     48.000000
 -0.166667  0.166667  0.095238     24.000000
 -0.142857  0.166667  0.095238     48.000000
  0.190476  0.190476  0.095238     24.000000
  0.214286  0.190476  0.095238     48.000000
  0.238095  0.190476  0.095238     48.000000
  0.261905  0.190476  0.095238     48.000000
  0.285714  0.190476  0.095238     48.000000
  0.309524  0.190476  0.095238     48.000000
  0.333333  0.190476  0.095238     48.000000
  0.357143  0.190476  0.095238     24.000000
 -0.190476  0.190476  0.095238     24.000000
 -0.166667  0.190476  0.095238     48.000000
 -0.142857  0.190476  0.095238     24.000000
  0.214286  0.214286  0.095238     24.000000
  0.238095  0.214286  0.095238     48.000000
  0.261905  0.214286  0.095238     48.000000
  0.285714  0.214286  0.095238     48.000000
  0.309524  0.214286  0.095238     48.000000
  0.333333  0.214286  0.095238     48.000000
 -0.214286  0.214286  0.095238     24.000000
 -0.190476  0.214286  0.095238     48.000000
 -0.166667  0.214286  0.095238     48.000000
  0.238095  0.238095  0.095238     24.000000
  0.261905  0.238095  0.095238     48.000000
  0.285714  0.238095  0.095238     48.000000
  0.309524  0.238095  0.095238     48.000000
  0.333333  0.238095  0.095238     24.000000
 -0.238095  0.238095  0.095238     24.000000
 -0.214286  0.238095  0.095238     48.000000
 -0.190476  0.238095  0.095238     48.000000
 -0.166667  0.238095  0.095238     24.000000
  0.261905  0.261905  0.095238     24.000000
  0.285714  0.261905  0.095238     48.000000
  0.309524  0.261905  0.095238     48.000000
 -0.261905  0.261905  0.095238     24.000000
 -0.238095  0.261905  0.095238     48.000000
 -0.214286  0.261905  0.095238     48.000000
 -0.190476  0.261905  0.095238     48.000000
  0.285714  0.285714  0.095238     24.000000
  0.309524  0.285714  0.095238     24.000000
 -0.285714  0.285714  0.095238     24.000000
 -0.261905  0.285714  0.095238     48.000000
 -0.238095  0.285714  0.095238     48.000000
 -0.214286  0.285714  0.095238     48.000000
 -0.190476  0.285714  0.095238     24.000000
 -0.309524  0.309524  0.095238     24.000000
 -0.285714  0.309524  0.095238     48.000000
 -0.261905  0.309524  0.095238     48.000000
 -0.238095  0.309524  0.095238     48.000000
 -0.214286  0.309524  0.095238     48.000000
 -0.333333  0.333333  0.095238     24.000000
 -0.309524  0.333333  0.095238     48.000000
 -0.285714  0.333333  0.095238     48.000000
 -0.261905  0.333333  0.095238     48.000000
 -0.238095  0.333333  0.095238     48.000000
 -0.214286  0.333333  0.095238     24.000000
 -0.357143  0.357143  0.095238     24.000000
 -0.333333  0.357143  0.095238     48.000000
 -0.309524  0.357143  0.095238     48.000000
 -0.285714  0.357143  0.095238     48.000000
 -0.261905  0.357143  0.095238     48.000000
 -0.238095  0.357143  0.095238     48.000000
 -0.380952  0.380952  0.095238     24.000000
 -0.357143  0.380952  0.095238     48.000000
 -0.333333  0.380952  0.095238     48.000000
 -0.309524  0.380952  0.095238     48.000000
 -0.285714  0.380952  0.095238     48.000000
 -0.261905  0.380952  0.095238     48.000000
 -0.238095  0.380952  0.095238     24.000000
 -0.404762  0.404762  0.095238     24.000000
 -0.380952  0.404762  0.095238     48.000000
 -0.357143  0.404762  0.095238     48.000000
 -0.333333  0.404762  0.095238     48.000000
 -0.309524  0.404762  0.095238     48.000000
 -0.285714  0.404762  0.095238     48.000000
 -0.261905  0.404762  0.095238     48.000000
 -0.428571  0.428571  0.095238     24.000000
 -0.404762  0.428571  0.095238     48.000000
 -0.380952  0.428571  0.095238     48.000000
 -0.357143  0.428571  0.095238     48.000000
 -0.333333  0.428571  0.095238     48.000000
 -0.309524  0.428571  0.095238     48.000000
 -0.285714  0.428571  0.095238     48.000000
 -0.261905  0.428571  0.095238     24.000000
 -0.452381  0.452381  0.095238     24.000000
 -0.428571  0.452381  0.095238     48.000000
 -0.404762  0.452381  0.095238     48.000000
 -0.380952  0.452381  0.095238     48.000000
 -0.357143  0.452381  0.095238     48.000000
 -0.333333  0.452381  0.095238     48.000000
 -0.309524  0.452381  0.095238     48.000000
 -0.285714  0.452381  0.095238     48.000000
 -0.476190  0.476190  0.095238     24.000000
 -0.452381  0.476190  0.095238     48.000000
 -0.428571  0.476190  0.095238     48.000000
 -0.404762  0.476190  0.095238     48.000000
 -0.380952  0.476190  0.095238     48.000000
 -0.357143  0.476190  0.095238     48.000000
 -0.333333  0.476190  0.095238     48.000000
 -0.309524  0.476190  0.095238     48.000000
 -0.285714  0.476190  0.095238     24.000000
  0.500000  0.500000  0.095238     12.000000
 -0.476190  0.500000  0.095238     48.000000
 -0.452381  0.500000  0.095238     48.000000
 -0.428571  0.500000  0.095238     48.000000
 -0.404762  0.500000  0.095238     48.000000
 -0.380952  0.500000  0.095238     48.000000
 -0.357143  0.500000  0.095238     48.000000
 -0.333333  0.500000  0.095238     48.000000
 -0.309524  0.500000  0.095238     48.000000
 -0.476190 -0.476190  0.095238     24.000000
 -0.452381 -0.476190  0.095238     48.000000
 -0.428571 -0.476190  0.095238     48.000000
 -0.404762 -0.476190  0.095238     48.000000
 -0.380952 -0.476190  0.095238     48.000000
 -0.357143 -0.476190  0.095238     48.000000
 -0.333333 -0.476190  0.095238     48.000000
 -0.309524 -0.476190  0.095238     24.000000
 -0.452381 -0.452381  0.095238     24.000000
 -0.428571 -0.452381  0.095238     48.000000
 -0.404762 -0.452381  0.095238     48.000000
 -0.380952 -0.452381  0.095238     48.000000
 -0.357143 -0.452381  0.095238     48.000000
 -0.333333 -0.452381  0.095238     48.000000
 -0.428571 -0.428571  0.095238     24.000000
 -0.404762 -0.428571  0.095238     48.000000
 -0.380952 -0.428571  0.095238     48.000000
 -0.357143 -0.428571  0.095238     48.000000
 -0.333333 -0.428571  0.095238     24.000000
 -0.404762 -0.404762  0.095238     24.000000
 -0.380952 -0.404762  0.095238     48.000000
 -0.357143 -0.404762  0.095238     48.000000
 -0.380952 -0.380952  0.095238     24.000000
 -0.357143 -0.380952  0.095238     24.000000
  0.119048  0.119048  0.119048      8.000000
  0.142857  0.119048  0.119048     24.000000
  0.166667  0.119048  0.119048     24.000000
  0.190476  0.119048  0.119048     24.000000
  0.214286  0.119048  0.119048     24.000000
  0.238095  0.119048  0.119048     24.000000
  0.261905  0.119048  0.119048     24.000000
  0.285714  0.119048  0.119048     24.000000
  0.309524  0.119048  0.119048     24.000000
  0.333333  0.119048  0.119048     24.000000
  0.357143  0.119048  0.119048     24.000000
  0.380952  0.119048  0.119048     12.000000
 -0.119048  0.119048  0.119048      6.000000
  0.142857  0.142857  0.119048     24.000000
  0.166667  0.142857  0.119048     48.000000
  0.190476  0.142857  0.119048     48.000000
  0.214286  0.142857  0.119048     48.000000
  0.238095  0.142857  0.119048     48.000000
  0.261905  0.142857  0.119048     48.000000
  0.285714  0.142857  0.119048     48.000000
  0.309524  0.142857  0.119048     48.000000
  0.333333  0.142857  0.119048     48.000000
  0.357143  0.142857  0.119048     48.000000
 -0.142857  0.142857  0.119048     24.000000
  0.166667  0.166667  0.119048     24.000000
  0.190476  0.166667  0.119048     48.000000
  0.214286  0.166667  0.119048     48.000000
  0.238095  0.166667  0.119048     48.000000
  0.261905  0.166667  0.119048     48.000000
  0.285714  0.166667  0.119048     48.000000
  0.309524  0.166667  0.119048     48.000000
  0.333333  0.166667  0.119048     48.000000
  0.357143  0.166667  0.119048     24.000000
 -0.166667  0.166667  0.119048     24.000000
 -0.142857  0.166667  0.119048     24.000000
  0.190476  0.190476  0.119048     24.000000
  0.214286  0.190476  0.119048     48.000000
  0.238095  0.190476  0.119048     48.000000
  0.261905  0.190476  0.119048     48.000000
  0.285714  0.190476  0.119048     48.000000
  0.309524  0.190476  0.119048     48.000000
  0.333333  0.190476  0.119048     48.000000
 -0.190476  0.190476  0.119048     24.000000
 -0.166667  0.190476  0.119048     48.000000
  0.214286  0.214286  0.119048     24.000000
  0.238095  0.214286  0.119048     48.000000
  0.261905  0.214286  0.119048     48.000000
  0.285714  0.214286  0.119048     48.000000
  0.309524  0.214286  0.119048     48.000000
  0.333333  0.214286  0.119048     24.000000
 -0.214286  0.214286  0.119048     24.000000
 -0.190476  0.214286  0.119048     48.000000
 -0.166667  0.214286  0.119048     24.000000
  0.238095  0.238095  0.119048     24.000000
  0.261905  0.238095  0.119048     48.000000
  0.285714  0.238095  0.119048     48.000000
  0.309524  0.238095  0.119048     48.000000
 -0.238095  0.238095  0.119048     24.000000
 -0.214286  0.238095  0.119048     48.000000
 -0.190476  0.238095  0.119048     48.000000
  0.261905  0.261905  0.119048     24.000000
  0.285714  0.261905  0.119048     48.000000
  0.309524  0.261905  0.119048     24.000000
 -0.261905  0.261905  0.119048     24.000000
 -0.238095  0.261905  0.119048     48.000000
 -0.214286  0.261905  0.119048     48.000000
 -0.190476  0.261905  0.119048     24.000000
  0.285714  0.285714  0.119048     24.000000
 -0.285714  0.285714  0.119048     24.000000
 -0.261905  0.285714  0.119048     48.000000
 -0.238095  0.285714  0.119048     48.000000
 -0.214286  0.285714  0.119048     48.000000
 -0.309524  0.309524  0.119048     24.000000
 -0.285714  0.309524  0.119048     48.000000
 -0.261905  0.309524  0.119048     48.000000
 -0.238095  0.309524  0.119048     48.000000
 -0.214286  0.309524  0.119048     24.000000
 -0.333333  0.333333  0.119048     24.000000
 -0.309524  0.333333  0.119048     48.000000
 -0.285714  0.333333  0.119048     48.000000
 -0.261905  0.333333  0.119048     48.000000
 -0.238095  0.333333  0.119048     48.000000
 -0.357143  0.357143  0.119048     24.000000
 -0.333333  0.357143  0.119048     48.000000
 -0.309524  0.357143  0.119048     48.000000
 -0.285714  0.357143  0.119048     48.000000
 -0.261905  0.357143  0.119048     48.000000
 -0.238095  0.357143  0.119048     24.000000
 -0.380952  0.380952  0.119048     24.000000
 -0.357143  0.380952  0.119048     48.000000
 -0.333333  0.380952  0.119048     48.000000
 -0.309524  0.380952  0.119048     48.000000
 -0.285714  0.380952  0.119048     48.000000
 -0.261905  0.380952  0.119048     48.000000
 -0.404762  0.404762  0.119048     24.000000
 -0.380952  0.404762  0.119048     48.000000
 -0.357143  0.404762  0.119048     48.000000
 -0.333333  0.404762  0.119048     48.000000
 -0.309524  0.404762  0.119048     48.000000
 -0.285714  0.404762  0.119048     48.000000
 -0.261905  0.404762  0.119048     24.000000
 -0.428571  0.428571  0.119048     24.000000
 -0.404762  0.428571  0.119048     48.000000
 -0.380952  0.428571  0.119048     48.000000
 -0.357143  0.428571  0.119048     48.000000
 -0.333333  0.428571  0.119048     48.000000
 -0.309524  0.428571  0.119048     48.000000
 -0.285714  0.428571  0.119048     48.000000
 -0.452381  0.452381  0.119048     24.000000
 -0.428571  0.452381  0.119048     48.000000
 -0.404762  0.452381  0.119048     48.000000
 -0.380952  0.452381  0.119048     48.000000
 -0.357143  0.452381  0.119048     48.000000
 -0.333333  0.452381  0.119048     48.000000
 -0.309524  0.452381  0.119048     48.000000
 -0.285714  0.452381  0.119048     24.000000
 -0.476190  0.476190  0.119048     24.000000
 -0.452381  0.476190  0.119048     48.000000
 -0.428571  0.476190  0.119048     48.000000
 -0.404762  0.476190  0.119048     48.000000
 -0.380952  0.476190  0.119048     48.000000
 -0.357143  0.476190  0.119048     48.000000
 -0.333333  0.476190  0.119048     48.000000
 -0.309524  0.476190  0.119048     48.000000
  0.500000  0.500000  0.119048     12.000000
 -0.476190  0.500000  0.119048     48.000000
 -0.452381  0.500000  0.119048     48.000000
 -0.428571  0.500000  0.119048     48.000000
 -0.404762  0.500000  0.119048     48.000000
 -0.380952  0.500000  0.119048     48.000000
 -0.357143  0.500000  0.119048     48.000000
 -0.333333  0.500000  0.119048     48.000000
 -0.309524  0.500000  0.119048     24.000000
 -0.476190 -0.476190  0.119048     24.000000
 -0.452381 -0.476190  0.119048     48.000000
 -0.428571 -0.476190  0.119048     48.000000
 -0.404762 -0.476190  0.119048     48.000000
 -0.380952 -0.476190  0.119048     48.000000
 -0.357143 -0.476190  0.119048     48.000000
 -0.333333 -0.476190  0.119048     48.000000
 -0.452381 -0.452381  0.119048     24.000000
 -0.428571 -0.452381  0.119048     48.000000
 -0.404762 -0.452381  0.119048     48.000000
 -0.380952 -0.452381  0.119048     48.000000
 -0.357143 -0.452381  0.119048     48.000000
 -0.333333 -0.452381  0.119048     24.000000
 -0.428571 -0.428571  0.119048     24.000000
 -0.404762 -0.428571  0.119048     48.000000
 -0.380952 -0.428571  0.119048     48.000000
 -0.357143 -0.428571  0.119048     48.000000
 -0.404762 -0.404762  0.119048     24.000000
 -0.380952 -0.404762  0.119048     48.000000
 -0.357143 -0.404762  0.119048     24.000000
 -0.380952 -0.380952  0.119048     24.000000
  0.142857  0.142857  0.142857      8.000000
  0.166667  0.142857  0.142857     24.000000
  0.190476  0.142857  0.142857     24.000000
  0.214286  0.142857  0.142857     24.000000
  0.238095  0.142857  0.142857     24.000000
  0.261905  0.142857  0.142857     24.000000
  0.285714  0.142857  0.142857     24.000000
  0.309524  0.142857  0.142857     24.000000
  0.333333  0.142857  0.142857     24.000000
  0.357143  0.142857  0.142857     12.000000
 -0.142857  0.142857  0.142857      6.000000
  0.166667  0.166667  0.142857     24.000000
  0.190476  0.166667  0.142857     48.000000
  0.214286  0.166667  0.142857     48.000000
  0.238095  0.166667  0.142857     48.000000
  0.261905  0.166667  0.142857     48.000000
  0.285714  0.166667  0.142857     48.000000
  0.309524  0.166667  0.142857     48.000000
  0.333333  0.166667  0.142857     48.000000
 -0.166667  0.166667  0.142857     24.000000
  0.190476  0.190476  0.142857     24.000000
  0.214286  0.190476  0.142857     48.000000
  0.238095  0.190476  0.142857     48.000000
  0.261905  0.190476  0.142857     48.000000
  0.285714  0.190476  0.142857     48.000000
  0.309524  0.190476  0.142857     48.000000
  0.333333  0.190476  0.142857     24.000000
 -0.190476  0.190476  0.142857     24.000000
 -0.166667  0.190476  0.142857     24.000000
  0.214286  0.214286  0.142857     24.000000
  0.238095  0.214286  0.142857     48.000000
  0.261905  0.214286  0.142857     48.000000
  0.285714  0.214286  0.142857     48.000000
  0.309524  0.214286  0.142857     48.000000
 -0.214286  0.214286  0.142857     24.000000
 -0.190476  0.214286  0.142857     48.000000
  0.238095  0.238095  0.142857     24.000000
  0.261905  0.238095  0.142857     48.000000
  0.285714  0.238095  0.142857     48.000000
  0.309524  0.238095  0.142857     24.000000
 -0.238095  0.238095  0.142857     24.000000
 -0.214286  0.238095  0.142857     48.000000
 -0.190476  0.238095  0.142857     24.000000
  0.261905  0.261905  0.142857     24.000000
  0.285714  0.261905  0.142857     48.000000
 -0.261905  0.261905  0.142857     24.000000
 -0.238095  0.261905  0.142857     48.000000
 -0.214286  0.261905  0.142857     48.000000
  0.285714  0.285714  0.142857      8.000000
 -0.285714  0.285714  0.142857     24.000000
 -0.261905  0.285714  0.142857     48.000000
 -0.238095  0.285714  0.142857     48.000000
 -0.214286  0.285714  0.142857     24.000000
 -0.309524  0.309524  0.142857     24.000000
 -0.285714  0.309524  0.142857     48.000000
 -0.261905  0.309524  0.142857     48.000000
 -0.238095  0.309524  0.142857     48.000000
 -0.333333  0.333333  0.142857     24.000000
 -0.309524  0.333333  0.142857     48.000000
 -0.285714  0.333333  0.142857     48.000000
 -0.261905  0.333333  0.142857     48.000000
 -0.238095  0.333333  0.142857     24.000000
 -0.357143  0.357143  0.142857     24.000000
 -0.333333  0.357143  0.142857     48.000000
 -0.309524  0.357143  0.142857     48.000000
 -0.285714  0.357143  0.142857     48.000000
 -0.261905  0.357143  0.142857     48.000000
 -0.380952  0.380952  0.142857     24.000000
 -0.357143  0.380952  0.142857     48.000000
 -0.333333  0.380952  0.142857     48.000000
 -0.309524  0.380952  0.142857     48.000000
 -0.285714  0.380952  0.142857     48.000000
 -0.261905  0.380952  0.142857     24.000000
 -0.404762  0.404762  0.142857     24.000000
 -0.380952  0.404762  0.142857     48.000000
 -0.357143  0.404762  0.142857     48.000000
 -0.333333  0.404762  0.142857     48.000000
 -0.309524  0.404762  0.142857     48.000000
 -0.285714  0.404762  0.142857     48.000000
 -0.428571  0.428571  0.142857     24.000000
 -0.404762  0.428571  0.142857     48.000000
 -0.380952  0.428571  0.142857     48.000000
 -0.357143  0.428571  0.142857     48.000000
 -0.333333  0.428571  0.142857     48.000000
 -0.309524  0.428571  0.142857     48.000000
 -0.285714  0.428571  0.142857     24.000000
 -0.452381  0.452381  0.142857     24.000000
 -0.428571  0.452381  0.142857     48.000000
 -0.404762  0.452381  0.142857     48.000000
 -0.380952  0.452381  0.142857     48.000000
 -0.357143  0.452381  0.142857     48.000000
 -0.333333  0.452381  0.142857     48.000000
 -0.309524  0.452381  0.142857     48.000000
 -0.476190  0.476190  0.142857     24.000000
 -0.452381  0.476190  0.142857     48.000000
 -0.428571  0.476190  0.142857     48.000000
 -0.404762  0.476190  0.142857     48.000000
 -0.380952  0.476190  0.142857     48.000000
 -0.357143  0.476190  0.142857     48.000000
 -0.333333  0.476190  0.142857     48.000000
 -0.309524  0.476190  0.142857     24.000000
  0.500000  0.500000  0.142857     12.000000
 -0.476190  0.500000  0.142857     48.000000
 -0.452381  0.500000  0.142857     48.000000
 -0.428571  0.500000  0.142857     48.000000
 -0.404762  0.500000  0.142857     48.000000
 -0.380952  0.500000  0.142857     48.000000
 -0.357143  0.500000  0.142857     48.000000
 -0.333333  0.500000  0.142857     48.000000
 -0.476190 -0.476190  0.142857     24.000000
 -0.452381 -0.476190  0.142857     48.000000
 -0.428571 -0.476190  0.142857     48.000000
 -0.404762 -0.476190  0.142857     48.000000
 -0.380952 -0.476190  0.142857     48.000000
 -0.357143 -0.476190  0.142857     48.000000
 -0.333333 -0.476190  0.142857     24.000000
 -0.452381 -0.452381  0.142857     24.000000
 -0.428571 -0.452381  0.142857     48.000000
 -0.404762 -0.452381  0.142857     48.000000
 -0.380952 -0.452381  0.142857     48.000000
 -0.357143 -0.452381  0.142857     48.000000
 -0.428571 -0.428571  0.142857     24.000000
 -0.404762 -0.428571  0.142857     48.000000
 -0.380952 -0.428571  0.142857     48.000000
 -0.357143 -0.428571  0.142857     24.000000
 -0.404762 -0.404762  0.142857     24.000000
 -0.380952 -0.404762  0.142857     48.000000
 -0.380952 -0.380952  0.142857      8.000000
  0.166667  0.166667  0.166667      8.000000
  0.190476  0.166667  0.166667     24.000000
  0.214286  0.166667  0.166667     24.000000
  0.238095  0.166667  0.166667     24.000000
  0.261905  0.166667  0.166667     24.000000
  0.285714  0.166667  0.166667     24.000000
  0.309524  0.166667  0.166667     24.000000
  0.333333  0.166667  0.166667     12.000000
 -0.166667  0.166667  0.166667      6.000000
  0.190476  0.190476  0.166667     24.000000
  0.214286  0.190476  0.166667     48.000000
  0.238095  0.190476  0.166667     48.000000
  0.261905  0.190476  0.166667     48.000000
  0.285714  0.190476  0.166667     48.000000
  0.309524  0.190476  0.166667     48.000000
 -0.190476  0.190476  0.166667     24.000000
  0.214286  0.214286  0.166667     24.000000
  0.238095  0.214286  0.166667     48.000000
  0.261905  0.214286  0.166667     48.000000
  0.285714  0.214286  0.166667     48.000000
  0.309524  0.214286  0.166667     24.000000
 -0.214286  0.214286  0.166667     24.000000
 -0.190476  0.214286  0.166667     24.000000
  0.238095  0.238095  0.166667     24.000000
  0.261905  0.238095  0.166667     48.000000
  0.285714  0.238095  0.166667     48.000000
 -0.238095  0.238095  0.166667     24.000000
 -0.214286  0.238095  0.166667     48.000000
  0.261905  0.261905  0.166667     24.000000
  0.285714  0.261905  0.166667     24.000000
 -0.261905  0.261905  0.166667     24.000000
 -0.238095  0.261905  0.166667     48.000000
 -0.214286  0.261905  0.166667     24.000000
 -0.285714  0.285714  0.166667     24.000000
 -0.261905  0.285714  0.166667     48.000000
 -0.238095  0.285714  0.166667     48.000000
 -0.309524  0.309524  0.166667     24.000000
 -0.285714  0.309524  0.166667     48.000000
 -0.261905  0.309524  0.166667     48.000000
 -0.238095  0.309524  0.166667     24.000000
 -0.333333  0.333333  0.166667     24.000000
[...]
   29.479866    0.926271    0.926271    0.926271    0.000000    0.000000   -0.000000
   29.640958    0.929792    0.929792    0.929792   -0.000000    0.000000   -0.000000
   29.802050    0.939187    0.939187    0.939187    0.000000   -0.000000   -0.000000
   29.963143    0.949224    0.949224    0.949224   -0.000000    0.000000   -0.000000
   30.124235    0.949918    0.949918    0.949918   -0.000000    0.000000   -0.000000
   30.285327    0.960787    0.960787    0.960787    0.000000    0.000000   -0.000000
   30.446419    0.964671    0.964671    0.964671    0.000000    0.000000   -0.000000
   30.607511    0.964122    0.964122    0.964122   -0.000000    0.000000   -0.000000
   30.768603    1.001459    1.001459    1.001459    0.000000   -0.000000    0.000000
   30.929696    1.037204    1.037204    1.037204    0.000000    0.000000   -0.000000
   31.090788    1.048973    1.048973    1.048973   -0.000000    0.000000   -0.000000
   31.251880    1.104779    1.104779    1.104779    0.000000    0.000000   -0.000000
   31.412972    1.089928    1.089928    1.089928    0.000000    0.000000    0.000000
   31.574064    1.120701    1.120701    1.120701   -0.000000    0.000000    0.000000
   31.735156    1.020822    1.020822    1.020822    0.000000    0.000000   -0.000000
   31.896249    0.923349    0.923349    0.923349    0.000000   -0.000000   -0.000000
   32.057341    0.862930    0.862930    0.862930   -0.000000    0.000000   -0.000000
   32.218433    0.851318    0.851318    0.851318    0.000000    0.000000    0.000000
   32.379525    0.809476    0.809476    0.809476    0.000000   -0.000000    0.000000
   32.540617    0.822078    0.822078    0.822078    0.000000   -0.000000   -0.000000
   32.701709    0.770546    0.770546    0.770546   -0.000000    0.000000   -0.000000
   32.862802    0.759156    0.759156    0.759156    0.000000    0.000000    0.000000
   33.023894    0.772926    0.772926    0.772926   -0.000000   -0.000000   -0.000000
   33.184986    0.758812    0.758812    0.758812   -0.000000   -0.000000   -0.000000
   33.346078    0.716466    0.716466    0.716466    0.000000    0.000000   -0.000000
   33.507170    0.754148    0.754148    0.754148   -0.000000   -0.000000    0.000000
   33.668262    0.752289    0.752289    0.752289    0.000000    0.000000   -0.000000
   33.829355    0.785185    0.785185    0.785185    0.000000    0.000000   -0.000000
   33.990447    0.791397    0.791397    0.791397    0.000000    0.000000    0.000000
   34.151539    0.834761    0.834761    0.834761   -0.000000    0.000000   -0.000000
   34.312631    0.831418    0.831418    0.831418   -0.000000    0.000000   -0.000000
   34.473723    0.863063    0.863063    0.863063   -0.000000   -0.000000    0.000000
   34.634815    0.868401    0.868401    0.868401    0.000000    0.000000   -0.000000
   34.795908    0.858596    0.858596    0.858596   -0.000000   -0.000000    0.000000
   34.957000    0.877604    0.877604    0.877604   -0.000000   -0.000000    0.000000
   35.118092    0.874767    0.874767    0.874767   -0.000000   -0.000000    0.000000
   35.279184    0.856236    0.856236    0.856236   -0.000000    0.000000   -0.000000
   35.440276    0.844935    0.844935    0.844935   -0.000000   -0.000000    0.000000
   35.601368    0.825909    0.825909    0.825909   -0.000000    0.000000   -0.000000
   35.762461    0.818031    0.818031    0.818031    0.000000    0.000000   -0.000000
   35.923553    0.809344    0.809344    0.809344   -0.000000   -0.000000   -0.000000
   36.084645    0.815852    0.815852    0.815852    0.000000   -0.000000    0.000000
   36.245737    0.814563    0.814563    0.814563   -0.000000   -0.000000   -0.000000
   36.406829    0.814759    0.814759    0.814759    0.000000    0.000000   -0.000000
   36.567921    0.831101    0.831101    0.831101    0.000000    0.000000    0.000000
   36.729014    0.843326    0.843326    0.843326    0.000000    0.000000    0.000000
   36.890106    0.853956    0.853956    0.853956   -0.000000    0.000000   -0.000000
   37.051198    0.859298    0.859298    0.859298    0.000000    0.000000   -0.000000
   37.212290    0.872362    0.872362    0.872362   -0.000000   -0.000000    0.000000
   37.373382    0.891719    0.891719    0.891719   -0.000000   -0.000000    0.000000
   37.534474    0.890614    0.890614    0.890614    0.000000    0.000000    0.000000
   37.695566    0.870090    0.870090    0.870090    0.000000    0.000000   -0.000000
   37.856659    0.897761    0.897761    0.897761    0.000000    0.000000   -0.000000
   38.017751    0.902479    0.902479    0.902479   -0.000000    0.000000   -0.000000
   38.178843    0.896858    0.896858    0.896858    0.000000    0.000000   -0.000000
   38.339935    0.889824    0.889824    0.889824    0.000000   -0.000000    0.000000
   38.501027    0.894102    0.894102    0.894102    0.000000   -0.000000    0.000000
   38.662119    0.897691    0.897691    0.897691    0.000000    0.000000    0.000000
   38.823212    0.898927    0.898927    0.898927    0.000000    0.000000    0.000000
   38.984304    0.892374    0.892374    0.892374    0.000000    0.000000    0.000000
   39.145396    0.879135    0.879135    0.879135    0.000000    0.000000    0.000000
   39.306488    0.858309    0.858309    0.858309    0.000000    0.000000    0.000000
   39.467580    0.853580    0.853580    0.853580    0.000000    0.000000   -0.000000
   39.628672    0.862376    0.862376    0.862376   -0.000000    0.000000    0.000000
   39.789765    0.854606    0.854606    0.854606   -0.000000   -0.000000    0.000000
   39.950857    0.862576    0.862576    0.862576   -0.000000    0.000000    0.000000
   40.111949    0.859089    0.859089    0.859089   -0.000000   -0.000000   -0.000000
   40.273041    0.863675    0.863675    0.863675    0.000000    0.000000   -0.000000
   40.434133    0.867460    0.867460    0.867460   -0.000000   -0.000000    0.000000
   40.595225    0.868378    0.868378    0.868378   -0.000000    0.000000    0.000000
   40.756318    0.877596    0.877596    0.877596    0.000000    0.000000   -0.000000
   40.917410    0.884068    0.884068    0.884068   -0.000000    0.000000   -0.000000
   41.078502    0.881385    0.881385    0.881385   -0.000000    0.000000   -0.000000
   41.239594    0.868347    0.868347    0.868347    0.000000    0.000000    0.000000
   41.400686    0.874127    0.874127    0.874127   -0.000000   -0.000000   -0.000000
   41.561778    0.885773    0.885773    0.885773   -0.000000   -0.000000    0.000000
   41.722871    0.885346    0.885346    0.885346    0.000000    0.000000    0.000000
   41.883963    0.868719    0.868719    0.868719   -0.000000    0.000000    0.000000
   42.045055    0.865774    0.865774    0.865774    0.000000    0.000000   -0.000000
   42.206147    0.872029    0.872029    0.872029    0.000000    0.000000   -0.000000
   42.367239    0.877470    0.877470    0.877470   -0.000000   -0.000000   -0.000000
   42.528331    0.860772    0.860772    0.860772    0.000000    0.000000    0.000000
   42.689424    0.856414    0.856414    0.856414   -0.000000    0.000000    0.000000
   42.850516    0.861335    0.861335    0.861335    0.000000    0.000000   -0.000000
   43.011608    0.859511    0.859511    0.859511    0.000000    0.000000    0.000000
   43.172700    0.856368    0.856368    0.856368   -0.000000   -0.000000   -0.000000
   43.333792    0.851572    0.851572    0.851572   -0.000000    0.000000   -0.000000
   43.494884    0.858572    0.858572    0.858572    0.000000    0.000000    0.000000
   43.655977    0.857177    0.857177    0.857177    0.000000    0.000000    0.000000
   43.817069    0.852998    0.852998    0.852998    0.000000    0.000000   -0.000000
   43.978161    0.861334    0.861334    0.861334    0.000000    0.000000    0.000000
   44.139253    0.860027    0.860027    0.860027   -0.000000   -0.000000   -0.000000
   44.300345    0.864719    0.864719    0.864719   -0.000000   -0.000000   -0.000000
   44.461437    0.861782    0.861782    0.861782    0.000000    0.000000   -0.000000
   44.622530    0.866455    0.866455    0.866455   -0.000000    0.000000    0.000000
   44.783622    0.868101    0.868101    0.868101    0.000000   -0.000000    0.000000
   44.944714    0.868849    0.868849    0.868849    0.000000   -0.000000    0.000000
   45.105806    0.866858    0.866858    0.866858   -0.000000   -0.000000    0.000000
   45.266898    0.868621    0.868621    0.868621    0.000000    0.000000    0.000000
   45.427990    0.868394    0.868394    0.868394   -0.000000   -0.000000    0.000000
   45.589083    0.870900    0.870900    0.870900   -0.000000   -0.000000   -0.000000
   45.750175    0.874058    0.874058    0.874058   -0.000000   -0.000000   -0.000000
   45.911267    0.877431    0.877431    0.877431   -0.000000   -0.000000    0.000000
   46.072359    0.878328    0.878328    0.878328    0.000000    0.000000    0.000000
   46.233451    0.882485    0.882485    0.882485    0.000000   -0.000000    0.000000
   46.394543    0.885169    0.885169    0.885169    0.000000    0.000000    0.000000
   46.555636    0.887488    0.887488    0.887488    0.000000    0.000000    0.000000
   46.716728    0.888537    0.888537    0.888537    0.000000    0.000000    0.000000
   46.877820    0.894739    0.894739    0.894739    0.000000    0.000000    0.000000
   47.038912    0.894751    0.894751    0.894751    0.000000    0.000000    0.000000
   47.200004    0.896796    0.896796    0.896796   -0.000000   -0.000000    0.000000
   47.361096    0.899207    0.899207    0.899207   -0.000000   -0.000000   -0.000000
   47.522189    0.900488    0.900488    0.900488   -0.000000   -0.000000    0.000000
   47.683281    0.901107    0.901107    0.901107   -0.000000   -0.000000    0.000000
   47.844373    0.901340    0.901340    0.901340   -0.000000    0.000000   -0.000000
   48.005465    0.904278    0.904278    0.904278    0.000000    0.000000    0.000000
   48.166557    0.904418    0.904418    0.904418    0.000000    0.000000    0.000000
   48.327649    0.905982    0.905982    0.905982   -0.000000    0.000000    0.000000
   48.488742    0.908407    0.908407    0.908407    0.000000    0.000000    0.000000
   48.649834    0.910964    0.910964    0.910964    0.000000    0.000000    0.000000
   48.810926    0.911767    0.911767    0.911767    0.000000    0.000000    0.000000
   48.972018    0.913240    0.913240    0.913240    0.000000    0.000000    0.000000
   49.133110    0.914532    0.914532    0.914532    0.000000    0.000000    0.000000
   49.294202    0.916260    0.916260    0.916260    0.000000    0.000000    0.000000
   49.455295    0.917541    0.917541    0.917541    0.000000    0.000000    0.000000
   49.616387    0.918326    0.918326    0.918326    0.000000    0.000000    0.000000
   49.777479    0.919976    0.919976    0.919976    0.000000    0.000000    0.000000
   49.938571    0.920467    0.920467    0.920467    0.000000    0.000000    0.000000
   50.099663    0.921531    0.921531    0.921531    0.000000    0.000000    0.000000
   50.260755    0.922828    0.922828    0.922828    0.000000    0.000000    0.000000
   50.421847    0.923907    0.923907    0.923907    0.000000    0.000000    0.000000
   50.582940    0.925074    0.925074    0.925074    0.000000    0.000000    0.000000
   50.744032    0.925559    0.925559    0.925559    0.000000    0.000000    0.000000
   50.905124    0.926609    0.926609    0.926609    0.000000    0.000000    0.000000
   51.066216    0.927309    0.927309    0.927309    0.000000    0.000000    0.000000
   51.227308    0.928346    0.928346    0.928346    0.000000    0.000000    0.000000
   51.388400    0.929287    0.929287    0.929287    0.000000    0.000000    0.000000
   51.549493    0.930051    0.930051    0.930051    0.000000    0.000000    0.000000
   51.710585    0.930898    0.930898    0.930898    0.000000    0.000000    0.000000
   51.871677    0.931497    0.931497    0.931497    0.000000    0.000000    0.000000
   52.032769    0.932357    0.932357    0.932357    0.000000    0.000000    0.000000
   52.193861    0.933122    0.933122    0.933122    0.000000    0.000000    0.000000
   52.354953    0.933855    0.933855    0.933855    0.000000    0.000000    0.000000
   52.516046    0.934583    0.934583    0.934583    0.000000    0.000000    0.000000
   52.677138    0.935288    0.935288    0.935288    0.000000    0.000000    0.000000
   52.838230    0.935976    0.935976    0.935976    0.000000    0.000000    0.000000
   52.999322    0.936646    0.936646    0.936646    0.000000    0.000000    0.000000
   53.160414    0.937302    0.937302    0.937302    0.000000    0.000000    0.000000
   53.321506    0.937944    0.937944    0.937944    0.000000    0.000000    0.000000
   53.482599    0.938572    0.938572    0.938572    0.000000    0.000000    0.000000
   53.643691    0.939188    0.939188    0.939188    0.000000    0.000000    0.000000
   53.804783    0.939791    0.939791    0.939791    0.000000    0.000000    0.000000
   53.965875    0.940382    0.940382    0.940382    0.000000    0.000000    0.000000
   54.126967    0.940961    0.940961    0.940961    0.000000    0.000000    0.000000
   54.288059    0.941530    0.941530    0.941530    0.000000    0.000000    0.000000
   54.449152    0.942088    0.942088    0.942088    0.000000    0.000000    0.000000
   54.610244    0.942635    0.942635    0.942635    0.000000    0.000000    0.000000
   54.771336    0.943173    0.943173    0.943173    0.000000    0.000000    0.000000
   54.932428    0.943701    0.943701    0.943701    0.000000    0.000000    0.000000
   55.093520    0.944220    0.944220    0.944220    0.000000    0.000000    0.000000
   55.254612    0.944730    0.944730    0.944730    0.000000    0.000000    0.000000
   55.415705    0.945231    0.945231    0.945231    0.000000    0.000000    0.000000
   55.576797    0.945723    0.945723    0.945723    0.000000    0.000000    0.000000
   55.737889    0.946207    0.946207    0.946207    0.000000    0.000000    0.000000
   55.898981    0.946683    0.946683    0.946683    0.000000    0.000000    0.000000
   56.060073    0.947152    0.947152    0.947152    0.000000    0.000000    0.000000
   56.221165    0.947612    0.947612    0.947612    0.000000    0.000000    0.000000
   56.382258    0.948066    0.948066    0.948066    0.000000    0.000000    0.000000
   56.543350    0.948512    0.948512    0.948512    0.000000    0.000000    0.000000
   56.704442    0.948951    0.948951    0.948951    0.000000    0.000000    0.000000
   56.865534    0.949383    0.949383    0.949383    0.000000    0.000000    0.000000
   57.026626    0.949809    0.949809    0.949809    0.000000    0.000000    0.000000
   57.187718    0.950228    0.950228    0.950228    0.000000    0.000000    0.000000
   57.348811    0.950641    0.950641    0.950641    0.000000    0.000000    0.000000
   57.509903    0.951048    0.951048    0.951048    0.000000    0.000000    0.000000
   57.670995    0.951449    0.951449    0.951449    0.000000    0.000000    0.000000
   57.832087    0.951843    0.951843    0.951843    0.000000    0.000000    0.000000
   57.993179    0.952232    0.952232    0.952232    0.000000    0.000000    0.000000
   58.154271    0.952616    0.952616    0.952616    0.000000    0.000000    0.000000
   58.315364    0.952994    0.952994    0.952994    0.000000    0.000000    0.000000
   58.476456    0.953367    0.953367    0.953367    0.000000    0.000000    0.000000
   58.637548    0.953734    0.953734    0.953734    0.000000    0.000000    0.000000
   58.798640    0.954097    0.954097    0.954097    0.000000    0.000000    0.000000
   58.959732    0.954454    0.954454    0.954454    0.000000    0.000000    0.000000
   59.120824    0.954806    0.954806    0.954806    0.000000    0.000000    0.000000
   59.281917    0.955154    0.955154    0.955154    0.000000    0.000000    0.000000
   59.443009    0.955497    0.955497    0.955497    0.000000    0.000000    0.000000
   59.604101    0.955836    0.955836    0.955836    0.000000    0.000000    0.000000
   59.765193    0.956170    0.956170    0.956170    0.000000    0.000000    0.000000
   59.926285    0.956499    0.956499    0.956499    0.000000    0.000000    0.000000
   60.087377    0.956824    0.956824    0.956824    0.000000    0.000000    0.000000
   60.248470    0.957145    0.957145    0.957145    0.000000    0.000000    0.000000
   60.409562    0.957462    0.957462    0.957462    0.000000    0.000000    0.000000
   60.570654    0.957775    0.957775    0.957775    0.000000    0.000000    0.000000
   60.731746    0.958084    0.958084    0.958084    0.000000    0.000000    0.000000
   60.892838    0.958389    0.958389    0.958389    0.000000    0.000000    0.000000
   61.053930    0.958690    0.958690    0.958690    0.000000    0.000000    0.000000
   61.215023    0.958988    0.958988    0.958988    0.000000    0.000000    0.000000
   61.376115    0.959281    0.959281    0.959281    0.000000    0.000000    0.000000
   61.537207    0.959571    0.959571    0.959571    0.000000    0.000000    0.000000
   61.698299    0.959858    0.959858    0.959858    0.000000    0.000000    0.000000
   61.859391    0.960141    0.960141    0.960141    0.000000    0.000000    0.000000
   62.020483    0.960421    0.960421    0.960421    0.000000    0.000000    0.000000
   62.181576    0.960697    0.960697    0.960697    0.000000    0.000000    0.000000
   62.342668    0.960971    0.960971    0.960971    0.000000    0.000000    0.000000
   62.503760    0.961240    0.961240    0.961240    0.000000    0.000000    0.000000
   62.664852    0.961507    0.961507    0.961507    0.000000    0.000000    0.000000
   62.825944    0.961771    0.961771    0.961771    0.000000    0.000000    0.000000
   62.987036    0.962031    0.962031    0.962031    0.000000    0.000000    0.000000
   63.148128    0.962289    0.962289    0.962289    0.000000    0.000000    0.000000
   63.309221    0.962544    0.962544    0.962544    0.000000    0.000000    0.000000
   63.470313    0.962795    0.962795    0.962795    0.000000    0.000000    0.000000
   63.631405    0.963044    0.963044    0.963044    0.000000    0.000000    0.000000
   63.792497    0.963290    0.963290    0.963290    0.000000    0.000000    0.000000
   63.953589    0.963534    0.963534    0.963534    0.000000    0.000000    0.000000
   64.114681    0.963774    0.963774    0.963774    0.000000    0.000000    0.000000
   64.275774    0.964012    0.964012    0.964012    0.000000    0.000000    0.000000
   64.436866    0.964248    0.964248    0.964248    0.000000    0.000000    0.000000
 
 The outermost node in the dielectric function lies at epsilon=  -1.0


--------------------------------------------------------------------------------------------------------


    OPTICS:  cpu time    0.8194: real time    0.8288
    4ORBIT:  cpu time    0.0000: real time    0.0000
 


 total charge     
 
# of ion       s       p       d       tot
------------------------------------------
    1        1.382   0.000   0.000   1.382
 

 total amount of memory used by VASP MPI-rank0    73409. kBytes
=======================================================================

   base      :      30000. kBytes
   nonl-proj :      30454. kBytes
   fftplans  :        160. kBytes
   grid      :        372. kBytes
   one-center:          1. kBytes
   wavefun   :      12422. kBytes
 
  
  
 General timing and accounting informations for this job:
 ========================================================
  
                  Total CPU time used (sec):       11.269
                            User time (sec):       10.864
                          System time (sec):        0.405
                         Elapsed time (sec):       11.630
  
                   Maximum memory used (kb):      184304.
                   Average memory used (kb):           0.
  
                          Minor page faults:       107725
                          Major page faults:           49
                 Voluntary context switches:         1934
