 vasp.5.4.4.18Apr17-6-g9f103f2a35 (build Jan 15 2019 14:25:10) complex          
  
 executed on             LinuxIFC date 2020.10.03  15:32:10
 running on   36 total cores
 distrk:  each k-point on    9 cores,    4 groups
 distr:  one band on NCORES_PER_BAND=   1 cores,    9 groups


--------------------------------------------------------------------------------------------------------


 INCAR:
 POTCAR:    PAW_PBE Mg 13Apr2007                  
 POTCAR:    PAW_PBE Se 06Sep2000                  

 ----------------------------------------------------------------------------- 
|                                                                             |
|           W    W    AA    RRRRR   N    N  II  N    N   GGGG   !!!           |
|           W    W   A  A   R    R  NN   N  II  NN   N  G    G  !!!           |
|           W    W  A    A  R    R  N N  N  II  N N  N  G       !!!           |
|           W WW W  AAAAAA  RRRRR   N  N N  II  N  N N  G  GGG   !            |
|           WW  WW  A    A  R   R   N   NN  II  N   NN  G    G                |
|           W    W  A    A  R    R  N    N  II  N    N   GGGG   !!!           |
|                                                                             |
|      For optimal performance we recommend to set                            |
|        NCORE= 4 - approx SQRT( number of cores)                             |
|      NCORE specifies how many cores store one orbital (NPAR=cpu/NCORE).     |
|      This setting can  greatly improve the performance of VASP for DFT.     |
|      The default,   NCORE=1            might be grossly inefficient         |
|      on modern multi-core architectures or massively parallel machines.     |
|      Do your own testing !!!!                                               |
|      Unfortunately you need to use the default for GW and RPA calculations. |
|      (for HF NCORE is supported but not extensively tested yet)             |
|                                                                             |
 ----------------------------------------------------------------------------- 


 ----------------------------------------------------------------------------- 
|                                                                             |
|           W    W    AA    RRRRR   N    N  II  N    N   GGGG   !!!           |
|           W    W   A  A   R    R  NN   N  II  NN   N  G    G  !!!           |
|           W    W  A    A  R    R  N N  N  II  N N  N  G       !!!           |
|           W WW W  AAAAAA  RRRRR   N  N N  II  N  N N  G  GGG   !            |
|           WW  WW  A    A  R   R   N   NN  II  N   NN  G    G                |
|           W    W  A    A  R    R  N    N  II  N    N   GGGG   !!!           |
|                                                                             |
|      You have enabled k-point parallelism (KPAR>1).                         |
|      This developmental code was originally  written by Paul Kent at ORNL,  |
|      and carefully double checked in Vienna.                                |
|      GW as well as linear response parallelism added by Martijn Marsman     |
|      and Georg Kresse.                                                      |
|      Carefully verify results versus KPAR=1.                                |
|      Report problems to Paul Kent and Vienna.                               |
|                                                                             |
 ----------------------------------------------------------------------------- 

 POTCAR:    PAW_PBE Mg 13Apr2007                  
   VRHFIN =Mg: s2p0                                                             
   LEXCH  = PE                                                                  
   EATOM  =    23.0369 eV,    1.6932 Ry                                         
                                                                                
   TITEL  = PAW_PBE Mg 13Apr2007                                                
   LULTRA =        F    use ultrasoft PP ?                                      
   IUNSCR =        1    unscreen: 0-lin 1-nonlin 2-no                           
   RPACOR =    1.500    partial core radius                                     
   POMASS =   24.305; ZVAL   =    2.000    mass and valenz                      
   RCORE  =    2.000    outmost cutoff radius                                   
   RWIGS  =    2.880; RWIGS  =    1.524    wigner-seitz radius (au A)           
   ENMAX  =  200.000; ENMIN  =  100.000 eV                                      
   RCLOC  =    1.506    cutoff for local pot                                    
   LCOR   =        T    correct aug charges                                     
   LPAW   =        T    paw PP                                                  
   EAUG   =  454.734                                                            
   DEXC   =    0.000                                                            
   RMAX   =    2.045    core radius for proj-oper                               
   RAUG   =    1.300    factor for augmentation sphere                          
   RDEP   =    2.025    radius for radial grids                                 
   RDEPT  =    1.942    core radius for aug-charge                              
                                                                                
   Atomic configuration                                                         
    6 entries                                                                   
     n  l   j            E        occ.                                          
     1  0  0.50     -1259.6230   2.0000                                         
     2  0  0.50       -79.8442   2.0000                                         
     2  1  1.50       -46.6121   6.0000                                         
     3  0  0.50        -4.7055   2.0000                                         
     3  1  0.50        -1.3660   0.0000                                         
     3  2  1.50        -1.3606   0.0000                                         
   Description                                                                  
     l       E           TYP  RCUT    TYP  RCUT                                 
     0     -4.7054661     23  2.000                                             
     0     27.2116520     23  2.000                                             
     1      1.3605826     23  2.000                                             
     1     27.2116520     23  2.000                                             
     2     -1.3605826     23  2.000                                             
  local pseudopotential read in
  partial core-charges read in
  partial kinetic energy density read in
  atomic valenz-charges read in
  non local Contribution for L=           0  read in
    real space projection operators read in
  non local Contribution for L=           0  read in
    real space projection operators read in
  non local Contribution for L=           1  read in
    real space projection operators read in
  non local Contribution for L=           1  read in
    real space projection operators read in
  non local Contribution for L=           2  read in
    real space projection operators read in
    PAW grid and wavefunctions read in
 
   number of l-projection  operators is LMAX  =           5
   number of lm-projection operators is LMMAX =          13
 
 POTCAR:    PAW_PBE Se 06Sep2000                  
   VRHFIN =Se: s2p4                                                             
   LEXCH  = PE                                                                  
   EATOM  =   257.1286 eV,   18.8984 Ry                                         
                                                                                
   TITEL  = PAW_PBE Se 06Sep2000                                                
   LULTRA =        F    use ultrasoft PP ?                                      
   IUNSCR =        1    unscreen: 0-lin 1-nonlin 2-no                           
   RPACOR =    1.900    partial core radius                                     
   POMASS =   78.960; ZVAL   =    6.000    mass and valenz                      
   RCORE  =    2.100    outmost cutoff radius                                   
   RWIGS  =    2.200; RWIGS  =    1.164    wigner-seitz radius (au A)           
   ENMAX  =  211.555; ENMIN  =  158.666 eV                                      
   ICORE  =        3    local potential                                         
   LCOR   =        T    correct aug charges                                     
   LPAW   =        T    paw PP                                                  
   EAUG   =  446.842                                                            
   DEXC   =    0.000                                                            
   RMAX   =    2.147    core radius for proj-oper                               
   RAUG   =    1.300    factor for augmentation sphere                          
   RDEP   =    2.177    radius for radial grids                                 
   RDEPT  =    1.928    core radius for aug-charge                              
                                                                                
   Atomic configuration                                                         
   10 entries                                                                   
     n  l   j            E        occ.                                          
     1  0  0.50    -12503.4787   2.0000                                         
     2  0  0.50     -1606.9547   2.0000                                         
     2  1  1.50     -1413.3140   6.0000                                         
     3  0  0.50      -213.4885   2.0000                                         
     3  1  1.50      -152.9538   6.0000                                         
     3  2  2.50       -53.1221  10.0000                                         
     4  0  0.50       -17.2865   2.0000                                         
     4  1  0.50        -6.5110   4.0000                                         
     4  2  2.50        -6.8029   0.0000                                         
     4  3  2.50        -6.8029   0.0000                                         
   Description                                                                  
     l       E           TYP  RCUT    TYP  RCUT                                 
     0    -17.2865377     23  2.100                                             
     0    -15.3094411     23  2.100                                             
     1     -6.5110275     23  2.100                                             
     1     -0.0695192     23  2.100                                             
     2     -6.8029130     23  2.100                                             
     3     -1.3605826      7  2.100                                             
  local pseudopotential read in
  partial core-charges read in
  partial kinetic energy density read in
  atomic valenz-charges read in
  non local Contribution for L=           0  read in
    real space projection operators read in
  non local Contribution for L=           0  read in
    real space projection operators read in
  non local Contribution for L=           1  read in
    real space projection operators read in
  non local Contribution for L=           1  read in
    real space projection operators read in
  non local Contribution for L=           2  read in
    real space projection operators read in
    PAW grid and wavefunctions read in
 
   number of l-projection  operators is LMAX  =           5
   number of lm-projection operators is LMMAX =          13
 
  PAW_PBE Mg 13Apr2007                  :
 energy of atom  1       EATOM=  -23.0369
 kinetic energy error for atom=    0.0011 (will be added to EATOM!!)
  PAW_PBE Se 06Sep2000                  :
 energy of atom  2       EATOM= -257.1286
 kinetic energy error for atom=    0.0209 (will be added to EATOM!!)
 
 
 POSCAR: Mg1 Se1                                 
  positions in direct lattice
  No initial velocities read in
 exchange correlation table for  LEXCH =        8
   RHO(1)=    0.500       N(1)  =     2000
   RHO(2)=  100.500       N(2)  =     4000
 


--------------------------------------------------------------------------------------------------------


 ion  position               nearest neighbor table
   1  0.000  0.000  0.000-   2 2.59   2 2.59   2 2.59   2 2.59
   2  0.250  0.250  0.250-   1 2.59   1 2.59   1 2.59   1 2.59
 
  LATTYP: Found a face centered cubic cell.
 ALAT       =     5.9918104820
  
  Lattice vectors:
  
 A1 = (   0.0000000000,   2.9959052410,   2.9959052410)
 A2 = (   2.9959052410,   0.0000000000,   2.9959052410)
 A3 = (   2.9959052410,   2.9959052410,   0.0000000000)


Analysis of symmetry for initial positions (statically):
=====================================================================
 Subroutine PRICEL returns:
 Original cell was already a primitive cell.
 

 Routine SETGRP: Setting up the symmetry group for a 
 face centered cubic supercell.


 Subroutine GETGRP returns: Found 24 space group operations
 (whereof 24 operations were pure point group operations)
 out of a pool of 48 trial point group operations.


The static configuration has the point symmetry T_d .


Analysis of symmetry for dynamics (positions and initial velocities):
=====================================================================
 Subroutine PRICEL returns:
 Original cell was already a primitive cell.
 

 Routine SETGRP: Setting up the symmetry group for a 
 face centered cubic supercell.


 Subroutine GETGRP returns: Found 24 space group operations
 (whereof 24 operations were pure point group operations)
 out of a pool of 48 trial point group operations.


The dynamic configuration has the point symmetry T_d .


 Subroutine INISYM returns: Found 24 space group operations
 (whereof 24 operations are pure point group operations),
 and found     1 'primitive' translations

 
 
 KPOINTS:                                         

Automatic generation of k-mesh.
Space group operators:
 irot       det(A)        alpha          n_x          n_y          n_z        tau_x        tau_y        tau_z
    1     1.000000     0.000000     1.000000     0.000000     0.000000     0.000000     0.000000     0.000000
    2     1.000000   120.000000    -0.577350    -0.577350    -0.577350     0.000000     0.000000     0.000000
    3     1.000000   120.000000     0.577350     0.577350     0.577350     0.000000     0.000000     0.000000
    4    -1.000000    90.000000     0.000000     0.000000    -1.000000     0.000000     0.000000     0.000000
    5    -1.000000   180.000000     0.000000     0.707107     0.707107     0.000000     0.000000     0.000000
    6    -1.000000    90.000000     0.000000     1.000000     0.000000     0.000000     0.000000     0.000000
    7     1.000000   180.000000     0.000000     0.000000     1.000000     0.000000     0.000000     0.000000
    8     1.000000   120.000000    -0.577350     0.577350     0.577350     0.000000     0.000000     0.000000
    9     1.000000   120.000000    -0.577350     0.577350    -0.577350     0.000000     0.000000     0.000000
   10    -1.000000    90.000000     0.000000     0.000000     1.000000     0.000000     0.000000     0.000000
   11    -1.000000    90.000000    -1.000000     0.000000     0.000000     0.000000     0.000000     0.000000
   12    -1.000000   180.000000     0.707107     0.000000     0.707107     0.000000     0.000000     0.000000
   13     1.000000   120.000000     0.577350    -0.577350     0.577350     0.000000     0.000000     0.000000
   14     1.000000   120.000000    -0.577350    -0.577350     0.577350     0.000000     0.000000     0.000000
   15     1.000000   180.000000     1.000000     0.000000     0.000000     0.000000     0.000000     0.000000
   16    -1.000000    90.000000     0.000000    -1.000000     0.000000     0.000000     0.000000     0.000000
   17    -1.000000   180.000000     0.707107     0.707107     0.000000     0.000000     0.000000     0.000000
   18    -1.000000    90.000000     1.000000     0.000000     0.000000     0.000000     0.000000     0.000000
   19     1.000000   120.000000     0.577350    -0.577350    -0.577350     0.000000     0.000000     0.000000
   20     1.000000   180.000000     0.000000     1.000000     0.000000     0.000000     0.000000     0.000000
   21     1.000000   120.000000     0.577350     0.577350    -0.577350     0.000000     0.000000     0.000000
   22    -1.000000   180.000000     0.000000    -0.707107     0.707107     0.000000     0.000000     0.000000
   23    -1.000000   180.000000     0.707107    -0.707107     0.000000     0.000000     0.000000     0.000000
   24    -1.000000   180.000000     0.707107     0.000000    -0.707107     0.000000     0.000000     0.000000
 
 Subroutine IBZKPT returns following result:
 ===========================================
 
 Found      8 irreducible k-points:
 
 Following reciprocal coordinates:
            Coordinates               Weight
  0.000000  0.000000  0.000000      1.000000
  0.250000  0.000000  0.000000      8.000000
  0.500000  0.000000  0.000000      4.000000
  0.250000  0.250000  0.000000      6.000000
  0.500000  0.250000  0.000000     24.000000
 -0.250000  0.250000  0.000000     12.000000
  0.500000  0.500000  0.000000      3.000000
 -0.250000  0.500000  0.250000      6.000000
 
 Following cartesian coordinates:
            Coordinates               Weight
  0.000000  0.000000  0.000000      1.000000
 -0.041724  0.041724  0.041724      8.000000
 -0.083447  0.083447  0.083447      4.000000
  0.000000  0.000000  0.083447      6.000000
 -0.041724  0.041724  0.125171     24.000000
  0.083447 -0.083447  0.000000     12.000000
  0.000000  0.000000  0.166894      3.000000
  0.166894 -0.083447  0.000000      6.000000
 
 TETIRR: Found      9 inequivalent tetrahedra from      384

 ----------------------------------------------------------------------------- 
|                                                                             |
|           W    W    AA    RRRRR   N    N  II  N    N   GGGG   !!!           |
|           W    W   A  A   R    R  NN   N  II  NN   N  G    G  !!!           |
|           W    W  A    A  R    R  N N  N  II  N N  N  G       !!!           |
|           W WW W  AAAAAA  RRRRR   N  N N  II  N  N N  G  GGG   !            |
|           WW  WW  A    A  R   R   N   NN  II  N   NN  G    G                |
|           W    W  A    A  R    R  N    N  II  N    N   GGGG   !!!           |
|                                                                             |
|      The number of bands has been changed from the values supplied          |
|      in the INCAR file. This is a result of running the parallel version.   |
|      The orbitals not found in the WAVECAR file will be initialized with    |
|      random numbers, which is usually adequate. For correlated              |
|      calculations, however, you should redo the groundstate calculation.    |
|      I found NBANDS    =       12  now  NBANDS  =      18                   |
|                                                                             |
 ----------------------------------------------------------------------------- 



--------------------------------------------------------------------------------------------------------




 Dimension of arrays:
   k-points           NKPTS =      8   k-points in BZ     NKDIM =      8   number of bands    NBANDS=     18
   number of dos      NEDOS =   4002   number of ions     NIONS =      2
   non local maximal  LDIM  =      5   non local SUM 2l+1 LMDIM =     13
   total plane-waves  NPLWV =   4096
   max r-space proj   IRMAX =      1   max aug-charges    IRDMAX=   3521
   dimension x,y,z NGX =    16 NGY =   16 NGZ =   16
   dimension x,y,z NGXF=    32 NGYF=   32 NGZF=   32
   support grid    NGXF=    32 NGYF=   32 NGZF=   32
   ions per type =               1   1
   NGX,Y,Z   is equivalent  to a cutoff of   6.28,  6.28,  6.28 a.u.
   NGXF,Y,Z  is equivalent  to a cutoff of  12.56, 12.56, 12.56 a.u.

 SYSTEM =  unknown system                          
 POSCAR =  Mg1 Se1                                 

 Startparameter for this run:
   NWRITE =      2    write-flag & timer
   PREC   = normal    normal or accurate (medium, high low for compatibility)
   ISTART =      0    job   : 0-new  1-cont  2-samecut
   ICHARG =      2    charge: 1-file 2-atom 10-const
   ISPIN  =      1    spin polarized calculation?
   LNONCOLLINEAR =      F non collinear calculations
   LSORBIT =      F    spin-orbit coupling
   INIWAV =      1    electr: 0-lowe 1-rand  2-diag
   LASPH  =      T    aspherical Exc in radial PAW
   METAGGA=      F    non-selfconsistent MetaGGA calc.

 Electronic Relaxation 1
   ENCUT  =  211.6 eV  15.55 Ry    3.94 a.u.   5.02  5.02  5.02*2*pi/ulx,y,z
   ENINI  =  211.6     initial cutoff
   ENAUG  =  454.7 eV  augmentation charge cutoff
   NELM   =    100;   NELMIN=  2; NELMDL= -5     # of ELM steps 
   EDIFF  = 0.1E-04   stopping-criterion for ELM
   LREAL  =      F    real-space projection
   NLSPLINE    = F    spline interpolate recip. space projectors
   LCOMPAT=      F    compatible to vasp.4.4
   GGA_COMPAT  = T    GGA compatible to vasp.4.4-vasp.4.6
   LMAXPAW     = -100 max onsite density
   LMAXMIX     =    2 max onsite mixed and CHGCAR
   VOSKOWN=      0    Vosko Wilk Nusair interpolation
   ROPT   =    0.00000   0.00000
 Ionic relaxation
   EDIFFG = 0.1E-03   stopping-criterion for IOM
   NSW    =      1    number of steps for IOM
   NBLOCK =      1;   KBLOCK =      1    inner block; outer block 
   IBRION =      2    ionic relax: 0-MD 1-quasi-New 2-CG
   NFREE  =      1    steps in history (QN), initial steepest desc. (CG)
   ISIF   =      0    stress and relaxation
   IWAVPR =     11    prediction:  0-non 1-charg 2-wave 3-comb
   ISYM   =      2    0-nonsym 1-usesym 2-fastsym
   LCORR  =      T    Harris-Foulkes like correction to forces

   POTIM  = 0.5000    time-step for ionic-motion
   TEIN   =    0.0    initial temperature
   TEBEG  =    0.0;   TEEND  =   0.0 temperature during run
   SMASS  =  -3.00    Nose mass-parameter (am)
   estimated Nose-frequenzy (Omega)   =  0.10E-29 period in steps =****** mass=  -0.410E-27a.u.
   SCALEE = 1.0000    scale energy and forces
   NPACO  =    256;   APACO  = 16.0  distance and # of slots for P.C.
   PSTRESS=    0.0 pullay stress

  Mass of Ions in am
   POMASS =  24.30 78.96
  Ionic Valenz
   ZVAL   =   2.00  6.00
  Atomic Wigner-Seitz radii
   RWIGS  =  -1.00 -1.00
  virtual crystal weights 
   VCA    =   1.00  1.00
   NELECT =       8.0000    total number of electrons
   NUPDOWN=      -1.0000    fix difference up-down

 DOS related values:
   EMIN   = -20.01;   EMAX   = 20.00  energy-range for DOS
   EFERMI =   0.00
   ISMEAR =    -5;   SIGMA  =   0.10  broadening in eV -4-tet -1-fermi 0-gaus

 Electronic relaxation 2 (details)
   IALGO  =     38    algorithm
   LDIAG  =      T    sub-space diagonalisation (order eigenvalues)
   LSUBROT=      F    optimize rotation matrix (better conditioning)
   TURBO    =      0    0=normal 1=particle mesh
   IRESTART =      0    0=no restart 2=restart with 2 vectors
   NREBOOT  =      0    no. of reboots
   NMIN     =      0    reboot dimension
   EREF     =   0.00    reference energy to select bands
   IMIX   =      4    mixing-type and parameters
     AMIX     =   0.40;   BMIX     =  1.00
     AMIX_MAG =   1.60;   BMIX_MAG =  1.00
     AMIN     =   0.10
     WC   =   100.;   INIMIX=   1;  MIXPRE=   1;  MAXMIX= -45

 Intra band minimization:
   WEIMIN = 0.0010     energy-eigenvalue tresh-hold
   EBREAK =  0.14E-06  absolut break condition
   DEPER  =   0.30     relativ break condition  

   TIME   =   0.40     timestep for ELM

  volume/ion in A,a.u.               =      26.89       181.46
  Fermi-wavevector in a.u.,A,eV,Ry     =   0.867428  1.639201 10.237449  0.752431
  Thomas-Fermi vector in A             =   1.985960
 
 Write flags
   LWAVE        =      F    write WAVECAR
   LDOWNSAMPLE  =      F    k-point downsampling of WAVECAR
   LCHARG       =      F    write CHGCAR
   LVTOT        =      F    write LOCPOT, total local potential
   LVHAR        =      F    write LOCPOT, Hartree potential only
   LELF         =      F    write electronic localiz. function (ELF)
   LORBIT       =     10    0 simple, 1 ext, 2 COOP (PROOUT), +10 PAW based schemes


 Dipole corrections
   LMONO  =      F    monopole corrections only (constant potential shift)
   LDIPOL =      F    correct potential (dipole corrections)
   IDIPOL =      0    1-x, 2-y, 3-z, 4-all directions 
   EPSILON=  1.0000000 bulk dielectric constant

 Exchange correlation treatment:
   GGA     =    --    GGA type
   LEXCH   =     8    internal setting for exchange type
   VOSKOWN=      0    Vosko Wilk Nusair interpolation
   LHFCALC =     F    Hartree Fock is set to
   LHFONE  =     F    Hartree Fock one center treatment
   AEXX    =    0.0000 exact exchange contribution

 Linear response parameters
   LEPSILON=     F    determine dielectric tensor
   LRPA    =     F    only Hartree local field effects (RPA)
   LNABLA  =     F    use nabla operator in PAW spheres
   LVEL    =     F    velocity operator in full k-point grid
   LINTERFAST=   F  fast interpolation
   KINTER  =     0    interpolate to denser k-point grid
   CSHIFT  =0.0100    complex shift for real part using Kramers Kronig
   OMEGAMAX=  -1.0    maximum frequency
   DEG_THRESHOLD= 0.2000000E-02 threshold for treating states as degnerate
   RTIME   =   -0.100 relaxation time in fs
  (WPLASMAI=    0.000 imaginary part of plasma frequency in eV, 0.658/RTIME)
   DFIELD  = 0.0000000 0.0000000 0.0000000 field for delta impulse in time
 
 Orbital magnetization related:
   ORBITALMAG=     F  switch on orbital magnetization
   LCHIMAG   =     F  perturbation theory with respect to B field
   DQ        =  0.001000  dq finite difference perturbation B field
   LLRAUG    =     F  two centre corrections for induced B field



--------------------------------------------------------------------------------------------------------


 conjugate gradient relaxation of ions
 charge density and potential will be updated during run
 non-spin polarized calculation
 Variant of blocked Davidson
 Davidson routine will perform the subspace rotation
 perform sub-space diagonalisation
    after iterative eigenvector-optimisation
 modified Broyden-mixing scheme, WC =      100.0
 initial mixing is a Kerker type mixing with AMIX =  0.4000 and BMIX =      1.0000
 Hartree-type preconditioning will be used
 using additional bands           14
 reciprocal scheme for non local part
 use partial core corrections
 calculate Harris-corrections to forces 
   (improved forces if not selfconsistent)
 use gradient corrections 
 use of overlap-Matrix (Vanderbilt PP)
 Fermi weights with tetrahedron method with Bloechl corrections


--------------------------------------------------------------------------------------------------------


  energy-cutoff  :      211.56
  volume of cell :       53.78
      direct lattice vectors                 reciprocal lattice vectors
     0.000000000  2.995905241  2.995905241    -0.166894464  0.166894464  0.166894464
     2.995905241  0.000000000  2.995905241     0.166894464 -0.166894464  0.166894464
     2.995905241  2.995905241  0.000000000     0.166894464  0.166894464 -0.166894464

  length of vectors
     4.236849823  4.236849823  4.236849823     0.289069692  0.289069692  0.289069692


 
 k-points in units of 2pi/SCALE and weight:                                         
   0.00000000  0.00000000  0.00000000       0.016
  -0.04172362  0.04172362  0.04172362       0.125
  -0.08344723  0.08344723  0.08344723       0.062
   0.00000000  0.00000000  0.08344723       0.094
  -0.04172362  0.04172362  0.12517085       0.375
   0.08344723 -0.08344723  0.00000000       0.188
   0.00000000  0.00000000  0.16689446       0.047
   0.16689446 -0.08344723  0.00000000       0.094
 
 k-points in reciprocal lattice and weights:                                         
   0.00000000  0.00000000  0.00000000       0.016
   0.25000000  0.00000000  0.00000000       0.125
   0.50000000  0.00000000  0.00000000       0.062
   0.25000000  0.25000000  0.00000000       0.094
   0.50000000  0.25000000  0.00000000       0.375
  -0.25000000  0.25000000  0.00000000       0.188
   0.50000000  0.50000000  0.00000000       0.047
  -0.25000000  0.50000000  0.25000000       0.094
 
 position of ions in fractional coordinates (direct lattice) 
   0.00000000  0.00000000  0.00000000
   0.25000000  0.25000000  0.25000000
 
 position of ions in cartesian coordinates  (Angst):
   0.00000000  0.00000000  0.00000000
   1.49795262  1.49795262  1.49795262
 


--------------------------------------------------------------------------------------------------------


 k-point  1 :   0.0000 0.0000 0.0000  plane waves:     339
 k-point  2 :   0.2500 0.0000 0.0000  plane waves:     368
 k-point  3 :   0.5000 0.0000 0.0000  plane waves:     368
 k-point  4 :   0.2500 0.2500 0.0000  plane waves:     375
 k-point  5 :   0.5000 0.2500 0.0000  plane waves:     377
 k-point  6 :  -0.2500 0.2500 0.0000  plane waves:     373
 k-point  7 :   0.5000 0.5000 0.0000  plane waves:     388
 k-point  8 :  -0.2500 0.5000 0.2500  plane waves:     380

 maximum and minimum number of plane-waves per node :       388      339

 maximum number of plane-waves:       388
 maximum index in each direction: 
   IXMAX=    5   IYMAX=    4   IZMAX=    5
   IXMIN=   -5   IYMIN=   -5   IZMIN=   -5


 serial   3D FFT for wavefunctions
 parallel 3D FFT for charge:
    minimum data exchange during FFTs selected (reduces bandwidth)


 total amount of memory used by VASP MPI-rank0    31358. kBytes
=======================================================================

   base      :      30000. kBytes
   nonl-proj :        671. kBytes
   fftplans  :        156. kBytes
   grid      :        407. kBytes
   one-center:         16. kBytes
   wavefun   :        108. kBytes
 
     INWAV:  cpu time    0.0000: real time    0.0003
 Broyden mixing: mesh for mixing (old mesh)
   NGX =  9   NGY =  9   NGZ =  9
  (NGX  = 32   NGY  = 32   NGZ  = 32)
  gives a total of    729 points

 initial charge density was supplied:
 charge density of overlapping atoms calculated
 number of electron       8.0000000 magnetization 
 keeping initial charge density in first step


--------------------------------------------------------------------------------------------------------


 Maximum index for augmentation-charges          452 (set IRDMAX)


--------------------------------------------------------------------------------------------------------


 First call to EWALD:  gamma=   0.470
 Maximum number of real-space cells 3x 3x 3
 Maximum number of reciprocal cells 3x 3x 3

    FEWALD:  cpu time    0.0040: real time    0.0012


--------------------------------------- Iteration      1(   1)  ---------------------------------------


    POTLOK:  cpu time    0.0040: real time    0.0069
    SETDIJ:  cpu time    0.1280: real time    0.1282
     EDDAV:  cpu time    0.0360: real time    0.0427
 BZINTS: Fermi energy:  2.740313;  8.000000 electrons
         Band energy: -13.904616;  BLOECHL correction:  0.000000
       DOS:  cpu time    0.0040: real time    0.0004
    --------------------------------------------
      LOOP:  cpu time    0.1720: real time    0.1782

 eigenvalue-minimisations  :   306
 total energy-change (2. order) : 0.1111052E+02  (-0.1807355E+03)
 number of electron       8.0000000 magnetization 
 augmentation part        8.0000000 magnetization 

 Free energy of the ion-electron system (eV)
  ---------------------------------------------------
  alpha Z        PSCENC =        11.99312492
  Ewald energy   TEWEN  =      -243.49789834
  -Hartree energ DENC   =       -39.56755417
  -exchange      EXHF   =         0.00000000
  -V(xc)+E(xc)   XCENC  =       -49.69251818
  PAW double counting   =       275.60715645     -209.97061880
  entropy T*S    EENTRO =         0.00000000
  eigenvalues    EBANDS =       -13.90461610
  atomic energy  EATOM  =       280.14344169
  Solvation  Ediel_sol  =         0.00000000
  ---------------------------------------------------
  free energy    TOTEN  =        11.11051746 eV

  energy without entropy =       11.11051746  energy(sigma->0) =       11.11051746


--------------------------------------------------------------------------------------------------------




--------------------------------------- Iteration      1(   2)  ---------------------------------------


     EDDAV:  cpu time    0.0080: real time    0.0170
 BZINTS: Fermi energy: -0.289980;  8.000000 electrons
         Band energy: -32.302985;  BLOECHL correction:  0.000000
       DOS:  cpu time    0.0000: real time    0.0004
    --------------------------------------------
      LOOP:  cpu time    0.0080: real time    0.0174

 eigenvalue-minimisations  :   396
 total energy-change (2. order) :-0.1839837E+02  (-0.1795758E+02)
 number of electron       8.0000000 magnetization 
 augmentation part        8.0000000 magnetization 

 Free energy of the ion-electron system (eV)
  ---------------------------------------------------
  alpha Z        PSCENC =        11.99312492
  Ewald energy   TEWEN  =      -243.49789834
  -Hartree energ DENC   =       -39.56755417
  -exchange      EXHF   =         0.00000000
  -V(xc)+E(xc)   XCENC  =       -49.69251818
  PAW double counting   =       275.60715645     -209.97061880
  entropy T*S    EENTRO =         0.00000000
  eigenvalues    EBANDS =       -32.30298509
  atomic energy  EATOM  =       280.14344169
  Solvation  Ediel_sol  =         0.00000000
  ---------------------------------------------------
  free energy    TOTEN  =        -7.28785153 eV

  energy without entropy =       -7.28785153  energy(sigma->0) =       -7.28785153


--------------------------------------------------------------------------------------------------------




--------------------------------------- Iteration      1(   3)  ---------------------------------------


     EDDAV:  cpu time    0.0080: real time    0.0089
 BZINTS: Fermi energy: -0.369995;  8.000000 electrons
         Band energy: -32.867956;  BLOECHL correction:  0.000000
       DOS:  cpu time    0.0000: real time    0.0003
    --------------------------------------------
      LOOP:  cpu time    0.0080: real time    0.0092

 eigenvalue-minimisations  :   333
 total energy-change (2. order) :-0.5649705E+00  (-0.5648017E+00)
 number of electron       8.0000000 magnetization 
 augmentation part        8.0000000 magnetization 

 Free energy of the ion-electron system (eV)
  ---------------------------------------------------
  alpha Z        PSCENC =        11.99312492
  Ewald energy   TEWEN  =      -243.49789834
  -Hartree energ DENC   =       -39.56755417
  -exchange      EXHF   =         0.00000000
  -V(xc)+E(xc)   XCENC  =       -49.69251818
  PAW double counting   =       275.60715645     -209.97061880
  entropy T*S    EENTRO =         0.00000000
  eigenvalues    EBANDS =       -32.86795562
  atomic energy  EATOM  =       280.14344169
  Solvation  Ediel_sol  =         0.00000000
  ---------------------------------------------------
  free energy    TOTEN  =        -7.85282206 eV

  energy without entropy =       -7.85282206  energy(sigma->0) =       -7.85282206


--------------------------------------------------------------------------------------------------------




--------------------------------------- Iteration      1(   4)  ---------------------------------------


     EDDAV:  cpu time    0.0080: real time    0.0083
 BZINTS: Fermi energy: -0.369995;  8.000000 electrons
         Band energy: -32.869932;  BLOECHL correction:  0.000000
       DOS:  cpu time    0.0040: real time    0.0003
    --------------------------------------------
      LOOP:  cpu time    0.0120: real time    0.0086

 eigenvalue-minimisations  :   378
 total energy-change (2. order) :-0.1976494E-02  (-0.1976485E-02)
 number of electron       8.0000000 magnetization 
 augmentation part        8.0000000 magnetization 

 Free energy of the ion-electron system (eV)
  ---------------------------------------------------
  alpha Z        PSCENC =        11.99312492
  Ewald energy   TEWEN  =      -243.49789834
  -Hartree energ DENC   =       -39.56755417
  -exchange      EXHF   =         0.00000000
  -V(xc)+E(xc)   XCENC  =       -49.69251818
  PAW double counting   =       275.60715645     -209.97061880
  entropy T*S    EENTRO =         0.00000000
  eigenvalues    EBANDS =       -32.86993211
  atomic energy  EATOM  =       280.14344169
  Solvation  Ediel_sol  =         0.00000000
  ---------------------------------------------------
  free energy    TOTEN  =        -7.85479855 eV

  energy without entropy =       -7.85479855  energy(sigma->0) =       -7.85479855


--------------------------------------------------------------------------------------------------------




--------------------------------------- Iteration      1(   5)  ---------------------------------------


     EDDAV:  cpu time    0.0040: real time    0.0076
 BZINTS: Fermi energy: -0.369995;  8.000000 electrons
         Band energy: -32.869943;  BLOECHL correction:  0.000000
       DOS:  cpu time    0.0000: real time    0.0003
    CHARGE:  cpu time    0.0040: real time    0.0015
    MIXING:  cpu time    0.0000: real time    0.0002
    --------------------------------------------
      LOOP:  cpu time    0.0080: real time    0.0096

 eigenvalue-minimisations  :   324
 total energy-change (2. order) :-0.1110557E-04  (-0.1110562E-04)
 number of electron       7.9999995 magnetization 
 augmentation part       -1.1710384 magnetization 

 Broyden mixing:
  rms(total) = 0.31501E+00    rms(broyden)= 0.31479E+00
  rms(prec ) = 0.97898E+00
  weight for this iteration     100.00

 Free energy of the ion-electron system (eV)
  ---------------------------------------------------
  alpha Z        PSCENC =        11.99312492
  Ewald energy   TEWEN  =      -243.49789834
  -Hartree energ DENC   =       -39.56755417
  -exchange      EXHF   =         0.00000000
  -V(xc)+E(xc)   XCENC  =       -49.69251818
  PAW double counting   =       275.60715645     -209.97061880
  entropy T*S    EENTRO =         0.00000000
  eigenvalues    EBANDS =       -32.86994322
  atomic energy  EATOM  =       280.14344169
  Solvation  Ediel_sol  =         0.00000000
  ---------------------------------------------------
  free energy    TOTEN  =        -7.85480966 eV

  energy without entropy =       -7.85480966  energy(sigma->0) =       -7.85480966


--------------------------------------------------------------------------------------------------------




--------------------------------------- Iteration      1(   6)  ---------------------------------------


    POTLOK:  cpu time    0.0000: real time    0.0025
    SETDIJ:  cpu time    0.1320: real time    0.1320
     EDDAV:  cpu time    0.0160: real time    0.0170
 BZINTS: Fermi energy:  0.200005;  8.000000 electrons
         Band energy: -28.705438;  BLOECHL correction:  0.000000
       DOS:  cpu time    0.0000: real time    0.0004
    CHARGE:  cpu time    0.0040: real time    0.0033
    MIXING:  cpu time    0.0000: real time    0.0011
    --------------------------------------------
      LOOP:  cpu time    0.1520: real time    0.1562

 eigenvalue-minimisations  :   324
 total energy-change (2. order) : 0.3337613E+00  (-0.5786163E-01)
 number of electron       7.9999995 magnetization 
 augmentation part       -1.1274425 magnetization 

 Broyden mixing:
  rms(total) = 0.18963E+00    rms(broyden)= 0.18960E+00
  rms(prec ) = 0.44541E+00
  weight for this iteration     100.00

 eigenvalues of (default mixing * dielectric matrix)
  average eigenvalue GAMMA=   1.8094
  1.8094

 Free energy of the ion-electron system (eV)
  ---------------------------------------------------
  alpha Z        PSCENC =        11.99312492
  Ewald energy   TEWEN  =      -243.49789834
  -Hartree energ DENC   =       -43.66282268
  -exchange      EXHF   =         0.00000000
  -V(xc)+E(xc)   XCENC  =       -49.30478275
  PAW double counting   =       339.32570187     -273.81237466
  entropy T*S    EENTRO =         0.00000000
  eigenvalues    EBANDS =       -28.70543844
  atomic energy  EATOM  =       280.14344169
  Solvation  Ediel_sol  =         0.00000000
  ---------------------------------------------------
  free energy    TOTEN  =        -7.52104840 eV

  energy without entropy =       -7.52104840  energy(sigma->0) =       -7.52104840


--------------------------------------------------------------------------------------------------------




--------------------------------------- Iteration      1(   7)  ---------------------------------------


    POTLOK:  cpu time    0.0040: real time    0.0041
    SETDIJ:  cpu time    0.1160: real time    0.1163
     EDDAV:  cpu time    0.0120: real time    0.0103
 BZINTS: Fermi energy:  0.550002;  8.000000 electrons
         Band energy: -26.175008;  BLOECHL correction:  0.000000
       DOS:  cpu time    0.0000: real time    0.0003
    CHARGE:  cpu time    0.0000: real time    0.0013
    MIXING:  cpu time    0.0000: real time    0.0009
    --------------------------------------------
      LOOP:  cpu time    0.1320: real time    0.1333

 eigenvalue-minimisations  :   351
 total energy-change (2. order) : 0.3475969E-01  (-0.2385795E-01)
 number of electron       7.9999995 magnetization 
 augmentation part       -1.0977636 magnetization 

 Broyden mixing:
  rms(total) = 0.10857E+00    rms(broyden)= 0.10849E+00
  rms(prec ) = 0.16490E+00
  weight for this iteration     100.00

 eigenvalues of (default mixing * dielectric matrix)
  average eigenvalue GAMMA=   2.7185
  1.5715  3.8655

 Free energy of the ion-electron system (eV)
  ---------------------------------------------------
  alpha Z        PSCENC =        11.99312492
  Ewald energy   TEWEN  =      -243.49789834
  -Hartree energ DENC   =       -46.40945274
  -exchange      EXHF   =         0.00000000
  -V(xc)+E(xc)   XCENC  =       -48.96875287
  PAW double counting   =       416.58637264     -351.15811642
  entropy T*S    EENTRO =         0.00000000
  eigenvalues    EBANDS =       -26.17500758
  atomic energy  EATOM  =       280.14344169
  Solvation  Ediel_sol  =         0.00000000
  ---------------------------------------------------
  free energy    TOTEN  =        -7.48628871 eV

  energy without entropy =       -7.48628871  energy(sigma->0) =       -7.48628871


--------------------------------------------------------------------------------------------------------




--------------------------------------- Iteration      1(   8)  ---------------------------------------


    POTLOK:  cpu time    0.0040: real time    0.0024
    SETDIJ:  cpu time    0.1040: real time    0.1055
     EDDAV:  cpu time    0.0080: real time    0.0074
 BZINTS: Fermi energy:  0.540005;  8.000000 electrons
         Band energy: -26.113858;  BLOECHL correction:  0.000000
       DOS:  cpu time    0.0000: real time    0.0003
    CHARGE:  cpu time    0.0000: real time    0.0013
    MIXING:  cpu time    0.0000: real time    0.0003
    --------------------------------------------
      LOOP:  cpu time    0.1160: real time    0.1174

 eigenvalue-minimisations  :   324
 total energy-change (2. order) :-0.5931489E-02  (-0.1924653E-02)
 number of electron       7.9999995 magnetization 
 augmentation part       -1.1031329 magnetization 

 Broyden mixing:
  rms(total) = 0.51501E-01    rms(broyden)= 0.51500E-01
  rms(prec ) = 0.63404E-01
  weight for this iteration     100.00

 eigenvalues of (default mixing * dielectric matrix)
  average eigenvalue GAMMA=   1.6919
  2.9150  1.5339  0.6267

 Free energy of the ion-electron system (eV)
  ---------------------------------------------------
  alpha Z        PSCENC =        11.99312492
  Ewald energy   TEWEN  =      -243.49789834
  -Hartree energ DENC   =       -46.65434915
  -exchange      EXHF   =         0.00000000
  -V(xc)+E(xc)   XCENC  =       -48.78683857
  PAW double counting   =       500.46891890     -435.04476142
  entropy T*S    EENTRO =         0.00000000
  eigenvalues    EBANDS =       -26.11385822
  atomic energy  EATOM  =       280.14344169
  Solvation  Ediel_sol  =         0.00000000
  ---------------------------------------------------
  free energy    TOTEN  =        -7.49222020 eV

  energy without entropy =       -7.49222020  energy(sigma->0) =       -7.49222020


--------------------------------------------------------------------------------------------------------




--------------------------------------- Iteration      1(   9)  ---------------------------------------


    POTLOK:  cpu time    0.0040: real time    0.0025
    SETDIJ:  cpu time    0.1080: real time    0.1068
     EDDAV:  cpu time    0.0080: real time    0.0081
 BZINTS: Fermi energy:  0.560002;  8.000000 electrons
         Band energy: -26.031484;  BLOECHL correction:  0.000000
       DOS:  cpu time    0.0000: real time    0.0003
    CHARGE:  cpu time    0.0000: real time    0.0013
    MIXING:  cpu time    0.0000: real time    0.0007
    --------------------------------------------
      LOOP:  cpu time    0.1200: real time    0.1196

 eigenvalue-minimisations  :   342
 total energy-change (2. order) : 0.4328157E-03  (-0.1156276E-03)
 number of electron       7.9999995 magnetization 
 augmentation part       -1.1014795 magnetization 

 Broyden mixing:
  rms(total) = 0.21831E-01    rms(broyden)= 0.21829E-01
  rms(prec ) = 0.25205E-01
  weight for this iteration     100.00

 eigenvalues of (default mixing * dielectric matrix)
  average eigenvalue GAMMA=   1.8079
  2.7188  2.0122  1.1259  1.3746

 Free energy of the ion-electron system (eV)
  ---------------------------------------------------
  alpha Z        PSCENC =        11.99312492
  Ewald energy   TEWEN  =      -243.49789834
  -Hartree energ DENC   =       -46.71427995
  -exchange      EXHF   =         0.00000000
  -V(xc)+E(xc)   XCENC  =       -48.80832350
  PAW double counting   =       484.54519219     -419.12156046
  entropy T*S    EENTRO =         0.00000000
  eigenvalues    EBANDS =       -26.03148393
  atomic energy  EATOM  =       280.14344169
  Solvation  Ediel_sol  =         0.00000000
  ---------------------------------------------------
  free energy    TOTEN  =        -7.49178738 eV

  energy without entropy =       -7.49178738  energy(sigma->0) =       -7.49178738


--------------------------------------------------------------------------------------------------------




--------------------------------------- Iteration      1(  10)  ---------------------------------------


    POTLOK:  cpu time    0.0040: real time    0.0024
    SETDIJ:  cpu time    0.1040: real time    0.1068
     EDDAV:  cpu time    0.0080: real time    0.0075
 BZINTS: Fermi energy:  0.570002;  8.000000 electrons
         Band energy: -25.952207;  BLOECHL correction:  0.000000
       DOS:  cpu time    0.0000: real time    0.0003
    CHARGE:  cpu time    0.0040: real time    0.0013
    MIXING:  cpu time    0.0000: real time    0.0003
    --------------------------------------------
      LOOP:  cpu time    0.1200: real time    0.1187

 eigenvalue-minimisations  :   324
 total energy-change (2. order) :-0.1152855E-03  (-0.3606693E-04)
 number of electron       7.9999995 magnetization 
 augmentation part       -1.1003609 magnetization 

 Broyden mixing:
  rms(total) = 0.22709E-02    rms(broyden)= 0.22647E-02
  rms(prec ) = 0.39595E-02
  weight for this iteration     100.00

 eigenvalues of (default mixing * dielectric matrix)
  average eigenvalue GAMMA=   1.8114
  3.0081  2.7032  1.4543  0.9458  0.9458

 Free energy of the ion-electron system (eV)
  ---------------------------------------------------
  alpha Z        PSCENC =        11.99312492
  Ewald energy   TEWEN  =      -243.49789834
  -Hartree energ DENC   =       -46.79077011
  -exchange      EXHF   =         0.00000000
  -V(xc)+E(xc)   XCENC  =       -48.81365430
  PAW double counting   =       471.80048711     -406.37442622
  entropy T*S    EENTRO =         0.00000000
  eigenvalues    EBANDS =       -25.95220741
  atomic energy  EATOM  =       280.14344169
  Solvation  Ediel_sol  =         0.00000000
  ---------------------------------------------------
  free energy    TOTEN  =        -7.49190267 eV

  energy without entropy =       -7.49190267  energy(sigma->0) =       -7.49190267


--------------------------------------------------------------------------------------------------------




--------------------------------------- Iteration      1(  11)  ---------------------------------------


    POTLOK:  cpu time    0.0000: real time    0.0024
    SETDIJ:  cpu time    0.1080: real time    0.1049
     EDDAV:  cpu time    0.0040: real time    0.0080
 BZINTS: Fermi energy:  0.570002;  8.000000 electrons
         Band energy: -25.949389;  BLOECHL correction:  0.000000
       DOS:  cpu time    0.0040: real time    0.0003
    CHARGE:  cpu time    0.0000: real time    0.0013
    MIXING:  cpu time    0.0000: real time    0.0003
    --------------------------------------------
      LOOP:  cpu time    0.1160: real time    0.1172

 eigenvalue-minimisations  :   342
 total energy-change (2. order) :-0.1875793E-04  (-0.2551012E-05)
 number of electron       7.9999995 magnetization 
 augmentation part       -1.1004107 magnetization 

 Broyden mixing:
  rms(total) = 0.28493E-02    rms(broyden)= 0.28491E-02
  rms(prec ) = 0.31198E-02
  weight for this iteration     100.00

 eigenvalues of (default mixing * dielectric matrix)
  average eigenvalue GAMMA=   1.9865
  3.4578  2.6902  2.2941  1.3667  1.1303  0.9799

 Free energy of the ion-electron system (eV)
  ---------------------------------------------------
  alpha Z        PSCENC =        11.99312492
  Ewald energy   TEWEN  =      -243.49789834
  -Hartree energ DENC   =       -46.79540634
  -exchange      EXHF   =         0.00000000
  -V(xc)+E(xc)   XCENC  =       -48.81268133
  PAW double counting   =       471.29963915     -405.87275210
  entropy T*S    EENTRO =         0.00000000
  eigenvalues    EBANDS =       -25.94938906
  atomic energy  EATOM  =       280.14344169
  Solvation  Ediel_sol  =         0.00000000
  ---------------------------------------------------
  free energy    TOTEN  =        -7.49192142 eV

  energy without entropy =       -7.49192142  energy(sigma->0) =       -7.49192142


--------------------------------------------------------------------------------------------------------




--------------------------------------- Iteration      1(  12)  ---------------------------------------


    POTLOK:  cpu time    0.0040: real time    0.0024
    SETDIJ:  cpu time    0.1040: real time    0.1049
     EDDAV:  cpu time    0.0080: real time    0.0090
 BZINTS: Fermi energy:  0.570002;  8.000000 electrons
         Band energy: -25.951801;  BLOECHL correction:  0.000000
       DOS:  cpu time    0.0000: real time    0.0003
    --------------------------------------------
      LOOP:  cpu time    0.1160: real time    0.1167

 eigenvalue-minimisations  :   369
 total energy-change (2. order) :-0.1217441E-05  (-0.4783753E-06)
 number of electron       7.9999995 magnetization 
 augmentation part       -1.1004107 magnetization 

 Free energy of the ion-electron system (eV)
  ---------------------------------------------------
  alpha Z        PSCENC =        11.99312492
  Ewald energy   TEWEN  =      -243.49789834
  -Hartree energ DENC   =       -46.79367937
  -exchange      EXHF   =         0.00000000
  -V(xc)+E(xc)   XCENC  =       -48.81191161
  PAW double counting   =       472.99720796     -407.57040687
  entropy T*S    EENTRO =         0.00000000
  eigenvalues    EBANDS =       -25.95180102
  atomic energy  EATOM  =       280.14344169
  Solvation  Ediel_sol  =         0.00000000
  ---------------------------------------------------
  free energy    TOTEN  =        -7.49192264 eV

  energy without entropy =       -7.49192264  energy(sigma->0) =       -7.49192264


--------------------------------------------------------------------------------------------------------




 average (electrostatic) potential at core
  the test charge radii are     1.0714  1.0808
  (the norm of the test charge is              1.0000)
       1 -39.7733       2 -55.6826
 
 
 
 E-fermi :   0.5700     XC(G=0):  -8.0912     alpha+bet : -7.1720


 k-point     1 :       0.0000    0.0000    0.0000
  band No.  band energies     occupation 
      1     -10.9765      2.00000
      2       0.5613      2.00000
      3       0.5614      2.00000
      4       0.5614      2.00000
      5       3.0904      0.00000
      6       7.6063      0.00000
      7       7.6063      0.00000
      8       7.6063      0.00000
      9      10.7979      0.00000
     10      10.7979      0.00000
     11      12.0583      0.00000
     12      12.9908      0.00000
     13      12.9908      0.00000
     14      12.9908      0.00000
     15      15.9510      0.00000
     16      23.7939      0.00000
     17      23.7940      0.00000
     18      23.7940      0.00000

 k-point     2 :       0.2500    0.0000    0.0000
  band No.  band energies     occupation 
      1     -10.7295      2.00000
      2      -1.3751      2.00000
      3       0.3682      2.00000
      4       0.3683      2.00000
      5       4.6277      0.00000
      6       7.6226      0.00000
      7       7.8689      0.00000
      8       7.8689      0.00000
      9      10.2313      0.00000
     10      10.2314      0.00000
     11      11.3440      0.00000
     12      14.8846      0.00000
     13      16.1631      0.00000
     14      16.1631      0.00000
     15      18.7261      0.00000
     16      18.9573      0.00000
     17      18.9573      0.00000
     18      19.7966      0.00000

 k-point     3 :       0.5000    0.0000    0.0000
  band No.  band energies     occupation 
      1     -10.4482      2.00000
      2      -2.5738      2.00000
      3       0.2014      2.00000
      4       0.2015      2.00000
      5       4.6968      0.00000
      6       7.4505      0.00000
      7       7.4505      0.00000
      8       8.6451      0.00000
      9      11.9665      0.00000
     10      13.2469      0.00000
     11      13.2470      0.00000
     12      13.5202      0.00000
     13      13.5203      0.00000
     14      14.3890      0.00000
     15      20.5784      0.00000
     16      21.6695      0.00000
     17      21.9832      0.00000
     18      21.9832      0.00000

 k-point     4 :       0.2500    0.2500    0.0000
  band No.  band energies     occupation 
      1     -10.6479      2.00000
      2      -1.2977      2.00000
      3      -0.0427      2.00000
      4      -0.0427      2.00000
      5       5.0945      0.00000
      6       6.1325      0.00000
      7       8.2533      0.00000
      8       9.1501      0.00000
      9       9.1501      0.00000
     10      11.7785      0.00000
     11      14.6488      0.00000
     12      14.6488      0.00000
     13      14.9029      0.00000
     14      15.1537      0.00000
     15      18.5496      0.00000
     16      18.5496      0.00000
     17      19.7478      0.00000
     18      19.7813      0.00000

 k-point     5 :       0.5000    0.2500    0.0000
  band No.  band energies     occupation 
      1     -10.3658      2.00000
      2      -2.1451      2.00000
      3      -0.8078      2.00000
      4      -0.1948      2.00000
      5       5.1587      0.00000
      6       6.8505      0.00000
      7       8.2191      0.00000
      8       9.0658      0.00000
      9      11.1557      0.00000
     10      13.1512      0.00000
     11      14.0782      0.00000
     12      14.3883      0.00000
     13      14.5360      0.00000
     14      18.3255      0.00000
     15      18.6644      0.00000
     16      19.2346      0.00000
     17      19.8532      0.00000
     18      20.4443      0.00000

 k-point     6 :      -0.2500    0.2500    0.0000
  band No.  band energies     occupation 
      1     -10.4591      2.00000
      2      -1.9319      2.00000
      3      -0.8794      2.00000
      4       0.1795      2.00000
      5       5.9993      0.00000
      6       6.8436      0.00000
      7       7.8378      0.00000
      8       8.4600      0.00000
      9       9.7711      0.00000
     10      12.3150      0.00000
     11      13.7365      0.00000
     12      14.6902      0.00000
     13      15.0988      0.00000
     14      18.0538      0.00000
     15      18.8310      0.00000
     16      19.0866      0.00000
     17      19.6511      0.00000
     18      21.2860      0.00000

 k-point     7 :       0.5000    0.5000    0.0000
  band No.  band energies     occupation 
      1     -10.2757      2.00000
      2      -2.3170      2.00000
      3      -0.5218      2.00000
      4      -0.5217      2.00000
      5       4.0056      0.00000
      6       5.4084      0.00000
      7      11.0611      0.00000
      8      11.6577      0.00000
      9      11.6577      0.00000
     10      14.0008      0.00000
     11      14.0009      0.00000
     12      14.2514      0.00000
     13      14.4032      0.00000
     14      15.3644      0.00000
     15      19.0667      0.00000
     16      20.0254      0.00000
     17      20.0254      0.00000
     18      20.1555      0.00000

 k-point     8 :      -0.2500    0.5000    0.2500
  band No.  band energies     occupation 
      1     -10.2703      2.00000
      2      -1.8774      2.00000
      3      -1.2605      2.00000
      4      -0.7976      2.00000
      5       5.7438      0.00000
      6       7.5396      0.00000
      7       7.9990      0.00000
      8       8.2277      0.00000
      9      11.8842      0.00000
     10      13.2536      0.00000
     11      13.9067      0.00000
     12      14.5565      0.00000
     13      17.5079      0.00000
     14      17.5310      0.00000
     15      19.0624      0.00000
     16      19.2593      0.00000
     17      19.5166      0.00000
     18      19.7786      0.00000


--------------------------------------------------------------------------------------------------------


 soft charge-density along one line, spin component           1
         0         1         2         3         4         5         6         7         8         9
 total charge-density along one line
 
 pseudopotential strength for first ion, spin component:           1
  2.997   9.613  -0.000  -0.000  -0.000  -0.000  -0.000  -0.000
  9.613  30.640  -0.000  -0.000  -0.000  -0.000  -0.000  -0.000
 -0.000  -0.000   7.020  -0.000  -0.000  10.408  -0.000  -0.000
 -0.000  -0.000  -0.000   7.020  -0.000  -0.000  10.408  -0.000
 -0.000  -0.000  -0.000  -0.000   7.020  -0.000  -0.000  10.408
 -0.000  -0.000  10.408  -0.000  -0.000  14.552  -0.000  -0.000
 -0.000  -0.000  -0.000  10.408  -0.000  -0.000  14.552  -0.000
 -0.000  -0.000  -0.000  -0.000  10.408  -0.000  -0.000  14.552
 -0.000  -0.000  -0.000  -0.002  -0.000  -0.000  -0.002  -0.000
 -0.000  -0.000  -0.000  -0.000  -0.002  -0.000  -0.000  -0.002
  0.000   0.000  -0.000   0.000  -0.000  -0.000   0.000  -0.000
 -0.000  -0.000  -0.002  -0.000  -0.000  -0.002  -0.000  -0.000
  0.000   0.000  -0.000  -0.000   0.000  -0.000  -0.000   0.000
 total augmentation occupancy for first ion, spin component:           1
  1.039  -0.027  -0.000  -0.000   0.000   0.000  -0.000  -0.000  -0.000  -0.000  -0.000  -0.000   0.000
 -0.027   0.001   0.000   0.000  -0.000   0.000   0.000   0.000   0.000   0.000   0.000   0.000   0.000
 -0.000   0.000   0.089  -0.000   0.000  -0.009   0.000   0.000  -0.000   0.000   0.000   0.028   0.000
  0.000  -0.000   0.000   0.089  -0.000   0.000  -0.009  -0.000   0.028   0.000   0.000   0.000   0.000
  0.000  -0.000   0.000   0.000   0.089  -0.000   0.000  -0.009   0.000   0.028  -0.000   0.000   0.000
  0.000   0.000  -0.009  -0.000   0.000   0.001  -0.000   0.000   0.000  -0.000   0.000  -0.003   0.000
 -0.000   0.000   0.000  -0.009  -0.000  -0.000   0.001   0.000  -0.003   0.000   0.000  -0.000  -0.000
  0.000   0.000  -0.000   0.000  -0.009   0.000   0.000   0.001   0.000  -0.003   0.000  -0.000   0.000
  0.000   0.000  -0.000   0.028   0.000   0.000  -0.003   0.000   0.014   0.000  -0.000   0.000  -0.000
  0.000   0.000   0.000  -0.000   0.028  -0.000   0.000  -0.003   0.000   0.014   0.000   0.000  -0.000
 -0.000   0.000   0.000   0.000  -0.000   0.000  -0.000  -0.000   0.000  -0.000   0.004  -0.000   0.000
  0.000   0.000   0.028   0.000   0.000  -0.003   0.000   0.000   0.000   0.000  -0.000   0.014   0.000
  0.000   0.000   0.000   0.000  -0.000   0.000   0.000   0.000   0.000   0.000   0.000   0.000   0.004


------------------------ aborting loop because EDIFF is reached ----------------------------------------


 


 total charge     
 
# of ion       s       p       d       tot
------------------------------------------
    1        0.166   0.134   0.028   0.329
    2        1.427   2.532   0.008   3.967
--------------------------------------------------
tot          1.593   2.667   0.036   4.296
 
    CHARGE:  cpu time    0.0040: real time    0.0024
    FORLOC:  cpu time    0.0000: real time    0.0002
    FORNL :  cpu time    0.0000: real time    0.0011
    FORCOR:  cpu time    0.1080: real time    0.1065
    FORHAR:  cpu time    0.0000: real time    0.0005
    MIXING:  cpu time    0.0000: real time    0.0003
    OFIELD:  cpu time    0.0000: real time    0.0000

 VOLUME and BASIS-vectors are now :
 -----------------------------------------------------------------------------
  energy-cutoff  :      211.56
  volume of cell :       53.78
      direct lattice vectors                 reciprocal lattice vectors
     0.000000000  2.995905241  2.995905241    -0.166894464  0.166894464  0.166894464
     2.995905241  0.000000000  2.995905241     0.166894464 -0.166894464  0.166894464
     2.995905241  2.995905241  0.000000000     0.166894464  0.166894464 -0.166894464

  length of vectors
     4.236849823  4.236849823  4.236849823     0.289069692  0.289069692  0.289069692


 FORCES acting on ions
    electron-ion (+dipol)            ewald-force                    non-local-force                 convergence-correction
 -----------------------------------------------------------------------------------------------
   -.161E-04 -.161E-04 -.166E-04   -.165E-15 -.128E-14 0.123E-14   0.416E-16 0.486E-16 0.555E-16   0.620E-07 0.620E-07 0.620E-07
   -.729E-06 -.729E-06 -.130E-05   0.143E-16 0.140E-14 -.129E-14   0.486E-16 0.382E-16 0.408E-16   -.318E-07 -.318E-07 -.318E-07
 -----------------------------------------------------------------------------------------------
   -.168E-04 -.168E-04 -.179E-04   -.151E-15 0.116E-15 -.665E-16   0.902E-16 0.867E-16 0.963E-16   0.302E-07 0.302E-07 0.302E-07
 
 
 POSITION                                       TOTAL-FORCE (eV/Angst)
 -----------------------------------------------------------------------------------
      0.00000      0.00000      0.00000         0.000000      0.000000      0.000000
      1.49795      1.49795      1.49795        -0.000000     -0.000000     -0.000000
 -----------------------------------------------------------------------------------
    total drift:                               -0.000017     -0.000017     -0.000018


--------------------------------------------------------------------------------------------------------



  FREE ENERGIE OF THE ION-ELECTRON SYSTEM (eV)
  ---------------------------------------------------
  free  energy   TOTEN  =        -7.49192264 eV

  energy  without entropy=       -7.49192264  energy(sigma->0) =       -7.49192264
 


--------------------------------------------------------------------------------------------------------


    POTLOK:  cpu time    0.1040: real time    0.1071


--------------------------------------------------------------------------------------------------------




--------------------------------------------------------------------------------------------------------


  
 reached required accuracy - stopping structural energy minimisation
     LOOP+:  cpu time    1.3040: real time    1.3304


--------------------------------------------------------------------------------------------------------



 ----------------------------------------------------------------------------- 
|                                                                             |
|           W    W    AA    RRRRR   N    N  II  N    N   GGGG   !!!           |
|           W    W   A  A   R    R  NN   N  II  NN   N  G    G  !!!           |
|           W    W  A    A  R    R  N N  N  II  N N  N  G       !!!           |
|           W WW W  AAAAAA  RRRRR   N  N N  II  N  N N  G  GGG   !            |
|           WW  WW  A    A  R   R   N   NN  II  N   NN  G    G                |
|           W    W  A    A  R    R  N    N  II  N    N   GGGG   !!!           |
|                                                                             |
|      You are using a small complex shift. This can yield unreliable results |
|      when the Kramers Kronig relation is used for systems with spin-orbit   |
|      interactions.                                                          |
|      Please increase CSHIFT in the INCAR file.                              |
|                                                                             |
 ----------------------------------------------------------------------------- 


 plasma frequency squared (from intraband transitions) (eV^2)
  --------------------------------------------------------------------------------------
       0.000       0.000       0.000
       0.000       0.000       0.000
       0.000       0.000       0.000

 electrical conductivity sigma (Mega S m-1) (frequency dependency in vasprun.xml)
  --------------------------------------------------------------------------------------
       0.000       0.000       0.000
       0.000       0.000       0.000
       0.000       0.000       0.000

 plasma frequency squared (from interband transitions, int dw w eps(2)(w)) (eV^2)
  --------------------------------------------------------------------------------------
     209.176       0.000       0.000       0.000      -0.000       0.000
       0.000       0.000     209.176       0.000       0.000       0.000
      -0.000       0.000       0.000       0.000     209.176       0.000
  --------------------------------------------------------------------------------------
 sumrule: sum of plasma frequencies squared should yield (valence only):     205.116

 Anomalous Hall contribution (eV) 2/pi Imag((f_n-f_m)<u_m| d/dk_a u_n> <u_m| d/dk_b u_n>^*) 
  --------------------------------------------------------------------------------------
       0.000       0.000       0.000
       0.000       0.000       0.000
       0.000       0.000       0.000

  frequency dependent IMAGINARY DIELECTRIC FUNCTION (independent particle, no local field effects) density-density
     E(ev)      X         Y         Z        XY        YZ        ZX
  --------------------------------------------------------------------------------------------------------------
    0.000000    0.000000    0.000000    0.000000    0.000000    0.000000    0.000000
    0.010429    0.000000    0.000000    0.000000    0.000000    0.000000    0.000000
    0.020857    0.000000    0.000000    0.000000    0.000000    0.000000    0.000000
    0.031286    0.000000    0.000000    0.000000    0.000000    0.000000    0.000000
    0.041714    0.000000    0.000000    0.000000    0.000000    0.000000    0.000000
    0.052143    0.000000    0.000000    0.000000    0.000000    0.000000    0.000000
    0.062571    0.000000    0.000000    0.000000    0.000000    0.000000    0.000000
    0.073000    0.000000    0.000000    0.000000    0.000000    0.000000    0.000000
    0.083428    0.000000    0.000000    0.000000    0.000000    0.000000    0.000000
    0.093857    0.000000    0.000000    0.000000    0.000000    0.000000    0.000000
    0.104285    0.000000    0.000000    0.000000    0.000000    0.000000    0.000000
    0.114714    0.000000    0.000000    0.000000    0.000000    0.000000    0.000000
    0.125143    0.000000    0.000000    0.000000    0.000000    0.000000    0.000000
    0.135571    0.000000    0.000000    0.000000    0.000000    0.000000    0.000000
    0.146000    0.000000    0.000000    0.000000    0.000000    0.000000    0.000000
    0.156428    0.000000    0.000000    0.000000    0.000000    0.000000    0.000000
    0.166857    0.000000    0.000000    0.000000    0.000000    0.000000    0.000000
    0.177285    0.000000    0.000000    0.000000    0.000000    0.000000    0.000000
    0.187714    0.000000    0.000000    0.000000    0.000000    0.000000    0.000000
    0.198142    0.000000    0.000000    0.000000    0.000000    0.000000    0.000000
    0.208571    0.000000    0.000000    0.000000    0.000000    0.000000    0.000000
    0.219000    0.000000    0.000000    0.000000    0.000000    0.000000    0.000000
    0.229428    0.000000    0.000000    0.000000    0.000000    0.000000    0.000000
    0.239857    0.000000    0.000000    0.000000    0.000000    0.000000    0.000000
    0.250285    0.000000    0.000000    0.000000    0.000000    0.000000    0.000000
    0.260714    0.000000    0.000000    0.000000    0.000000    0.000000    0.000000
    0.271142    0.000000    0.000000    0.000000    0.000000    0.000000    0.000000
    0.281571    0.000000    0.000000    0.000000    0.000000    0.000000    0.000000
    0.291999    0.000000    0.000000    0.000000    0.000000    0.000000    0.000000
    0.302428    0.000000    0.000000    0.000000    0.000000    0.000000    0.000000
    0.312856    0.000000    0.000000    0.000000    0.000000    0.000000    0.000000
    0.323285    0.000000    0.000000    0.000000    0.000000    0.000000    0.000000
    0.333714    0.000000    0.000000    0.000000    0.000000    0.000000    0.000000
    0.344142    0.000000    0.000000    0.000000    0.000000    0.000000    0.000000
    0.354571    0.000000    0.000000    0.000000    0.000000    0.000000    0.000000
    0.364999    0.000000    0.000000    0.000000    0.000000    0.000000    0.000000
    0.375428    0.000000    0.000000    0.000000    0.000000    0.000000    0.000000
    0.385856    0.000000    0.000000    0.000000    0.000000    0.000000    0.000000
    0.396285    0.000000    0.000000    0.000000    0.000000    0.000000    0.000000
    0.406713    0.000000    0.000000    0.000000    0.000000    0.000000    0.000000
    0.417142    0.000000    0.000000    0.000000    0.000000    0.000000    0.000000
    0.427570    0.000000    0.000000    0.000000    0.000000    0.000000    0.000000
    0.437999    0.000000    0.000000    0.000000    0.000000    0.000000    0.000000
    0.448428    0.000000    0.000000    0.000000    0.000000    0.000000    0.000000
    0.458856    0.000000    0.000000    0.000000    0.000000    0.000000    0.000000
    0.469285    0.000000    0.000000    0.000000    0.000000    0.000000    0.000000
    0.479713    0.000000    0.000000    0.000000    0.000000    0.000000    0.000000
    0.490142    0.000000    0.000000    0.000000    0.000000    0.000000    0.000000
    0.500570    0.000000    0.000000    0.000000    0.000000    0.000000    0.000000
    0.510999    0.000000    0.000000    0.000000    0.000000    0.000000    0.000000
    0.521427    0.000000    0.000000    0.000000    0.000000    0.000000    0.000000
    0.531856    0.000000    0.000000    0.000000    0.000000    0.000000    0.000000
    0.542285    0.000000    0.000000    0.000000    0.000000    0.000000    0.000000
    0.552713    0.000000    0.000000    0.000000    0.000000    0.000000    0.000000
    0.563142    0.000000    0.000000    0.000000    0.000000    0.000000    0.000000
    0.573570    0.000000    0.000000    0.000000    0.000000    0.000000    0.000000
    0.583999    0.000000    0.000000    0.000000    0.000000    0.000000    0.000000
    0.594427    0.000000    0.000000    0.000000    0.000000    0.000000    0.000000
    0.604856    0.000000    0.000000    0.000000    0.000000    0.000000    0.000000
    0.615284    0.000000    0.000000    0.000000    0.000000    0.000000    0.000000
    0.625713    0.000000    0.000000    0.000000    0.000000    0.000000    0.000000
    0.636141    0.000000    0.000000    0.000000    0.000000    0.000000    0.000000
    0.646570    0.000000    0.000000    0.000000    0.000000    0.000000    0.000000
    0.656999    0.000000    0.000000    0.000000    0.000000    0.000000    0.000000
    0.667427    0.000000    0.000000    0.000000    0.000000    0.000000    0.000000
    0.677856    0.000000    0.000000    0.000000    0.000000    0.000000    0.000000
    0.688284    0.000000    0.000000    0.000000    0.000000    0.000000    0.000000
    0.698713    0.000000    0.000000    0.000000    0.000000    0.000000    0.000000
    0.709141    0.000000    0.000000    0.000000    0.000000    0.000000    0.000000
    0.719570    0.000000    0.000000    0.000000    0.000000    0.000000    0.000000
    0.729998    0.000000    0.000000    0.000000    0.000000    0.000000    0.000000
    0.740427    0.000000    0.000000    0.000000    0.000000    0.000000    0.000000
    0.750855    0.000000    0.000000    0.000000    0.000000    0.000000    0.000000
    0.761284    0.000000    0.000000    0.000000    0.000000    0.000000    0.000000
    0.771713    0.000000    0.000000    0.000000    0.000000    0.000000    0.000000
    0.782141    0.000000    0.000000    0.000000    0.000000    0.000000    0.000000
    0.792570    0.000000    0.000000    0.000000    0.000000    0.000000    0.000000
    0.802998    0.000000    0.000000    0.000000    0.000000    0.000000    0.000000
    0.813427    0.000000    0.000000    0.000000    0.000000    0.000000    0.000000
    0.823855    0.000000    0.000000    0.000000    0.000000    0.000000    0.000000
    0.834284    0.000000    0.000000    0.000000    0.000000    0.000000    0.000000
    0.844712    0.000000    0.000000    0.000000    0.000000    0.000000    0.000000
    0.855141    0.000000    0.000000    0.000000    0.000000    0.000000    0.000000
    0.865570    0.000000    0.000000    0.000000    0.000000    0.000000    0.000000
    0.875998    0.000000    0.000000    0.000000    0.000000    0.000000    0.000000
    0.886427    0.000000    0.000000    0.000000    0.000000    0.000000    0.000000
    0.896855    0.000000    0.000000    0.000000    0.000000    0.000000    0.000000
    0.907284    0.000000    0.000000    0.000000    0.000000    0.000000    0.000000
    0.917712    0.000000    0.000000    0.000000    0.000000    0.000000    0.000000
    0.928141    0.000000    0.000000    0.000000    0.000000    0.000000    0.000000
    0.938569    0.000000    0.000000    0.000000    0.000000    0.000000    0.000000
    0.948998    0.000000    0.000000    0.000000    0.000000    0.000000    0.000000
    0.959426    0.000000    0.000000    0.000000    0.000000    0.000000    0.000000
    0.969855    0.000000    0.000000    0.000000    0.000000    0.000000    0.000000
    0.980284    0.000000    0.000000    0.000000    0.000000    0.000000    0.000000
    0.990712    0.000000    0.000000    0.000000    0.000000    0.000000    0.000000
    1.001141    0.000000    0.000000    0.000000    0.000000    0.000000    0.000000
    1.011569    0.000000    0.000000    0.000000    0.000000    0.000000    0.000000
    1.021998    0.000000    0.000000    0.000000    0.000000    0.000000    0.000000
    1.032426    0.000000    0.000000    0.000000    0.000000    0.000000    0.000000
    1.042855    0.000000    0.000000    0.000000    0.000000    0.000000    0.000000
    1.053283    0.000000    0.000000    0.000000    0.000000    0.000000    0.000000
    1.063712    0.000000    0.000000    0.000000    0.000000    0.000000    0.000000
    1.074140    0.000000    0.000000    0.000000    0.000000    0.000000    0.000000
    1.084569    0.000000    0.000000    0.000000    0.000000    0.000000    0.000000
    1.094998    0.000000    0.000000    0.000000    0.000000    0.000000    0.000000
    1.105426    0.000000    0.000000    0.000000    0.000000    0.000000    0.000000
    1.115855    0.000000    0.000000    0.000000    0.000000    0.000000    0.000000
    1.126283    0.000000    0.000000    0.000000    0.000000    0.000000    0.000000
    1.136712    0.000000    0.000000    0.000000    0.000000    0.000000    0.000000
    1.147140    0.000000    0.000000    0.000000    0.000000    0.000000    0.000000
    1.157569    0.000000    0.000000    0.000000    0.000000    0.000000    0.000000
    1.167997    0.000000    0.000000    0.000000    0.000000    0.000000    0.000000
    1.178426    0.000000    0.000000    0.000000    0.000000    0.000000    0.000000
    1.188855    0.000000    0.000000    0.000000    0.000000    0.000000    0.000000
    1.199283    0.000000    0.000000    0.000000    0.000000    0.000000    0.000000
    1.209712    0.000000    0.000000    0.000000    0.000000    0.000000    0.000000
    1.220140    0.000000    0.000000    0.000000    0.000000    0.000000    0.000000
    1.230569    0.000000    0.000000    0.000000    0.000000    0.000000    0.000000
    1.240997    0.000000    0.000000    0.000000    0.000000    0.000000    0.000000
    1.251426    0.000000    0.000000    0.000000    0.000000    0.000000    0.000000
    1.261854    0.000000    0.000000    0.000000    0.000000    0.000000    0.000000
    1.272283    0.000000    0.000000    0.000000    0.000000    0.000000    0.000000
    1.282711    0.000000    0.000000    0.000000    0.000000    0.000000    0.000000
    1.293140    0.000000    0.000000    0.000000    0.000000    0.000000    0.000000
    1.303569    0.000000    0.000000    0.000000    0.000000    0.000000    0.000000
    1.313997    0.000000    0.000000    0.000000    0.000000    0.000000    0.000000
    1.324426    0.000000    0.000000    0.000000    0.000000    0.000000    0.000000
    1.334854    0.000000    0.000000    0.000000    0.000000    0.000000    0.000000
    1.345283    0.000000    0.000000    0.000000    0.000000    0.000000    0.000000
    1.355711    0.000000    0.000000    0.000000    0.000000    0.000000    0.000000
    1.366140    0.000000    0.000000    0.000000    0.000000    0.000000    0.000000
    1.376568    0.000000    0.000000    0.000000    0.000000    0.000000    0.000000
    1.386997    0.000000    0.000000    0.000000    0.000000    0.000000    0.000000
    1.397425    0.000000    0.000000    0.000000    0.000000    0.000000    0.000000
    1.407854    0.000000    0.000000    0.000000    0.000000    0.000000    0.000000
    1.418283    0.000000    0.000000    0.000000    0.000000    0.000000    0.000000
    1.428711    0.000000    0.000000    0.000000    0.000000    0.000000    0.000000
    1.439140    0.000000    0.000000    0.000000    0.000000    0.000000    0.000000
    1.449568    0.000000    0.000000    0.000000    0.000000    0.000000    0.000000
    1.459997    0.000000    0.000000    0.000000    0.000000    0.000000    0.000000
    1.470425    0.000000    0.000000    0.000000    0.000000    0.000000    0.000000
    1.480854    0.000000    0.000000    0.000000    0.000000    0.000000    0.000000
    1.491282    0.000000    0.000000    0.000000    0.000000    0.000000    0.000000
    1.501711    0.000000    0.000000    0.000000    0.000000    0.000000    0.000000
    1.512140    0.000000    0.000000    0.000000    0.000000    0.000000    0.000000
    1.522568    0.000000    0.000000    0.000000    0.000000    0.000000    0.000000
    1.532997    0.000000    0.000000    0.000000    0.000000    0.000000    0.000000
[...]
   39.492913    0.999999    0.999999    0.999999   -0.000000    0.000000   -0.000000
   39.503341    0.999999    0.999999    0.999999    0.000000    0.000000    0.000000
   39.513770    1.000046    1.000046    1.000046    0.000000    0.000000    0.000000
   39.524198    0.999994    0.999994    0.999994    0.000000   -0.000000    0.000000
   39.534627    0.999973    0.999973    0.999973   -0.000000    0.000000   -0.000000
   39.545055    0.999970    0.999970    0.999970    0.000000    0.000000    0.000000
   39.555484    0.999999    0.999999    0.999999    0.000000    0.000000    0.000000
   39.565913    0.999999    0.999999    0.999999    0.000000    0.000000    0.000000
   39.576341    0.999999    0.999999    0.999999    0.000000    0.000000    0.000000
   39.586770    0.999999    0.999999    0.999999    0.000000    0.000000    0.000000
   39.597198    0.999999    0.999999    0.999999    0.000000    0.000000    0.000000
   39.607627    0.999990    0.999990    0.999990    0.000000    0.000000    0.000000
   39.618055    0.999998    0.999998    0.999998    0.000000    0.000000    0.000000
   39.628484    0.999997    0.999997    0.999997    0.000000    0.000000    0.000000
   39.638912    0.999999    0.999999    0.999999    0.000000    0.000000    0.000000
   39.649341    0.999999    0.999999    0.999999    0.000000    0.000000    0.000000
   39.659769    0.999999    0.999999    0.999999    0.000000    0.000000    0.000000
   39.670198    0.999999    0.999999    0.999999    0.000000    0.000000    0.000000
   39.680627    0.999999    0.999999    0.999999    0.000000    0.000000    0.000000
   39.691055    0.999999    0.999999    0.999999    0.000000    0.000000    0.000000
   39.701484    0.999958    0.999958    0.999958    0.000000    0.000000    0.000000
   39.711912    0.999999    0.999999    0.999999    0.000000    0.000000    0.000000
   39.722341    0.999999    0.999999    0.999999    0.000000    0.000000    0.000000
   39.732769    0.999999    0.999999    0.999999    0.000000    0.000000    0.000000
   39.743198    0.999999    0.999999    0.999999    0.000000    0.000000    0.000000
   39.753626    0.999999    0.999999    0.999999    0.000000    0.000000    0.000000
   39.764055    0.999999    0.999999    0.999999    0.000000    0.000000    0.000000
   39.774484    0.999999    0.999999    0.999999    0.000000    0.000000    0.000000
   39.784912    0.999999    0.999999    0.999999    0.000000    0.000000    0.000000
   39.795341    0.999999    0.999999    0.999999    0.000000    0.000000    0.000000
   39.805769    0.999999    0.999999    0.999999    0.000000    0.000000    0.000000
   39.816198    0.999999    0.999999    0.999999    0.000000    0.000000    0.000000
   39.826626    0.999999    0.999999    0.999999    0.000000    0.000000    0.000000
   39.837055    0.999999    0.999999    0.999999    0.000000    0.000000    0.000000
   39.847483    0.999999    0.999999    0.999999    0.000000    0.000000    0.000000
   39.857912    0.999999    0.999999    0.999999    0.000000    0.000000    0.000000
   39.868340    0.999999    0.999999    0.999999   -0.000000    0.000000   -0.000000
   39.878769    0.999999    0.999999    0.999999    0.000000    0.000000    0.000000
   39.889198    1.000013    1.000013    1.000013    0.000000    0.000000    0.000000
   39.899626    0.999992    0.999992    0.999992    0.000000   -0.000000   -0.000000
   39.910055    1.000026    1.000026    1.000026    0.000000    0.000000    0.000000
   39.920483    1.000026    1.000026    1.000026    0.000000    0.000000    0.000000
   39.930912    0.999999    0.999999    0.999999    0.000000    0.000000    0.000000
   39.941340    0.999999    0.999999    0.999999    0.000000    0.000000    0.000000
   39.951769    0.999999    0.999999    0.999999    0.000000    0.000000    0.000000
   39.962197    0.999999    0.999999    0.999999    0.000000    0.000000    0.000000
   39.972626    0.999999    0.999999    0.999999    0.000000    0.000000    0.000000
   39.983054    0.999992    0.999992    0.999992    0.000000    0.000000    0.000000
   39.993483    0.999998    0.999998    0.999998    0.000000    0.000000    0.000000
   40.003912    0.999992    0.999992    0.999992    0.000000    0.000000    0.000000
   40.014340    0.999999    0.999999    0.999999    0.000000    0.000000    0.000000
   40.024769    0.999999    0.999999    0.999999    0.000000    0.000000    0.000000
   40.035197    0.999999    0.999999    0.999999    0.000000    0.000000    0.000000
   40.045626    0.999999    0.999999    0.999999    0.000000    0.000000    0.000000
   40.056054    0.999999    0.999999    0.999999    0.000000    0.000000    0.000000
   40.066483    0.999999    0.999999    0.999999    0.000000    0.000000    0.000000
   40.076911    0.999939    0.999939    0.999939    0.000000    0.000000    0.000000
   40.087340    0.999999    0.999999    0.999999    0.000000    0.000000    0.000000
   40.097769    0.999999    0.999999    0.999999    0.000000    0.000000    0.000000
   40.108197    0.999999    0.999999    0.999999    0.000000    0.000000    0.000000
   40.118626    0.999999    0.999999    0.999999    0.000000    0.000000    0.000000
   40.129054    0.999999    0.999999    0.999999    0.000000    0.000000    0.000000
   40.139483    0.999999    0.999999    0.999999    0.000000    0.000000    0.000000
   40.149911    0.999999    0.999999    0.999999    0.000000    0.000000    0.000000
   40.160340    0.999999    0.999999    0.999999    0.000000    0.000000    0.000000
   40.170768    0.999999    0.999999    0.999999    0.000000    0.000000    0.000000
   40.181197    0.999999    0.999999    0.999999    0.000000    0.000000    0.000000
   40.191625    0.999999    0.999999    0.999999    0.000000    0.000000    0.000000
   40.202054    0.999999    0.999999    0.999999    0.000000    0.000000    0.000000
   40.212483    0.999999    0.999999    0.999999    0.000000    0.000000    0.000000
   40.222911    0.999999    0.999999    0.999999    0.000000    0.000000    0.000000
   40.233340    0.999999    0.999999    0.999999    0.000000    0.000000    0.000000
   40.243768    0.999999    0.999999    0.999999   -0.000000    0.000000   -0.000000
   40.254197    0.999999    0.999999    0.999999    0.000000    0.000000    0.000000
   40.264625    0.999984    0.999984    0.999984    0.000000    0.000000    0.000000
   40.275054    0.999981    0.999981    0.999981    0.000000    0.000000   -0.000000
   40.285482    1.000007    1.000007    1.000007   -0.000000    0.000000   -0.000000
   40.295911    1.000010    1.000010    1.000010    0.000000    0.000000    0.000000
   40.306339    0.999999    0.999999    0.999999    0.000000    0.000000    0.000000
   40.316768    0.999999    0.999999    0.999999    0.000000    0.000000    0.000000
   40.327197    0.999999    0.999999    0.999999    0.000000    0.000000    0.000000
   40.337625    0.999999    0.999999    0.999999    0.000000    0.000000    0.000000
   40.348054    0.999999    0.999999    0.999999    0.000000    0.000000    0.000000
   40.358482    0.999993    0.999993    0.999993    0.000000    0.000000    0.000000
   40.368911    0.999998    0.999998    0.999998    0.000000    0.000000    0.000000
   40.379339    1.000035    1.000035    1.000035    0.000000    0.000000    0.000000
   40.389768    0.999999    0.999999    0.999999    0.000000    0.000000    0.000000
   40.400196    0.999999    0.999999    0.999999    0.000000    0.000000    0.000000
   40.410625    0.999999    0.999999    0.999999    0.000000    0.000000    0.000000
   40.421054    0.999999    0.999999    0.999999    0.000000    0.000000    0.000000
   40.431482    0.999999    0.999999    0.999999    0.000000    0.000000    0.000000
   40.441911    0.999999    0.999999    0.999999    0.000000    0.000000    0.000000
   40.452339    0.999941    0.999941    0.999941    0.000000    0.000000    0.000000
   40.462768    0.999999    0.999999    0.999999    0.000000    0.000000    0.000000
   40.473196    0.999999    0.999999    0.999999    0.000000    0.000000    0.000000
   40.483625    0.999999    0.999999    0.999999    0.000000    0.000000    0.000000
   40.494053    0.999999    0.999999    0.999999    0.000000    0.000000    0.000000
   40.504482    0.999999    0.999999    0.999999    0.000000    0.000000    0.000000
   40.514910    0.999999    0.999999    0.999999    0.000000    0.000000    0.000000
   40.525339    0.999999    0.999999    0.999999    0.000000    0.000000    0.000000
   40.535768    0.999999    0.999999    0.999999    0.000000    0.000000    0.000000
   40.546196    0.999999    0.999999    0.999999    0.000000    0.000000    0.000000
   40.556625    0.999999    0.999999    0.999999    0.000000    0.000000    0.000000
   40.567053    0.999999    0.999999    0.999999    0.000000    0.000000    0.000000
   40.577482    0.999999    0.999999    0.999999    0.000000    0.000000    0.000000
   40.587910    0.999999    0.999999    0.999999    0.000000    0.000000    0.000000
   40.598339    0.999999    0.999999    0.999999    0.000000    0.000000    0.000000
   40.608767    0.999999    0.999999    0.999999    0.000000    0.000000    0.000000
   40.619196    0.999999    0.999999    0.999999   -0.000000    0.000000   -0.000000
   40.629624    0.999999    0.999999    0.999999    0.000000    0.000000    0.000000
   40.640053    0.999963    0.999963    0.999963    0.000000    0.000000    0.000000
   40.650482    0.999973    0.999973    0.999973   -0.000000    0.000000    0.000000
   40.660910    0.999998    0.999998    0.999998    0.000000   -0.000000    0.000000
   40.671339    1.000035    1.000035    1.000035    0.000000    0.000000    0.000000
   40.681767    0.999999    0.999999    0.999999    0.000000    0.000000    0.000000
   40.692196    0.999999    0.999999    0.999999    0.000000    0.000000    0.000000
   40.702624    0.999999    0.999999    0.999999    0.000000    0.000000    0.000000
   40.713053    0.999999    0.999999    0.999999    0.000000    0.000000    0.000000
   40.723481    0.999999    0.999999    0.999999    0.000000    0.000000    0.000000
   40.733910    0.999994    0.999994    0.999994    0.000000    0.000000    0.000000
   40.744339    0.999985    0.999985    0.999985    0.000000    0.000000    0.000000
   40.754767    0.999995    0.999995    0.999995    0.000000    0.000000    0.000000
   40.765196    0.999999    0.999999    0.999999    0.000000    0.000000    0.000000
   40.775624    0.999999    0.999999    0.999999    0.000000    0.000000    0.000000
   40.786053    0.999999    0.999999    0.999999    0.000000    0.000000    0.000000
   40.796481    0.999999    0.999999    0.999999    0.000000    0.000000    0.000000
   40.806910    0.999999    0.999999    0.999999    0.000000    0.000000    0.000000
   40.817338    0.999999    0.999999    0.999999    0.000000    0.000000    0.000000
   40.827767    0.999978    0.999978    0.999978    0.000000    0.000000    0.000000
   40.838195    0.999999    0.999999    0.999999    0.000000    0.000000    0.000000
   40.848624    0.999999    0.999999    0.999999    0.000000    0.000000    0.000000
   40.859053    0.999999    0.999999    0.999999    0.000000    0.000000    0.000000
   40.869481    0.999999    0.999999    0.999999    0.000000    0.000000    0.000000
   40.879910    0.999999    0.999999    0.999999    0.000000    0.000000    0.000000
   40.890338    0.999999    0.999999    0.999999    0.000000    0.000000    0.000000
   40.900767    0.999999    0.999999    0.999999    0.000000    0.000000    0.000000
   40.911195    0.999999    0.999999    0.999999    0.000000    0.000000    0.000000
   40.921624    0.999999    0.999999    0.999999    0.000000    0.000000    0.000000
   40.932052    0.999999    0.999999    0.999999    0.000000    0.000000    0.000000
   40.942481    0.999999    0.999999    0.999999    0.000000    0.000000    0.000000
   40.952909    0.999999    0.999999    0.999999    0.000000    0.000000    0.000000
   40.963338    0.999999    0.999999    0.999999    0.000000    0.000000    0.000000
   40.973767    0.999999    0.999999    0.999999    0.000000    0.000000    0.000000
   40.984195    0.999999    0.999999    0.999999    0.000000    0.000000    0.000000
   40.994624    0.999999    0.999999    0.999999   -0.000000    0.000000   -0.000000
   41.005052    0.999999    0.999999    0.999999    0.000000    0.000000    0.000000
   41.015481    0.999985    0.999985    0.999985    0.000000    0.000000    0.000000
   41.025909    1.000014    1.000014    1.000014    0.000000   -0.000000    0.000000
   41.036338    0.999939    0.999939    0.999939   -0.000000    0.000000    0.000000
   41.046766    1.000061    1.000061    1.000061    0.000000    0.000000    0.000000
   41.057195    0.999999    0.999999    0.999999    0.000000    0.000000    0.000000
   41.067624    0.999999    0.999999    0.999999    0.000000    0.000000    0.000000
   41.078052    0.999999    0.999999    0.999999    0.000000    0.000000    0.000000
   41.088481    0.999999    0.999999    0.999999    0.000000    0.000000    0.000000
   41.098909    0.999999    0.999999    0.999999    0.000000    0.000000    0.000000
   41.109338    0.999995    0.999995    0.999995    0.000000    0.000000    0.000000
   41.119766    0.999980    0.999980    0.999980    0.000000    0.000000    0.000000
   41.130195    1.000059    1.000059    1.000059    0.000000    0.000000    0.000000
   41.140623    0.999999    0.999999    0.999999    0.000000    0.000000    0.000000
   41.151052    0.999999    0.999999    0.999999    0.000000    0.000000    0.000000
   41.161480    0.999999    0.999999    0.999999    0.000000    0.000000    0.000000
   41.171909    0.999999    0.999999    0.999999    0.000000    0.000000    0.000000
   41.182338    0.999999    0.999999    0.999999    0.000000    0.000000    0.000000
   41.192766    0.999999    0.999999    0.999999    0.000000    0.000000    0.000000
   41.203195    0.999992    0.999992    0.999992    0.000000    0.000000    0.000000
   41.213623    0.999999    0.999999    0.999999    0.000000    0.000000    0.000000
   41.224052    0.999999    0.999999    0.999999    0.000000    0.000000    0.000000
   41.234480    0.999999    0.999999    0.999999    0.000000    0.000000    0.000000
   41.244909    0.999999    0.999999    0.999999    0.000000    0.000000    0.000000
   41.255337    0.999999    0.999999    0.999999    0.000000    0.000000    0.000000
   41.265766    0.999999    0.999999    0.999999    0.000000    0.000000    0.000000
   41.276194    0.999999    0.999999    0.999999    0.000000    0.000000    0.000000
   41.286623    0.999999    0.999999    0.999999    0.000000    0.000000    0.000000
   41.297052    0.999999    0.999999    0.999999    0.000000    0.000000    0.000000
   41.307480    0.999999    0.999999    0.999999    0.000000    0.000000    0.000000
   41.317909    0.999999    0.999999    0.999999    0.000000    0.000000    0.000000
   41.328337    0.999999    0.999999    0.999999    0.000000    0.000000    0.000000
   41.338766    0.999999    0.999999    0.999999    0.000000    0.000000    0.000000
   41.349194    0.999999    0.999999    0.999999    0.000000    0.000000    0.000000
   41.359623    0.999999    0.999999    0.999999    0.000000    0.000000    0.000000
   41.370051    0.999999    0.999999    0.999999   -0.000000    0.000000   -0.000000
   41.380480    0.999999    0.999999    0.999999    0.000000    0.000000    0.000000
   41.390909    0.999950    0.999950    0.999950    0.000000    0.000000    0.000000
   41.401337    1.000069    1.000069    1.000069   -0.000000    0.000000    0.000000
   41.411766    0.999948    0.999948    0.999948    0.000000    0.000000   -0.000000
   41.422194    1.000014    1.000014    1.000014    0.000000    0.000000    0.000000
   41.432623    0.999999    0.999999    0.999999    0.000000    0.000000    0.000000
   41.443051    0.999999    0.999999    0.999999    0.000000    0.000000    0.000000
   41.453480    0.999999    0.999999    0.999999    0.000000    0.000000    0.000000
   41.463908    0.999999    0.999999    0.999999    0.000000    0.000000    0.000000
   41.474337    0.999999    0.999999    0.999999    0.000000    0.000000    0.000000
   41.484765    0.999995    0.999995    0.999995    0.000000    0.000000    0.000000
   41.495194    1.000021    1.000021    1.000021    0.000000    0.000000    0.000000
   41.505623    1.000020    1.000020    1.000020    0.000000    0.000000    0.000000
   41.516051    0.999999    0.999999    0.999999    0.000000    0.000000    0.000000
   41.526480    0.999999    0.999999    0.999999    0.000000    0.000000    0.000000
   41.536908    0.999999    0.999999    0.999999    0.000000    0.000000    0.000000
   41.547337    0.999999    0.999999    0.999999    0.000000    0.000000    0.000000
   41.557765    0.999999    0.999999    0.999999    0.000000    0.000000    0.000000
   41.568194    0.999999    0.999999    0.999999    0.000000    0.000000    0.000000
   41.578622    0.999993    0.999993    0.999993    0.000000    0.000000    0.000000
   41.589051    0.999999    0.999999    0.999999    0.000000    0.000000    0.000000
   41.599479    0.999999    0.999999    0.999999    0.000000    0.000000    0.000000
   41.609908    0.999999    0.999999    0.999999    0.000000    0.000000    0.000000
   41.620337    0.999999    0.999999    0.999999    0.000000    0.000000    0.000000
   41.630765    0.999999    0.999999    0.999999    0.000000    0.000000    0.000000
   41.641194    0.999999    0.999999    0.999999    0.000000    0.000000    0.000000
   41.651622    0.999999    0.999999    0.999999    0.000000    0.000000    0.000000
   41.662051    0.999999    0.999999    0.999999    0.000000    0.000000    0.000000
   41.672479    0.999999    0.999999    0.999999    0.000000    0.000000    0.000000
   41.682908    0.999999    0.999999    0.999999    0.000000    0.000000    0.000000
   41.693336    0.999999    0.999999    0.999999    0.000000    0.000000    0.000000
   41.703765    1.000000    1.000000    1.000000    0.000000    0.000000    0.000000
   41.714194    0.999999    0.999999    0.999999    0.000000    0.000000    0.000000
   41.724622    0.999999    0.999999    0.999999    0.000000    0.000000    0.000000
 
 The outermost node in the dielectric function lies at epsilon=  17.2


--------------------------------------------------------------------------------------------------------


    OPTICS:  cpu time    0.2440: real time    0.2488
    4ORBIT:  cpu time    0.0000: real time    0.0000
 


 total charge     
 
# of ion       s       p       d       tot
------------------------------------------
    1        0.166   0.134   0.028   0.329
    2        1.427   2.532   0.008   3.967
--------------------------------------------------
tot          1.593   2.667   0.036   4.296
 
 BZINTS: Fermi energy:  0.570002;  8.000000 electrons
         Band energy: -25.951801;  BLOECHL correction:  0.000000

 total amount of memory used by VASP MPI-rank0    31358. kBytes
=======================================================================

   base      :      30000. kBytes
   nonl-proj :        671. kBytes
   fftplans  :        156. kBytes
   grid      :        407. kBytes
   one-center:         16. kBytes
   wavefun   :        108. kBytes
 
  
  
 General timing and accounting informations for this job:
 ========================================================
  
                  Total CPU time used (sec):        2.456
                            User time (sec):        2.152
                          System time (sec):        0.304
                         Elapsed time (sec):        2.607
  
                   Maximum memory used (kb):       57764.
                   Average memory used (kb):           0.
  
                          Minor page faults:         6746
                          Major page faults:           16
                 Voluntary context switches:         1525
