 vasp.5.4.4.18Apr17-6-g9f103f2a35 (build Apr 25 2017 10:54:42) gamma-only       
  
 executed on             LinuxIFC date 2020.11.18  19:30:46
 running on   32 total cores
 distrk:  each k-point on    8 cores,    4 groups
 distr:  one band on NCORES_PER_BAND=   1 cores,    8 groups


--------------------------------------------------------------------------------------------------------


 INCAR:
 POTCAR:    PAW_PBE Mg 13Apr2007                  
 POTCAR:    PAW_PBE Se 06Sep2000                  

 ----------------------------------------------------------------------------- 
|                                                                             |
|           W    W    AA    RRRRR   N    N  II  N    N   GGGG   !!!           |
|           W    W   A  A   R    R  NN   N  II  NN   N  G    G  !!!           |
|           W    W  A    A  R    R  N N  N  II  N N  N  G       !!!           |
|           W WW W  AAAAAA  RRRRR   N  N N  II  N  N N  G  GGG   !            |
|           WW  WW  A    A  R   R   N   NN  II  N   NN  G    G                |
|           W    W  A    A  R    R  N    N  II  N    N   GGGG   !!!           |
|                                                                             |
|      For optimal performance we recommend to set                            |
|        NCORE= 4 - approx SQRT( number of cores)                             |
|      NCORE specifies how many cores store one orbital (NPAR=cpu/NCORE).     |
|      This setting can  greatly improve the performance of VASP for DFT.     |
|      The default,   NCORE=1            might be grossly inefficient         |
|      on modern multi-core architectures or massively parallel machines.     |
|      Do your own testing !!!!                                               |
|      Unfortunately you need to use the default for GW and RPA calculations. |
|      (for HF NCORE is supported but not extensively tested yet)             |
|                                                                             |
 ----------------------------------------------------------------------------- 


 ----------------------------------------------------------------------------- 
|                                                                             |
|           W    W    AA    RRRRR   N    N  II  N    N   GGGG   !!!           |
|           W    W   A  A   R    R  NN   N  II  NN   N  G    G  !!!           |
|           W    W  A    A  R    R  N N  N  II  N N  N  G       !!!           |
|           W WW W  AAAAAA  RRRRR   N  N N  II  N  N N  G  GGG   !            |
|           WW  WW  A    A  R   R   N   NN  II  N   NN  G    G                |
|           W    W  A    A  R    R  N    N  II  N    N   GGGG   !!!           |
|                                                                             |
|      You have enabled k-point parallelism (KPAR>1).                         |
|      This developmental code was originally  written by Paul Kent at ORNL,  |
|      and carefully double checked in Vienna.                                |
|      GW as well as linear response parallelism added by Martijn Marsman     |
|      and Georg Kresse.                                                      |
|      Carefully verify results versus KPAR=1.                                |
|      Report problems to Paul Kent and Vienna.                               |
|                                                                             |
 ----------------------------------------------------------------------------- 

 POTCAR:    PAW_PBE Mg 13Apr2007                  
   VRHFIN =Mg: s2p0                                                             
   LEXCH  = PE                                                                  
   EATOM  =    23.0369 eV,    1.6932 Ry                                         
                                                                                
   TITEL  = PAW_PBE Mg 13Apr2007                                                
   LULTRA =        F    use ultrasoft PP ?                                      
   IUNSCR =        1    unscreen: 0-lin 1-nonlin 2-no                           
   RPACOR =    1.500    partial core radius                                     
   POMASS =   24.305; ZVAL   =    2.000    mass and valenz                      
   RCORE  =    2.000    outmost cutoff radius                                   
   RWIGS  =    2.880; RWIGS  =    1.524    wigner-seitz radius (au A)           
   ENMAX  =  200.000; ENMIN  =  100.000 eV                                      
   RCLOC  =    1.506    cutoff for local pot                                    
   LCOR   =        T    correct aug charges                                     
   LPAW   =        T    paw PP                                                  
   EAUG   =  454.734                                                            
   DEXC   =    0.000                                                            
   RMAX   =    2.045    core radius for proj-oper                               
   RAUG   =    1.300    factor for augmentation sphere                          
   RDEP   =    2.025    radius for radial grids                                 
   RDEPT  =    1.942    core radius for aug-charge                              
                                                                                
   Atomic configuration                                                         
    6 entries                                                                   
     n  l   j            E        occ.                                          
     1  0  0.50     -1259.6230   2.0000                                         
     2  0  0.50       -79.8442   2.0000                                         
     2  1  1.50       -46.6121   6.0000                                         
     3  0  0.50        -4.7055   2.0000                                         
     3  1  0.50        -1.3660   0.0000                                         
     3  2  1.50        -1.3606   0.0000                                         
   Description                                                                  
     l       E           TYP  RCUT    TYP  RCUT                                 
     0     -4.7054661     23  2.000                                             
     0     27.2116520     23  2.000                                             
     1      1.3605826     23  2.000                                             
     1     27.2116520     23  2.000                                             
     2     -1.3605826     23  2.000                                             
  local pseudopotential read in
  partial core-charges read in
  partial kinetic energy density read in
  atomic valenz-charges read in
  non local Contribution for L=           0  read in
    real space projection operators read in
  non local Contribution for L=           0  read in
    real space projection operators read in
  non local Contribution for L=           1  read in
    real space projection operators read in
  non local Contribution for L=           1  read in
    real space projection operators read in
  non local Contribution for L=           2  read in
    real space projection operators read in
    PAW grid and wavefunctions read in
 
   number of l-projection  operators is LMAX  =           5
   number of lm-projection operators is LMMAX =          13
 
 POTCAR:    PAW_PBE Se 06Sep2000                  
   VRHFIN =Se: s2p4                                                             
   LEXCH  = PE                                                                  
   EATOM  =   257.1286 eV,   18.8984 Ry                                         
                                                                                
   TITEL  = PAW_PBE Se 06Sep2000                                                
   LULTRA =        F    use ultrasoft PP ?                                      
   IUNSCR =        1    unscreen: 0-lin 1-nonlin 2-no                           
   RPACOR =    1.900    partial core radius                                     
   POMASS =   78.960; ZVAL   =    6.000    mass and valenz                      
   RCORE  =    2.100    outmost cutoff radius                                   
   RWIGS  =    2.200; RWIGS  =    1.164    wigner-seitz radius (au A)           
   ENMAX  =  211.555; ENMIN  =  158.666 eV                                      
   ICORE  =        3    local potential                                         
   LCOR   =        T    correct aug charges                                     
   LPAW   =        T    paw PP                                                  
   EAUG   =  446.842                                                            
   DEXC   =    0.000                                                            
   RMAX   =    2.147    core radius for proj-oper                               
   RAUG   =    1.300    factor for augmentation sphere                          
   RDEP   =    2.177    radius for radial grids                                 
   RDEPT  =    1.928    core radius for aug-charge                              
                                                                                
   Atomic configuration                                                         
   10 entries                                                                   
     n  l   j            E        occ.                                          
     1  0  0.50    -12503.4787   2.0000                                         
     2  0  0.50     -1606.9547   2.0000                                         
     2  1  1.50     -1413.3140   6.0000                                         
     3  0  0.50      -213.4885   2.0000                                         
     3  1  1.50      -152.9538   6.0000                                         
     3  2  2.50       -53.1221  10.0000                                         
     4  0  0.50       -17.2865   2.0000                                         
     4  1  0.50        -6.5110   4.0000                                         
     4  2  2.50        -6.8029   0.0000                                         
     4  3  2.50        -6.8029   0.0000                                         
   Description                                                                  
     l       E           TYP  RCUT    TYP  RCUT                                 
     0    -17.2865377     23  2.100                                             
     0    -15.3094411     23  2.100                                             
     1     -6.5110275     23  2.100                                             
     1     -0.0695192     23  2.100                                             
     2     -6.8029130     23  2.100                                             
     3     -1.3605826      7  2.100                                             
  local pseudopotential read in
  partial core-charges read in
  partial kinetic energy density read in
  atomic valenz-charges read in
  non local Contribution for L=           0  read in
    real space projection operators read in
  non local Contribution for L=           0  read in
    real space projection operators read in
  non local Contribution for L=           1  read in
    real space projection operators read in
  non local Contribution for L=           1  read in
    real space projection operators read in
  non local Contribution for L=           2  read in
    real space projection operators read in
    PAW grid and wavefunctions read in
 
   number of l-projection  operators is LMAX  =           5
   number of lm-projection operators is LMMAX =          13
 
  PAW_PBE Mg 13Apr2007                  :
 energy of atom  1       EATOM=  -23.0369
 kinetic energy error for atom=    0.0011 (will be added to EATOM!!)
  PAW_PBE Se 06Sep2000                  :
 energy of atom  2       EATOM= -257.1286
 kinetic energy error for atom=    0.0209 (will be added to EATOM!!)
 
 
 POSCAR: Mg1 Se1                                 
  positions in direct lattice
  No initial velocities read in
 exchange correlation table for  LEXCH =        8
   RHO(1)=    0.500       N(1)  =     2000
   RHO(2)=  100.500       N(2)  =     4000
 


--------------------------------------------------------------------------------------------------------


 ion  position               nearest neighbor table
   1  0.000  0.000  0.000-   2 2.59   2 2.59   2 2.59   2 2.59
   2  0.250  0.250  0.250-   1 2.59   1 2.59   1 2.59   1 2.59
 
  LATTYP: Found a face centered cubic cell.
 ALAT       =     5.9918104820
  
  Lattice vectors:
  
 A1 = (   0.0000000000,   2.9959052410,   2.9959052410)
 A2 = (   2.9959052410,   0.0000000000,   2.9959052410)
 A3 = (   2.9959052410,   2.9959052410,   0.0000000000)


Analysis of symmetry for initial positions (statically):
=====================================================================
 Subroutine PRICEL returns:
 Original cell was already a primitive cell.
 

 Routine SETGRP: Setting up the symmetry group for a 
 face centered cubic supercell.


 Subroutine GETGRP returns: Found 24 space group operations
 (whereof 24 operations were pure point group operations)
 out of a pool of 48 trial point group operations.


The static configuration has the point symmetry T_d .


Analysis of symmetry for dynamics (positions and initial velocities):
=====================================================================
 Subroutine PRICEL returns:
 Original cell was already a primitive cell.
 

 Routine SETGRP: Setting up the symmetry group for a 
 face centered cubic supercell.


 Subroutine GETGRP returns: Found 24 space group operations
 (whereof 24 operations were pure point group operations)
 out of a pool of 48 trial point group operations.


The dynamic configuration has the point symmetry T_d .


 Subroutine INISYM returns: Found 24 space group operations
 (whereof 24 operations are pure point group operations),
 and found     1 'primitive' translations

 
 
 KPOINTS:                                         

Automatic generation of k-mesh.
Space group operators:
 irot       det(A)        alpha          n_x          n_y          n_z        tau_x        tau_y        tau_z
    1     1.000000     0.000000     1.000000     0.000000     0.000000     0.000000     0.000000     0.000000
    2     1.000000   120.000000    -0.577350    -0.577350    -0.577350     0.000000     0.000000     0.000000
    3     1.000000   120.000000     0.577350     0.577350     0.577350     0.000000     0.000000     0.000000
    4    -1.000000    90.000000     0.000000     0.000000    -1.000000     0.000000     0.000000     0.000000
    5    -1.000000   180.000000     0.000000     0.707107     0.707107     0.000000     0.000000     0.000000
    6    -1.000000    90.000000     0.000000     1.000000     0.000000     0.000000     0.000000     0.000000
    7     1.000000   180.000000     0.000000     0.000000     1.000000     0.000000     0.000000     0.000000
    8     1.000000   120.000000    -0.577350     0.577350     0.577350     0.000000     0.000000     0.000000
    9     1.000000   120.000000    -0.577350     0.577350    -0.577350     0.000000     0.000000     0.000000
   10    -1.000000    90.000000     0.000000     0.000000     1.000000     0.000000     0.000000     0.000000
   11    -1.000000    90.000000    -1.000000     0.000000     0.000000     0.000000     0.000000     0.000000
   12    -1.000000   180.000000     0.707107     0.000000     0.707107     0.000000     0.000000     0.000000
   13     1.000000   120.000000     0.577350    -0.577350     0.577350     0.000000     0.000000     0.000000
   14     1.000000   120.000000    -0.577350    -0.577350     0.577350     0.000000     0.000000     0.000000
   15     1.000000   180.000000     1.000000     0.000000     0.000000     0.000000     0.000000     0.000000
   16    -1.000000    90.000000     0.000000    -1.000000     0.000000     0.000000     0.000000     0.000000
   17    -1.000000   180.000000     0.707107     0.707107     0.000000     0.000000     0.000000     0.000000
   18    -1.000000    90.000000     1.000000     0.000000     0.000000     0.000000     0.000000     0.000000
   19     1.000000   120.000000     0.577350    -0.577350    -0.577350     0.000000     0.000000     0.000000
   20     1.000000   180.000000     0.000000     1.000000     0.000000     0.000000     0.000000     0.000000
   21     1.000000   120.000000     0.577350     0.577350    -0.577350     0.000000     0.000000     0.000000
   22    -1.000000   180.000000     0.000000    -0.707107     0.707107     0.000000     0.000000     0.000000
   23    -1.000000   180.000000     0.707107    -0.707107     0.000000     0.000000     0.000000     0.000000
   24    -1.000000   180.000000     0.707107     0.000000    -0.707107     0.000000     0.000000     0.000000
 
 Subroutine IBZKPT returns following result:
 ===========================================
 
 Found      1 irreducible k-points:
 
 Following reciprocal coordinates:
            Coordinates               Weight
  0.000000  0.000000  0.000000      1.000000
 
 Following cartesian coordinates:
            Coordinates               Weight
  0.000000  0.000000  0.000000      1.000000
 

 ----------------------------------------------------------------------------- 
|                                                                             |
|           W    W    AA    RRRRR   N    N  II  N    N   GGGG   !!!           |
|           W    W   A  A   R    R  NN   N  II  NN   N  G    G  !!!           |
|           W    W  A    A  R    R  N N  N  II  N N  N  G       !!!           |
|           W WW W  AAAAAA  RRRRR   N  N N  II  N  N N  G  GGG   !            |
|           WW  WW  A    A  R   R   N   NN  II  N   NN  G    G                |
|           W    W  A    A  R    R  N    N  II  N    N   GGGG   !!!           |
|                                                                             |
|      The number of bands has been changed from the values supplied          |
|      in the INCAR file. This is a result of running the parallel version.   |
|      The orbitals not found in the WAVECAR file will be initialized with    |
|      random numbers, which is usually adequate. For correlated              |
|      calculations, however, you should redo the groundstate calculation.    |
|      I found NBANDS    =       12  now  NBANDS  =      16                   |
|                                                                             |
 ----------------------------------------------------------------------------- 



--------------------------------------------------------------------------------------------------------




 Dimension of arrays:
   k-points           NKPTS =      1   k-points in BZ     NKDIM =      1   number of bands    NBANDS=     16
   number of dos      NEDOS =    402   number of ions     NIONS =      2
   non local maximal  LDIM  =      5   non local SUM 2l+1 LMDIM =     13
   total plane-waves  NPLWV =   4096
   max r-space proj   IRMAX =      1   max aug-charges    IRDMAX=   3521
   dimension x,y,z NGX =    16 NGY =   16 NGZ =   16
   dimension x,y,z NGXF=    32 NGYF=   32 NGZF=   32
   support grid    NGXF=    32 NGYF=   32 NGZF=   32
   ions per type =               1   1
   NGX,Y,Z   is equivalent  to a cutoff of   6.28,  6.28,  6.28 a.u.
   NGXF,Y,Z  is equivalent  to a cutoff of  12.56, 12.56, 12.56 a.u.

 SYSTEM =  unknown system                          
 POSCAR =  Mg1 Se1                                 

 Startparameter for this run:
   NWRITE =      2    write-flag & timer
   PREC   = normal    normal or accurate (medium, high low for compatibility)
   ISTART =      0    job   : 0-new  1-cont  2-samecut
   ICHARG =      2    charge: 1-file 2-atom 10-const
   ISPIN  =      1    spin polarized calculation?
   LNONCOLLINEAR =      F non collinear calculations
   LSORBIT =      F    spin-orbit coupling
   INIWAV =      1    electr: 0-lowe 1-rand  2-diag
   LASPH  =      T    aspherical Exc in radial PAW
   METAGGA=      F    non-selfconsistent MetaGGA calc.

 Electronic Relaxation 1
   ENCUT  =  211.6 eV  15.55 Ry    3.94 a.u.   5.02  5.02  5.02*2*pi/ulx,y,z
   ENINI  =  211.6     initial cutoff
   ENAUG  =  454.7 eV  augmentation charge cutoff
   NELM   =    100;   NELMIN=  2; NELMDL=  0     # of ELM steps 
   EDIFF  = 0.1E-04   stopping-criterion for ELM
   LREAL  =      F    real-space projection
   NLSPLINE    = F    spline interpolate recip. space projectors
   LCOMPAT=      F    compatible to vasp.4.4
   GGA_COMPAT  = T    GGA compatible to vasp.4.4-vasp.4.6
   LMAXPAW     = -100 max onsite density
   LMAXMIX     =    2 max onsite mixed and CHGCAR
   VOSKOWN=      0    Vosko Wilk Nusair interpolation
   ROPT   =    0.00000   0.00000
 Ionic relaxation
   EDIFFG = 0.1E-03   stopping-criterion for IOM
   NSW    =      1    number of steps for IOM
   NBLOCK =      1;   KBLOCK =      1    inner block; outer block 
   IBRION =      2    ionic relax: 0-MD 1-quasi-New 2-CG
   NFREE  =      1    steps in history (QN), initial steepest desc. (CG)
   ISIF   =      0    stress and relaxation
   IWAVPR =     11    prediction:  0-non 1-charg 2-wave 3-comb
   ISYM   =      2    0-nonsym 1-usesym 2-fastsym
   LCORR  =      T    Harris-Foulkes like correction to forces

   POTIM  = 0.5000    time-step for ionic-motion
   TEIN   =    0.0    initial temperature
   TEBEG  =    0.0;   TEEND  =   0.0 temperature during run
   SMASS  =  -3.00    Nose mass-parameter (am)
   estimated Nose-frequenzy (Omega)   =  0.10E-29 period in steps =****** mass=  -0.410E-27a.u.
   SCALEE = 1.0000    scale energy and forces
   NPACO  =    256;   APACO  = 16.0  distance and # of slots for P.C.
   PSTRESS=    0.0 pullay stress

  Mass of Ions in am
   POMASS =  24.30 78.96
  Ionic Valenz
   ZVAL   =   2.00  6.00
  Atomic Wigner-Seitz radii
   RWIGS  =  -1.00 -1.00
  virtual crystal weights 
   VCA    =   1.00  1.00
   NELECT =       8.0000    total number of electrons
   NUPDOWN=      -1.0000    fix difference up-down

 DOS related values:
   EMIN   = -10.05;   EMAX   = 10.00  energy-range for DOS
   EFERMI =   0.00
   ISMEAR =     1;   SIGMA  =   0.10  broadening in eV -4-tet -1-fermi 0-gaus

 Electronic relaxation 2 (details)
   IALGO  =     38    algorithm
   LDIAG  =      T    sub-space diagonalisation (order eigenvalues)
   LSUBROT=      F    optimize rotation matrix (better conditioning)
   TURBO    =      0    0=normal 1=particle mesh
   IRESTART =      0    0=no restart 2=restart with 2 vectors
   NREBOOT  =      0    no. of reboots
   NMIN     =      0    reboot dimension
   EREF     =   0.00    reference energy to select bands
   IMIX   =      4    mixing-type and parameters
     AMIX     =   0.40;   BMIX     =  1.00
     AMIX_MAG =   1.60;   BMIX_MAG =  1.00
     AMIN     =   0.10
     WC   =   100.;   INIMIX=   1;  MIXPRE=   1;  MAXMIX= -45

 Intra band minimization:
   WEIMIN = 0.0010     energy-eigenvalue tresh-hold
   EBREAK =  0.16E-06  absolut break condition
   DEPER  =   0.30     relativ break condition  

   TIME   =   0.40     timestep for ELM

  volume/ion in A,a.u.               =      26.89       181.46
  Fermi-wavevector in a.u.,A,eV,Ry     =   0.867428  1.639201 10.237449  0.752431
  Thomas-Fermi vector in A             =   1.985960
 
 Write flags
   LWAVE        =      F    write WAVECAR
   LDOWNSAMPLE  =      F    k-point downsampling of WAVECAR
   LCHARG       =      F    write CHGCAR
   LVTOT        =      F    write LOCPOT, total local potential
   LVHAR        =      F    write LOCPOT, Hartree potential only
   LELF         =      F    write electronic localiz. function (ELF)
   LORBIT       =     10    0 simple, 1 ext, 2 COOP (PROOUT), +10 PAW based schemes


 Dipole corrections
   LMONO  =      F    monopole corrections only (constant potential shift)
   LDIPOL =      F    correct potential (dipole corrections)
   IDIPOL =      0    1-x, 2-y, 3-z, 4-all directions 
   EPSILON=  1.0000000 bulk dielectric constant

 Exchange correlation treatment:
   GGA     =    --    GGA type
   LEXCH   =     8    internal setting for exchange type
   VOSKOWN=      0    Vosko Wilk Nusair interpolation
   LHFCALC =     F    Hartree Fock is set to
   LHFONE  =     F    Hartree Fock one center treatment
   AEXX    =    0.0000 exact exchange contribution

 Linear response parameters
   LEPSILON=     F    determine dielectric tensor
   LRPA    =     F    only Hartree local field effects (RPA)
   LNABLA  =     F    use nabla operator in PAW spheres
   LVEL    =     F    velocity operator in full k-point grid
   LINTERFAST=   F  fast interpolation
   KINTER  =     0    interpolate to denser k-point grid
   CSHIFT  =0.0100    complex shift for real part using Kramers Kronig
   OMEGAMAX=  -1.0    maximum frequency
   DEG_THRESHOLD= 0.2000000E-02 threshold for treating states as degnerate
   RTIME   =   -0.100 relaxation time in fs
  (WPLASMAI=    0.000 imaginary part of plasma frequency in eV, 0.658/RTIME)
   DFIELD  = 0.0000000 0.0000000 0.0000000 field for delta impulse in time
 
 Orbital magnetization related:
   ORBITALMAG=     F  switch on orbital magnetization
   LCHIMAG   =     F  perturbation theory with respect to B field
   DQ        =  0.001000  dq finite difference perturbation B field
   LLRAUG    =     F  two centre corrections for induced B field



--------------------------------------------------------------------------------------------------------


 conjugate gradient relaxation of ions
 charge density and potential will be updated during run
 non-spin polarized calculation
 Variant of blocked Davidson
 Davidson routine will perform the subspace rotation
 perform sub-space diagonalisation
    after iterative eigenvector-optimisation
 modified Broyden-mixing scheme, WC =      100.0
 initial mixing is a Kerker type mixing with AMIX =  0.4000 and BMIX =      1.0000
 Hartree-type preconditioning will be used
 using additional bands           12
 reciprocal scheme for non local part
 use partial core corrections
 calculate Harris-corrections to forces 
   (improved forces if not selfconsistent)
 use gradient corrections 
 use of overlap-Matrix (Vanderbilt PP)
 Methfessel and Paxton  Order N= 1 SIGMA  =   0.10


--------------------------------------------------------------------------------------------------------


  energy-cutoff  :      211.56
  volume of cell :       53.78
      direct lattice vectors                 reciprocal lattice vectors
     0.000000000  2.995905241  2.995905241    -0.166894464  0.166894464  0.166894464
     2.995905241  0.000000000  2.995905241     0.166894464 -0.166894464  0.166894464
     2.995905241  2.995905241  0.000000000     0.166894464  0.166894464 -0.166894464

  length of vectors
     4.236849823  4.236849823  4.236849823     0.289069692  0.289069692  0.289069692


 
 k-points in units of 2pi/SCALE and weight:                                         
   0.00000000  0.00000000  0.00000000       1.000
 
 k-points in reciprocal lattice and weights:                                         
   0.00000000  0.00000000  0.00000000       1.000
 
 position of ions in fractional coordinates (direct lattice) 
   0.00000000  0.00000000  0.00000000
   0.25000000  0.25000000  0.25000000
 
 position of ions in cartesian coordinates  (Angst):
   0.00000000  0.00000000  0.00000000
   1.49795262  1.49795262  1.49795262
 


--------------------------------------------------------------------------------------------------------


 use serial FFT for orbitals x direction half grid
 k-point  1 :   0.0000 0.0000 0.0000  plane waves:     170

 maximum and minimum number of plane-waves per node :       170      170

 maximum number of plane-waves:       170
 maximum index in each direction: 
   IXMAX=    4   IYMAX=    4   IZMAX=    4
   IXMIN=    0   IYMIN=   -3   IZMIN=   -3


 serial   3D FFT for wavefunctions
 parallel 3D FFT for charge:
    minimum data exchange during FFTs selected (reduces bandwidth)


 total amount of memory used by VASP MPI-rank0    30623. kBytes
=======================================================================

   base      :      30000. kBytes
   nonl-proj :         42. kBytes
   fftplans  :        160. kBytes
   grid      :        407. kBytes
   one-center:          8. kBytes
   wavefun   :          6. kBytes
 
     INWAV:  cpu time    0.0000: real time    0.0000
 Broyden mixing: mesh for mixing (old mesh)
   NGX =  9   NGY =  9   NGZ =  9
  (NGX  = 32   NGY  = 32   NGZ  = 32)
  gives a total of    729 points

 initial charge density was supplied:
 charge density of overlapping atoms calculated
 number of electron       8.0000000 magnetization 
 keeping initial charge density in first step


--------------------------------------------------------------------------------------------------------


 Maximum index for augmentation-charges          409 (set IRDMAX)


--------------------------------------------------------------------------------------------------------


 First call to EWALD:  gamma=   0.470
 Maximum number of real-space cells 3x 3x 3
 Maximum number of reciprocal cells 3x 3x 3

    FEWALD:  cpu time    0.0010: real time    0.0010


--------------------------------------- Iteration      1(   1)  ---------------------------------------


    POTLOK:  cpu time    0.0041: real time    0.0067
    SETDIJ:  cpu time    0.1249: real time    0.1249
     EDDAV:  cpu time    0.0064: real time    0.0470
       DOS:  cpu time    0.0005: real time    0.0005
    --------------------------------------------
      LOOP:  cpu time    0.1359: real time    0.1791

 eigenvalue-minimisations  :    32
 total energy-change (2. order) : 0.2477942E+02  (-0.2353483E+03)
 number of electron       8.0000000 magnetization 
 augmentation part        8.0000000 magnetization 

 Free energy of the ion-electron system (eV)
  ---------------------------------------------------
  alpha Z        PSCENC =        11.99312492
  Ewald energy   TEWEN  =      -243.49789834
  -Hartree energ DENC   =       -39.56755417
  -exchange      EXHF   =         0.00000000
  -V(xc)+E(xc)   XCENC  =       -49.69251818
  PAW double counting   =       275.60715645     -209.97061880
  entropy T*S    EENTRO =         0.00579791
  eigenvalues    EBANDS =        -0.24150972
  atomic energy  EATOM  =       280.14344169
  Solvation  Ediel_sol  =         0.00000000
  ---------------------------------------------------
  free energy    TOTEN  =        24.77942175 eV

  energy without entropy =       24.77362384  energy(sigma->0) =       24.77748911


--------------------------------------------------------------------------------------------------------




--------------------------------------- Iteration      1(   2)  ---------------------------------------


     EDDAV:  cpu time    0.0040: real time    0.0049
       DOS:  cpu time    0.0003: real time    0.0003
    --------------------------------------------
      LOOP:  cpu time    0.0043: real time    0.0052

 eigenvalue-minimisations  :    48
 total energy-change (2. order) :-0.2473297E+02  (-0.2336784E+02)
 number of electron       8.0000000 magnetization 
 augmentation part        8.0000000 magnetization 

 Free energy of the ion-electron system (eV)
  ---------------------------------------------------
  alpha Z        PSCENC =        11.99312492
  Ewald energy   TEWEN  =      -243.49789834
  -Hartree energ DENC   =       -39.56755417
  -exchange      EXHF   =         0.00000000
  -V(xc)+E(xc)   XCENC  =       -49.69251818
  PAW double counting   =       275.60715645     -209.97061880
  entropy T*S    EENTRO =         0.01273138
  eigenvalues    EBANDS =       -24.98141212
  atomic energy  EATOM  =       280.14344169
  Solvation  Ediel_sol  =         0.00000000
  ---------------------------------------------------
  free energy    TOTEN  =         0.04645283 eV

  energy without entropy =        0.03372144  energy(sigma->0) =        0.04220903


--------------------------------------------------------------------------------------------------------




--------------------------------------- Iteration      1(   3)  ---------------------------------------


     EDDAV:  cpu time    0.0025: real time    0.0025
       DOS:  cpu time    0.0003: real time    0.0003
    --------------------------------------------
      LOOP:  cpu time    0.0028: real time    0.0028

 eigenvalue-minimisations  :    32
 total energy-change (2. order) :-0.1425958E+01  (-0.1428409E+01)
 number of electron       8.0000000 magnetization 
 augmentation part        8.0000000 magnetization 

 Free energy of the ion-electron system (eV)
  ---------------------------------------------------
  alpha Z        PSCENC =        11.99312492
  Ewald energy   TEWEN  =      -243.49789834
  -Hartree energ DENC   =       -39.56755417
  -exchange      EXHF   =         0.00000000
  -V(xc)+E(xc)   XCENC  =       -49.69251818
  PAW double counting   =       275.60715645     -209.97061880
  entropy T*S    EENTRO =         0.01739432
  eigenvalues    EBANDS =       -26.41203345
  atomic energy  EATOM  =       280.14344169
  Solvation  Ediel_sol  =         0.00000000
  ---------------------------------------------------
  free energy    TOTEN  =        -1.37950557 eV

  energy without entropy =       -1.39689989  energy(sigma->0) =       -1.38530368


--------------------------------------------------------------------------------------------------------




--------------------------------------- Iteration      1(   4)  ---------------------------------------


     EDDAV:  cpu time    0.0034: real time    0.0034
       DOS:  cpu time    0.0002: real time    0.0002
    --------------------------------------------
      LOOP:  cpu time    0.0036: real time    0.0036

 eigenvalue-minimisations  :    48
 total energy-change (2. order) :-0.3875757E-02  (-0.3875278E-02)
 number of electron       8.0000000 magnetization 
 augmentation part        8.0000000 magnetization 

 Free energy of the ion-electron system (eV)
  ---------------------------------------------------
  alpha Z        PSCENC =        11.99312492
  Ewald energy   TEWEN  =      -243.49789834
  -Hartree energ DENC   =       -39.56755417
  -exchange      EXHF   =         0.00000000
  -V(xc)+E(xc)   XCENC  =       -49.69251818
  PAW double counting   =       275.60715645     -209.97061880
  entropy T*S    EENTRO =         0.01739373
  eigenvalues    EBANDS =       -26.41590862
  atomic energy  EATOM  =       280.14344169
  Solvation  Ediel_sol  =         0.00000000
  ---------------------------------------------------
  free energy    TOTEN  =        -1.38338133 eV

  energy without entropy =       -1.40077506  energy(sigma->0) =       -1.38917924


--------------------------------------------------------------------------------------------------------




--------------------------------------- Iteration      1(   5)  ---------------------------------------


     EDDAV:  cpu time    0.0030: real time    0.0030
       DOS:  cpu time    0.0003: real time    0.0003
    CHARGE:  cpu time    0.0016: real time    0.0016
    MIXING:  cpu time    0.0006: real time    0.0006
    --------------------------------------------
      LOOP:  cpu time    0.0054: real time    0.0054

 eigenvalue-minimisations  :    48
 total energy-change (2. order) :-0.1024793E-04  (-0.1024789E-04)
 number of electron       7.9999995 magnetization 
 augmentation part       -1.2194079 magnetization 

 Broyden mixing:
  rms(total) = 0.57451E+00    rms(broyden)= 0.57363E+00
  rms(prec ) = 0.20519E+01
  weight for this iteration     100.00

 Free energy of the ion-electron system (eV)
  ---------------------------------------------------
  alpha Z        PSCENC =        11.99312492
  Ewald energy   TEWEN  =      -243.49789834
  -Hartree energ DENC   =       -39.56755417
  -exchange      EXHF   =         0.00000000
  -V(xc)+E(xc)   XCENC  =       -49.69251818
  PAW double counting   =       275.60715645     -209.97061880
  entropy T*S    EENTRO =         0.01739373
  eigenvalues    EBANDS =       -26.41591886
  atomic energy  EATOM  =       280.14344169
  Solvation  Ediel_sol  =         0.00000000
  ---------------------------------------------------
  free energy    TOTEN  =        -1.38339158 eV

  energy without entropy =       -1.40078530  energy(sigma->0) =       -1.38918948


--------------------------------------------------------------------------------------------------------




--------------------------------------- Iteration      1(   6)  ---------------------------------------


    POTLOK:  cpu time    0.0026: real time    0.0026
    SETDIJ:  cpu time    0.1243: real time    0.1243
     EDDAV:  cpu time    0.0022: real time    0.0022
       DOS:  cpu time    0.0003: real time    0.0003
    CHARGE:  cpu time    0.0014: real time    0.0014
    MIXING:  cpu time    0.0002: real time    0.0002
    --------------------------------------------
      LOOP:  cpu time    0.1311: real time    0.1311

 eigenvalue-minimisations  :    32
 total energy-change (2. order) : 0.1696943E+01  (-0.2522291E+00)
 number of electron       7.9999995 magnetization 
 augmentation part       -1.1092967 magnetization 

 Broyden mixing:
  rms(total) = 0.38066E+00    rms(broyden)= 0.38062E+00
  rms(prec ) = 0.10234E+01
  weight for this iteration     100.00

 eigenvalues of (default mixing * dielectric matrix)
  average eigenvalue GAMMA=   1.3547
  1.3547

 Free energy of the ion-electron system (eV)
  ---------------------------------------------------
  alpha Z        PSCENC =        11.99312492
  Ewald energy   TEWEN  =      -243.49789834
  -Hartree energ DENC   =       -48.95374275
  -exchange      EXHF   =         0.00000000
  -V(xc)+E(xc)   XCENC  =       -48.88357814
  PAW double counting   =       366.67171347     -301.31874353
  entropy T*S    EENTRO =         0.01739536
  eigenvalues    EBANDS =       -15.85816143
  atomic energy  EATOM  =       280.14344169
  Solvation  Ediel_sol  =         0.00000000
  ---------------------------------------------------
  free energy    TOTEN  =         0.31355124 eV

  energy without entropy =        0.29615588  energy(sigma->0) =        0.30775279


--------------------------------------------------------------------------------------------------------




--------------------------------------- Iteration      1(   7)  ---------------------------------------


    POTLOK:  cpu time    0.0024: real time    0.0024
    SETDIJ:  cpu time    0.1244: real time    0.1247
     EDDAV:  cpu time    0.0022: real time    0.0022
       DOS:  cpu time    0.0003: real time    0.0003
    CHARGE:  cpu time    0.0013: real time    0.0013
    MIXING:  cpu time    0.0002: real time    0.0002
    --------------------------------------------
      LOOP:  cpu time    0.1309: real time    0.1312

 eigenvalue-minimisations  :    32
 total energy-change (2. order) : 0.1792591E+00  (-0.1527678E+00)
 number of electron       7.9999996 magnetization 
 augmentation part       -1.0233006 magnetization 

 Broyden mixing:
  rms(total) = 0.24448E+00    rms(broyden)= 0.24430E+00
  rms(prec ) = 0.37009E+00
  weight for this iteration     100.00

 eigenvalues of (default mixing * dielectric matrix)
  average eigenvalue GAMMA=   2.2589
  1.8613  2.6565

 Free energy of the ion-electron system (eV)
  ---------------------------------------------------
  alpha Z        PSCENC =        11.99312492
  Ewald energy   TEWEN  =      -243.49789834
  -Hartree energ DENC   =       -57.17797288
  -exchange      EXHF   =         0.00000000
  -V(xc)+E(xc)   XCENC  =       -47.95121311
  PAW double counting   =       535.50349867     -470.39300071
  entropy T*S    EENTRO =         0.01739437
  eigenvalues    EBANDS =        -8.14456422
  atomic energy  EATOM  =       280.14344169
  Solvation  Ediel_sol  =         0.00000000
  ---------------------------------------------------
  free energy    TOTEN  =         0.49281038 eV

  energy without entropy =        0.47541601  energy(sigma->0) =        0.48701226


--------------------------------------------------------------------------------------------------------




--------------------------------------- Iteration      1(   8)  ---------------------------------------


    POTLOK:  cpu time    0.0025: real time    0.0028
    SETDIJ:  cpu time    0.1237: real time    0.1237
     EDDAV:  cpu time    0.0024: real time    0.0024
       DOS:  cpu time    0.0003: real time    0.0003
    CHARGE:  cpu time    0.0016: real time    0.0016
    MIXING:  cpu time    0.0002: real time    0.0002
    --------------------------------------------
      LOOP:  cpu time    0.1307: real time    0.1310

 eigenvalue-minimisations  :    32
 total energy-change (2. order) :-0.6039352E-01  (-0.6547852E-02)
 number of electron       7.9999996 magnetization 
 augmentation part       -1.0335634 magnetization 

 Broyden mixing:
  rms(total) = 0.39508E-01    rms(broyden)= 0.39505E-01
  rms(prec ) = 0.75025E-01
  weight for this iteration     100.00

 eigenvalues of (default mixing * dielectric matrix)
  average eigenvalue GAMMA=   1.7630
  1.0431  1.6327  2.6132

 Free energy of the ion-electron system (eV)
  ---------------------------------------------------
  alpha Z        PSCENC =        11.99312492
  Ewald energy   TEWEN  =      -243.49789834
  -Hartree energ DENC   =       -57.70075471
  -exchange      EXHF   =         0.00000000
  -V(xc)+E(xc)   XCENC  =       -47.49543968
  PAW double counting   =       697.49899363     -632.36301076
  entropy T*S    EENTRO =         0.01739372
  eigenvalues    EBANDS =        -8.16343360
  atomic energy  EATOM  =       280.14344169
  Solvation  Ediel_sol  =         0.00000000
  ---------------------------------------------------
  free energy    TOTEN  =         0.43241686 eV

  energy without entropy =        0.41502314  energy(sigma->0) =        0.42661895


--------------------------------------------------------------------------------------------------------




--------------------------------------- Iteration      1(   9)  ---------------------------------------


    POTLOK:  cpu time    0.0027: real time    0.0029
    SETDIJ:  cpu time    0.1238: real time    0.1239
     EDDAV:  cpu time    0.0031: real time    0.0031
       DOS:  cpu time    0.0003: real time    0.0003
    CHARGE:  cpu time    0.0013: real time    0.0013
    MIXING:  cpu time    0.0003: real time    0.0003
    --------------------------------------------
      LOOP:  cpu time    0.1315: real time    0.1318

 eigenvalue-minimisations  :    48
 total energy-change (2. order) : 0.2015706E-02  (-0.6804062E-03)
 number of electron       7.9999996 magnetization 
 augmentation part       -1.0291497 magnetization 

 Broyden mixing:
  rms(total) = 0.18711E-01    rms(broyden)= 0.18703E-01
  rms(prec ) = 0.23776E-01
  weight for this iteration     100.00

 eigenvalues of (default mixing * dielectric matrix)
  average eigenvalue GAMMA=   1.6891
  2.3069  1.9476  1.2509  1.2509

 Free energy of the ion-electron system (eV)
  ---------------------------------------------------
  alpha Z        PSCENC =        11.99312492
  Ewald energy   TEWEN  =      -243.49789834
  -Hartree energ DENC   =       -58.20626666
  -exchange      EXHF   =         0.00000000
  -V(xc)+E(xc)   XCENC  =       -47.45741075
  PAW double counting   =       689.52464183     -624.40294628
  entropy T*S    EENTRO =         0.01739372
  eigenvalues    EBANDS =        -7.67964755
  atomic energy  EATOM  =       280.14344169
  Solvation  Ediel_sol  =         0.00000000
  ---------------------------------------------------
  free energy    TOTEN  =         0.43443256 eV

  energy without entropy =        0.41703885  energy(sigma->0) =        0.42863466


--------------------------------------------------------------------------------------------------------




--------------------------------------- Iteration      1(  10)  ---------------------------------------


    POTLOK:  cpu time    0.0024: real time    0.0024
    SETDIJ:  cpu time    0.1261: real time    0.1265
     EDDAV:  cpu time    0.0021: real time    0.0021
       DOS:  cpu time    0.0003: real time    0.0002
    CHARGE:  cpu time    0.0013: real time    0.0013
    MIXING:  cpu time    0.0003: real time    0.0003
    --------------------------------------------
      LOOP:  cpu time    0.1324: real time    0.1329

 eigenvalue-minimisations  :    32
 total energy-change (2. order) :-0.3083482E-03  (-0.2494898E-04)
 number of electron       7.9999996 magnetization 
 augmentation part       -1.0285035 magnetization 

 Broyden mixing:
  rms(total) = 0.61576E-02    rms(broyden)= 0.61552E-02
  rms(prec ) = 0.10855E-01
  weight for this iteration     100.00

 eigenvalues of (default mixing * dielectric matrix)
  average eigenvalue GAMMA=   1.7817
  2.8080  2.5616  1.5906  0.9740  0.9740

 Free energy of the ion-electron system (eV)
  ---------------------------------------------------
  alpha Z        PSCENC =        11.99312492
  Ewald energy   TEWEN  =      -243.49789834
  -Hartree energ DENC   =       -58.23039615
  -exchange      EXHF   =         0.00000000
  -V(xc)+E(xc)   XCENC  =       -47.46495380
  PAW double counting   =       675.06485100     -609.94141429
  entropy T*S    EENTRO =         0.01739372
  eigenvalues    EBANDS =        -7.65002453
  atomic energy  EATOM  =       280.14344169
  Solvation  Ediel_sol  =         0.00000000
  ---------------------------------------------------
  free energy    TOTEN  =         0.43412422 eV

  energy without entropy =        0.41673050  energy(sigma->0) =        0.42832631


--------------------------------------------------------------------------------------------------------




--------------------------------------- Iteration      1(  11)  ---------------------------------------


    POTLOK:  cpu time    0.0024: real time    0.0024
    SETDIJ:  cpu time    0.1230: real time    0.1230
     EDDAV:  cpu time    0.0021: real time    0.0021
       DOS:  cpu time    0.0002: real time    0.0002
    CHARGE:  cpu time    0.0013: real time    0.0013
    MIXING:  cpu time    0.0003: real time    0.0003
    --------------------------------------------
      LOOP:  cpu time    0.1294: real time    0.1294

 eigenvalue-minimisations  :    32
 total energy-change (2. order) :-0.7161604E-04  (-0.9595082E-05)
 number of electron       7.9999996 magnetization 
 augmentation part       -1.0281606 magnetization 

 Broyden mixing:
  rms(total) = 0.84367E-03    rms(broyden)= 0.84212E-03
  rms(prec ) = 0.16063E-02
  weight for this iteration     100.00

 eigenvalues of (default mixing * dielectric matrix)
  average eigenvalue GAMMA=   1.7242
  2.8667  2.5963  1.5232  1.3813  0.9350  1.0424

 Free energy of the ion-electron system (eV)
  ---------------------------------------------------
  alpha Z        PSCENC =        11.99312492
  Ewald energy   TEWEN  =      -243.49789834
  -Hartree energ DENC   =       -58.30633106
  -exchange      EXHF   =         0.00000000
  -V(xc)+E(xc)   XCENC  =       -47.44806687
  PAW double counting   =       671.45199190     -606.32748076
  entropy T*S    EENTRO =         0.01739372
  eigenvalues    EBANDS =        -7.59212259
  atomic energy  EATOM  =       280.14344169
  Solvation  Ediel_sol  =         0.00000000
  ---------------------------------------------------
  free energy    TOTEN  =         0.43405260 eV

  energy without entropy =        0.41665888  energy(sigma->0) =        0.42825469


--------------------------------------------------------------------------------------------------------




--------------------------------------- Iteration      1(  12)  ---------------------------------------


    POTLOK:  cpu time    0.0024: real time    0.0024
    SETDIJ:  cpu time    0.1221: real time    0.1221
     EDDAV:  cpu time    0.0030: real time    0.0030
       DOS:  cpu time    0.0002: real time    0.0002
    --------------------------------------------
      LOOP:  cpu time    0.1278: real time    0.1278

 eigenvalue-minimisations  :    48
 total energy-change (2. order) : 0.1305851E-06  (-0.4597028E-06)
 number of electron       7.9999996 magnetization 
 augmentation part       -1.0281606 magnetization 

 Free energy of the ion-electron system (eV)
  ---------------------------------------------------
  alpha Z        PSCENC =        11.99312492
  Ewald energy   TEWEN  =      -243.49789834
  -Hartree energ DENC   =       -58.29579034
  -exchange      EXHF   =         0.00000000
  -V(xc)+E(xc)   XCENC  =       -47.44890148
  PAW double counting   =       671.86949937     -606.74479499
  entropy T*S    EENTRO =         0.01739372
  eigenvalues    EBANDS =        -7.60202181
  atomic energy  EATOM  =       280.14344169
  Solvation  Ediel_sol  =         0.00000000
  ---------------------------------------------------
  free energy    TOTEN  =         0.43405273 eV

  energy without entropy =        0.41665901  energy(sigma->0) =        0.42825482


--------------------------------------------------------------------------------------------------------




 average (electrostatic) potential at core
  the test charge radii are     1.0714  1.0808
  (the norm of the test charge is              1.0000)
       1 -41.0196       2 -52.8736
 
 
 
 E-fermi :   1.9555     XC(G=0):  -7.5548     alpha+bet : -7.1720


 k-point     1 :       0.0000    0.0000    0.0000
  band No.  band energies     occupation 
      1      -9.4149      2.00000
      2       1.8713      2.00010
      3       1.8713      1.99995
      4       1.8713      1.99995
      5       3.8682     -0.00000
      6       8.1308      0.00000
      7       8.1309      0.00000
      8       8.1309      0.00000
      9      11.4270      0.00000
     10      11.4270      0.00000
     11      12.2000      0.00000
     12      13.4025      0.00000
     13      13.4025      0.00000
     14      13.4025      0.00000
     15      16.2595      0.00000
     16      24.4278      0.00000


--------------------------------------------------------------------------------------------------------


 soft charge-density along one line, spin component           1
         0         1         2         3         4         5         6         7         8         9
 total charge-density along one line
 
 pseudopotential strength for first ion, spin component:           1
  2.984   9.598  -0.000  -0.000  -0.000  -0.000  -0.000  -0.000
  9.598  30.669  -0.000  -0.000  -0.000  -0.000  -0.000  -0.000
 -0.000  -0.000   6.861  -0.000  -0.000  10.253  -0.000  -0.000
 -0.000  -0.000  -0.000   6.861  -0.000  -0.000  10.253  -0.000
 -0.000  -0.000  -0.000  -0.000   6.861  -0.000  -0.000  10.253
 -0.000  -0.000  10.253  -0.000  -0.000  14.410  -0.000  -0.000
 -0.000  -0.000  -0.000  10.253  -0.000  -0.000  14.410  -0.000
 -0.000  -0.000  -0.000  -0.000  10.253  -0.000  -0.000  14.410
 -0.000  -0.000  -0.000  -0.004  -0.000  -0.000  -0.003  -0.000
 -0.000  -0.000  -0.000  -0.000  -0.004  -0.000  -0.000  -0.003
 -0.000  -0.000  -0.000   0.000  -0.000  -0.000   0.000  -0.000
 -0.000  -0.000  -0.004  -0.000  -0.000  -0.003  -0.000  -0.000
  0.000   0.000  -0.000  -0.000   0.000  -0.000  -0.000   0.000
 total augmentation occupancy for first ion, spin component:           1
  0.408  -0.023  -0.000  -0.000  -0.000   0.000   0.000   0.000  -0.000   0.000  -0.000  -0.000   0.000
 -0.023   0.001   0.000  -0.000   0.000  -0.000   0.000   0.000  -0.000   0.000   0.000   0.000   0.000
 -0.000   0.000   0.043   0.000   0.000  -0.003   0.000   0.000   0.000   0.000   0.000   0.051   0.000
 -0.000  -0.000   0.000   0.043   0.000   0.000  -0.003   0.000   0.051   0.000  -0.000   0.000   0.000
 -0.000   0.000   0.000   0.000   0.043   0.000   0.000  -0.003   0.000   0.051  -0.000   0.000   0.000
  0.000  -0.000  -0.003   0.000   0.000   0.000   0.000   0.000  -0.000   0.000   0.000  -0.003  -0.000
  0.000   0.000   0.000  -0.003   0.000   0.000   0.000   0.000  -0.003   0.000  -0.000   0.000   0.000
  0.000   0.000   0.000   0.000  -0.003   0.000   0.000   0.000  -0.000  -0.003   0.000   0.000  -0.000
  0.000   0.000   0.000   0.051   0.000  -0.000  -0.003  -0.000   0.059   0.000  -0.000   0.000   0.000
 -0.000   0.000   0.000   0.000   0.051   0.000   0.000  -0.003   0.000   0.059  -0.000  -0.000   0.000
 -0.000   0.000  -0.000  -0.000   0.000   0.000  -0.000   0.000  -0.000   0.000   0.000  -0.000   0.000
  0.000   0.000   0.051   0.000   0.000  -0.003   0.000   0.000   0.000  -0.000   0.000   0.059   0.000
  0.000   0.000  -0.000   0.000   0.000  -0.000   0.000  -0.000   0.000   0.000   0.000   0.000   0.000


------------------------ aborting loop because EDIFF is reached ----------------------------------------


 


 total charge     
 
# of ion       s       p       d       tot
------------------------------------------
    1        0.056   0.072   0.097   0.225
    2        1.197   3.116   0.006   4.320
--------------------------------------------------
tot          1.253   3.188   0.104   4.545
 
    CHARGE:  cpu time    0.0018: real time    0.0018
    FORLOC:  cpu time    0.0002: real time    0.0002
    FORNL :  cpu time    0.0014: real time    0.0014
    FORCOR:  cpu time    0.1255: real time    0.1257
    FORHAR:  cpu time    0.0006: real time    0.0006
    MIXING:  cpu time    0.0003: real time    0.0003
    OFIELD:  cpu time    0.0000: real time    0.0000

 VOLUME and BASIS-vectors are now :
 -----------------------------------------------------------------------------
  energy-cutoff  :      211.56
  volume of cell :       53.78
      direct lattice vectors                 reciprocal lattice vectors
     0.000000000  2.995905241  2.995905241    -0.166894464  0.166894464  0.166894464
     2.995905241  0.000000000  2.995905241     0.166894464 -0.166894464  0.166894464
     2.995905241  2.995905241  0.000000000     0.166894464  0.166894464 -0.166894464

  length of vectors
     4.236849823  4.236849823  4.236849823     0.289069692  0.289069692  0.289069692


 FORCES acting on ions
    electron-ion (+dipol)            ewald-force                    non-local-force                 convergence-correction
 -----------------------------------------------------------------------------------------------
   -.317E-04 -.317E-04 -.308E-04   -.165E-15 -.128E-14 0.123E-14   0.180E-20 0.953E-21 0.212E-21   0.176E-06 0.176E-06 0.176E-06
   -.323E-05 -.323E-05 -.388E-05   0.143E-16 0.140E-14 -.129E-14   -.254E-20 -.508E-20 0.169E-19   0.111E-06 0.111E-06 0.111E-06
 -----------------------------------------------------------------------------------------------
   -.349E-04 -.349E-04 -.347E-04   -.151E-15 0.116E-15 -.665E-16   -.741E-21 -.413E-20 0.172E-19   0.287E-06 0.287E-06 0.287E-06
 
 
 POSITION                                       TOTAL-FORCE (eV/Angst)
 -----------------------------------------------------------------------------------
      0.00000      0.00000      0.00000        -0.000000     -0.000000     -0.000000
      1.49795      1.49795      1.49795         0.000000      0.000000      0.000000
 -----------------------------------------------------------------------------------
    total drift:                               -0.000035     -0.000035     -0.000034


--------------------------------------------------------------------------------------------------------



  FREE ENERGIE OF THE ION-ELECTRON SYSTEM (eV)
  ---------------------------------------------------
  free  energy   TOTEN  =         0.43405273 eV

  energy  without entropy=        0.41665901  energy(sigma->0) =        0.42825482
 


--------------------------------------------------------------------------------------------------------


    POTLOK:  cpu time    0.1261: real time    0.1264


--------------------------------------------------------------------------------------------------------




--------------------------------------------------------------------------------------------------------


  
 reached required accuracy - stopping structural energy minimisation
     LOOP+:  cpu time    1.3241: real time    1.3741


--------------------------------------------------------------------------------------------------------



 plasma frequency squared (from intraband transitions) (eV^2)
  --------------------------------------------------------------------------------------
       0.000       0.000       0.000
       0.000       0.000       0.000
       0.000       0.000       0.000

 electrical conductivity sigma (Mega S m-1) (frequency dependency in vasprun.xml)
  --------------------------------------------------------------------------------------
       0.000       0.000       0.000
       0.000       0.000       0.000
       0.000       0.000       0.000

 plasma frequency squared (from interband transitions, int dw w eps(2)(w)) (eV^2)
  --------------------------------------------------------------------------------------
     576.133       0.000       0.000       0.000       0.000       0.000
       0.000       0.000     576.133       0.000       0.000       0.000
       0.000       0.000       0.000       0.000     576.133       0.000
  --------------------------------------------------------------------------------------
 sumrule: sum of plasma frequencies squared should yield (valence only):     205.116

 Anomalous Hall contribution (eV) 2/pi Imag((f_n-f_m)<u_m| d/dk_a u_n> <u_m| d/dk_b u_n>^*) 
  --------------------------------------------------------------------------------------
       0.000       0.000       0.000
       0.000       0.000       0.000
       0.000       0.000       0.000

  frequency dependent IMAGINARY DIELECTRIC FUNCTION (independent particle, no local field effects) density-density
     E(ev)      X         Y         Z        XY        YZ        ZX
  --------------------------------------------------------------------------------------------------------------
    0.000000   -0.000000   -0.000000   -0.000000    0.000000   -0.000000    0.000000
    0.406518   -0.000000   -0.000000   -0.000000   -0.000000   -0.000000    0.000000
    0.813036    0.000000    0.000000    0.000000    0.000000    0.000000    0.000000
    1.219554   -0.000000   -0.000000   -0.000000   -0.000000   -0.000000    0.000000
    1.626073   -0.023630   -0.023630   -0.023630   -0.000000   -0.000000    0.000000
    2.032591 1621.694946 1621.694946 1621.694946    0.000000    0.000000    0.000000
    2.439109   -0.000121   -0.000121   -0.000121    0.000000   -0.000000    0.000000
    2.845627    0.000000    0.000000    0.000000    0.000000    0.000000    0.000000
    3.252145    0.000000    0.000000    0.000000    0.000000    0.000000    0.000000
    3.658663    0.000000    0.000000    0.000000    0.000000    0.000000    0.000000
    4.065181    0.000000    0.000000    0.000000    0.000000    0.000000    0.000000
    4.471700    0.000000    0.000000    0.000000    0.000000    0.000000    0.000000
    4.878218    0.000000    0.000000    0.000000    0.000000    0.000000    0.000000
    5.284736    0.000000    0.000000    0.000000    0.000000    0.000000    0.000000
    5.691254   -0.000000   -0.000000   -0.000000    0.000000   -0.000000    0.000000
    6.097772  -20.756813  -20.756813  -20.756813   -0.000000   -0.000000    0.000000
    6.504290   -3.288767   -3.288767   -3.288767   -0.000000    0.000000    0.000000
    6.910809    0.000000    0.000000    0.000000    0.000000    0.000000    0.000000
    7.317327    0.000000    0.000000    0.000000    0.000000    0.000000    0.000000
    7.723845    0.000000    0.000000    0.000000    0.000000    0.000000    0.000000
    8.130363    0.000000    0.000000    0.000000    0.000000    0.000000    0.000000
    8.536881    0.000000    0.000000    0.000000    0.000000    0.000000    0.000000
    8.943399   -0.000000   -0.000000   -0.000000   -0.000000   -0.000000   -0.000000
    9.349917   -2.534162   -2.534162   -2.534162    0.000000    0.000000    0.000000
    9.756436   -2.860210   -2.860210   -2.860210   -0.000000    0.000000    0.000000
   10.162954   -0.000281   -0.000281   -0.000281    0.000000    0.000000    0.000000
   10.569472   -0.000052   -0.000052   -0.000052   -0.000000    0.000000    0.000000
   10.975990    0.000000    0.000000    0.000000   -0.000000   -0.000000    0.000000
   11.382508   -0.445046   -0.445046   -0.445046    0.000000    0.000000    0.000000
   11.789026   -0.046934   -0.046934   -0.046934   -0.000000   -0.000000    0.000000
   12.195544    0.000000    0.000000    0.000000    0.000000    0.000000    0.000000
   12.602063   -0.000000   -0.000000   -0.000000    0.000000    0.000000   -0.000000
   13.008581   -0.000000   -0.000000   -0.000000    0.000000   -0.000000   -0.000000
   13.415099   -0.000000   -0.000000   -0.000000   -0.000000   -0.000000    0.000000
   13.821617   -0.000000   -0.000000   -0.000000   -0.000000    0.000000   -0.000000
   14.228135   -0.056168   -0.056168   -0.056168   -0.000000    0.000000   -0.000000
   14.634653   -0.008354   -0.008354   -0.008354   -0.000000   -0.000000    0.000000
   15.041172    0.000000    0.000000    0.000000    0.000000    0.000000    0.000000
   15.447690    0.000000    0.000000    0.000000    0.000000    0.000000    0.000000
   15.854208    0.000000    0.000000    0.000000    0.000000    0.000000    0.000000
   16.260726    0.000000    0.000000    0.000000    0.000000    0.000000    0.000000
   16.667244    0.000000    0.000000    0.000000    0.000000    0.000000    0.000000
   17.073762   -0.000000   -0.000000   -0.000000    0.000000    0.000000   -0.000000
   17.480280    0.118624    0.118624    0.118624   -0.000000   -0.000000   -0.000000
   17.886799   -0.000019   -0.000019   -0.000019    0.000000    0.000000    0.000000
   18.293317    0.000000    0.000000    0.000000    0.000000    0.000000    0.000000
   18.699835    0.000000    0.000000    0.000000    0.000000    0.000000    0.000000
   19.106353    0.000000    0.000000    0.000000    0.000000    0.000000    0.000000
   19.512871    0.000000    0.000000    0.000000    0.000000    0.000000    0.000000
   19.919389    0.000000    0.000000    0.000000    0.000000    0.000000    0.000000
   20.325907   -0.000000   -0.000000   -0.000000   -0.000000    0.000000   -0.000000
   20.732426    0.000000    0.000000    0.000000    0.000000    0.000000   -0.000000
   21.138944   -0.000000   -0.000000   -0.000000    0.000000    0.000000    0.000000
   21.545462    0.000000    0.000000    0.000000    0.000000    0.000000    0.000000
   21.951980   -0.000000   -0.000000   -0.000000   -0.000000    0.000000   -0.000000
   22.358498   -0.008449   -0.008449   -0.008449    0.000000    0.000000   -0.000000
   22.765016    0.004657    0.004657    0.004657    0.000000    0.000000   -0.000000
   23.171535   -0.000001   -0.000001   -0.000001   -0.000000    0.000000   -0.000000
   23.578053    0.000000    0.000000    0.000000    0.000000    0.000000    0.000000
   23.984571    0.000000    0.000000    0.000000    0.000000    0.000000    0.000000
   24.391089    0.000000    0.000000    0.000000    0.000000    0.000000    0.000000
   24.797607    0.000000    0.000000    0.000000    0.000000    0.000000    0.000000
   25.204125   -0.000000   -0.000000   -0.000000    0.000000    0.000000    0.000000
   25.610643    0.000000    0.000000    0.000000    0.000000    0.000000   -0.000000
   26.017162   -0.000000   -0.000000   -0.000000   -0.000000    0.000000    0.000000
   26.423680    0.000000    0.000000    0.000000    0.000000    0.000000    0.000000
   26.830198    0.000000    0.000000    0.000000    0.000000    0.000000    0.000000
   27.236716    0.000000    0.000000    0.000000    0.000000    0.000000    0.000000
   27.643234    0.000000    0.000000    0.000000    0.000000    0.000000    0.000000
   28.049752    0.000000    0.000000    0.000000    0.000000    0.000000    0.000000
   28.456270    0.000000    0.000000    0.000000    0.000000    0.000000    0.000000
   28.862789    0.000000    0.000000    0.000000    0.000000    0.000000    0.000000
   29.269307    0.000000    0.000000    0.000000    0.000000    0.000000    0.000000
   29.675825    0.000000    0.000000    0.000000    0.000000    0.000000    0.000000
   30.082343    0.000000    0.000000    0.000000    0.000000    0.000000    0.000000
   30.488861    0.000000    0.000000    0.000000    0.000000    0.000000    0.000000
   30.895379    0.000000    0.000000    0.000000    0.000000    0.000000    0.000000
   31.301898    0.000000    0.000000    0.000000    0.000000    0.000000    0.000000
   31.708416    0.000000    0.000000    0.000000    0.000000    0.000000    0.000000
   32.114934    0.000000    0.000000    0.000000    0.000000    0.000000    0.000000
   32.521452    0.000000    0.000000    0.000000    0.000000    0.000000    0.000000
   32.927970    0.000000    0.000000    0.000000    0.000000    0.000000    0.000000
   33.334488   -0.000000   -0.000000   -0.000000    0.000000    0.000000   -0.000000
   33.741006    0.002901    0.002901    0.002901    0.000000    0.000000   -0.000000
   34.147525   -0.000013   -0.000013   -0.000013   -0.000000    0.000000    0.000000
   34.554043    0.000000    0.000000    0.000000    0.000000    0.000000    0.000000
   34.960561    0.000000    0.000000    0.000000    0.000000    0.000000    0.000000
   35.367079    0.000000    0.000000    0.000000    0.000000    0.000000    0.000000
   35.773597    0.000000    0.000000    0.000000    0.000000    0.000000    0.000000
   36.180115    0.000000    0.000000    0.000000    0.000000    0.000000    0.000000
   36.586633    0.000000    0.000000    0.000000    0.000000    0.000000    0.000000
   36.993152    0.000000    0.000000    0.000000    0.000000    0.000000    0.000000
   37.399670    0.000000    0.000000    0.000000    0.000000    0.000000    0.000000
   37.806188    0.000000    0.000000    0.000000    0.000000    0.000000    0.000000
   38.212706    0.000000    0.000000    0.000000    0.000000    0.000000    0.000000
   38.619224    0.000000    0.000000    0.000000    0.000000    0.000000    0.000000
   39.025742    0.000000    0.000000    0.000000    0.000000    0.000000    0.000000
   39.432261    0.000000    0.000000    0.000000    0.000000    0.000000    0.000000
   39.838779    0.000000    0.000000    0.000000    0.000000    0.000000    0.000000
   40.245297    0.000000    0.000000    0.000000    0.000000    0.000000    0.000000

  frequency dependent      REAL DIELECTRIC FUNCTION (independent particle, no local field effects) density-density
     E(ev)        X           Y           Z          XY          YZ          ZX
  --------------------------------------------------------------------------------------------------------------
    0.000000   83.683319   83.683319   83.683319    0.000000    0.000000    0.000000
    0.406518   87.034149   87.034149   87.034149    0.000000    0.000000    0.000000
    0.813036   99.071411   99.071411   99.071411    0.000000    0.000000    0.000000
    1.219554  129.673447  129.673447  129.673447    0.000000    0.000000    0.000000
    1.626073  234.311829  234.311829  234.311829    0.000000    0.000000    0.000000
    2.032591 -628.902710 -628.902710 -628.902710    0.000000    0.000000    0.000000
    2.439109 -148.461243 -148.461243 -148.461243   -0.000000   -0.000000   -0.000000
    2.845627  -66.655411  -66.655411  -66.655411   -0.000000   -0.000000   -0.000000
    3.252145  -38.001362  -38.001362  -38.001362   -0.000000   -0.000000   -0.000000
    3.658663  -23.313471  -23.313471  -23.313471   -0.000000   -0.000000   -0.000000
    4.065181  -14.067329  -14.067329  -14.067329   -0.000000   -0.000000   -0.000000
    4.471700   -7.186673   -7.186673   -7.186673   -0.000000   -0.000000   -0.000000
    4.878218   -0.989670   -0.989670   -0.989670   -0.000000   -0.000000   -0.000000
    5.284736    6.313269    6.313269    6.313269   -0.000000   -0.000000   -0.000000
    5.691254   19.550787   19.550787   19.550787   -0.000000   -0.000000   -0.000000
    6.097772  107.524399  107.524399  107.524399    0.000000   -0.000000   -0.000000
    6.504290  -65.471947  -65.471947  -65.471947   -0.000000    0.000000   -0.000000
    6.910809  -26.628628  -26.628628  -26.628628   -0.000000    0.000000   -0.000000
    7.317327  -16.598679  -16.598679  -16.598679   -0.000000   -0.000000   -0.000000
    7.723845  -11.589445  -11.589445  -11.589445   -0.000000   -0.000000   -0.000000
    8.130363   -8.225082   -8.225082   -8.225082   -0.000000   -0.000000   -0.000000
    8.536881   -5.311159   -5.311159   -5.311159   -0.000000   -0.000000   -0.000000
    8.943399   -1.589394   -1.589394   -1.589394   -0.000000   -0.000000   -0.000000
    9.349917   11.485695   11.485695   11.485695   -0.000000   -0.000000   -0.000000
    9.756436  -23.799265  -23.799265  -23.799265   -0.000000   -0.000000    0.000000
   10.162954  -10.421253  -10.421253  -10.421253   -0.000000   -0.000000   -0.000000
   10.569472   -7.393435   -7.393435   -7.393435   -0.000000   -0.000000   -0.000000
   10.975990   -5.624516   -5.624516   -5.624516   -0.000000   -0.000000   -0.000000
   11.382508   -2.248841   -2.248841   -2.248841   -0.000000    0.000000   -0.000000
   11.789026   -5.936579   -5.936579   -5.936579   -0.000000   -0.000000   -0.000000
   12.195544   -4.546543   -4.546543   -4.546543   -0.000000   -0.000000   -0.000000
   12.602063   -3.875642   -3.875642   -3.875642   -0.000000   -0.000000   -0.000000
   13.008581   -3.389585   -3.389585   -3.389585   -0.000000   -0.000000   -0.000000
   13.415099   -2.993737   -2.993737   -2.993737   -0.000000   -0.000000   -0.000000
   13.821617   -2.642378   -2.642378   -2.642378   -0.000000    0.000000   -0.000000
   14.228135   -2.127877   -2.127877   -2.127877   -0.000000   -0.000000   -0.000000
   14.634653   -2.363177   -2.363177   -2.363177   -0.000000    0.000000   -0.000000
   15.041172   -2.049472   -2.049472   -2.049472   -0.000000    0.000000   -0.000000
   15.447690   -1.835339   -1.835339   -1.835339   -0.000000    0.000000   -0.000000
   15.854208   -1.653641   -1.653641   -1.653641   -0.000000    0.000000   -0.000000
   16.260726   -1.492392   -1.492392   -1.492392   -0.000000    0.000000   -0.000000
   16.667244   -1.345814   -1.345814   -1.345814   -0.000000    0.000000   -0.000000
   17.073762   -1.206823   -1.206823   -1.206823   -0.000000    0.000000   -0.000000
   17.480280   -0.991154   -0.991154   -0.991154   -0.000000    0.000000   -0.000000
   17.886799   -1.028028   -1.028028   -1.028028   -0.000000    0.000000   -0.000000
   18.293317   -0.913465   -0.913465   -0.913465   -0.000000    0.000000   -0.000000
   18.699835   -0.816990   -0.816990   -0.816990   -0.000000    0.000000   -0.000000
   19.106353   -0.729650   -0.729650   -0.729650    0.000000    0.000000   -0.000000
   19.512871   -0.649253   -0.649253   -0.649253    0.000000    0.000000   -0.000000
   19.919389   -0.574687   -0.574687   -0.574687    0.000000    0.000000   -0.000000
   20.325907   -0.505159   -0.505159   -0.505159    0.000000    0.000000   -0.000000
   20.732426   -0.439982   -0.439982   -0.439982    0.000000    0.000000   -0.000000
   21.138944   -0.378424   -0.378424   -0.378424    0.000000    0.000000   -0.000000
   21.545462   -0.319388   -0.319388   -0.319388    0.000000    0.000000   -0.000000
   21.951980   -0.259962   -0.259962   -0.259962    0.000000    0.000000    0.000000
   22.358498   -0.173701   -0.173701   -0.173701    0.000000    0.000000    0.000000
   22.765016   -0.221773   -0.221773   -0.221773   -0.000000   -0.000000    0.000000
   23.171535   -0.155031   -0.155031   -0.155031   -0.000000   -0.000000   -0.000000
   23.578053   -0.106261   -0.106261   -0.106261   -0.000000   -0.000000   -0.000000
   23.984571   -0.064089   -0.064089   -0.064089   -0.000000   -0.000000   -0.000000
   24.391089   -0.025404   -0.025404   -0.025404   -0.000000   -0.000000   -0.000000
   24.797607    0.010709    0.010709    0.010709   -0.000000   -0.000000   -0.000000
   25.204125    0.044676    0.044676    0.044676   -0.000000   -0.000000   -0.000000
   25.610643    0.076757    0.076757    0.076757   -0.000000   -0.000000   -0.000000
   26.017162    0.107137    0.107137    0.107137   -0.000000   -0.000000   -0.000000
   26.423680    0.135961    0.135961    0.135961   -0.000000   -0.000000   -0.000000
   26.830198    0.163352    0.163352    0.163352   -0.000000   -0.000000   -0.000000
   27.236716    0.189414    0.189414    0.189414   -0.000000   -0.000000   -0.000000
   27.643234    0.214240    0.214240    0.214240   -0.000000   -0.000000   -0.000000
   28.049752    0.237913    0.237913    0.237913   -0.000000   -0.000000   -0.000000
   28.456270    0.260508    0.260508    0.260508   -0.000000   -0.000000   -0.000000
   28.862789    0.282092    0.282092    0.282092   -0.000000   -0.000000   -0.000000
   29.269307    0.302729    0.302729    0.302729   -0.000000   -0.000000   -0.000000
   29.675825    0.322476    0.322476    0.322476   -0.000000   -0.000000   -0.000000
   30.082343    0.341386    0.341386    0.341386   -0.000000   -0.000000   -0.000000
   30.488861    0.359510    0.359510    0.359510   -0.000000   -0.000000   -0.000000
   30.895379    0.376894    0.376894    0.376894   -0.000000   -0.000000   -0.000000
   31.301898    0.393584    0.393584    0.393584   -0.000000   -0.000000   -0.000000
   31.708416    0.409625    0.409625    0.409625   -0.000000   -0.000000   -0.000000
   32.114934    0.425066    0.425066    0.425066   -0.000000   -0.000000   -0.000000
   32.521452    0.439970    0.439970    0.439970   -0.000000   -0.000000    0.000000
   32.927970    0.454448    0.454448    0.454448   -0.000000   -0.000000    0.000000
   33.334488    0.468866    0.468866    0.468866   -0.000000   -0.000000    0.000000
   33.741006    0.491147    0.491147    0.491147    0.000000   -0.000000    0.000000
   34.147525    0.490019    0.490019    0.490019   -0.000000   -0.000000   -0.000000
   34.554043    0.503824    0.503824    0.503824   -0.000000   -0.000000   -0.000000
   34.960561    0.516025    0.516025    0.516025   -0.000000   -0.000000   -0.000000
   35.367079    0.527566    0.527566    0.527566   -0.000000   -0.000000   -0.000000
   35.773597    0.538620    0.538620    0.538620   -0.000000   -0.000000   -0.000000
   36.180115    0.549252    0.549252    0.549252   -0.000000   -0.000000   -0.000000
   36.586633    0.559499    0.559499    0.559499   -0.000000   -0.000000   -0.000000
   36.993152    0.569386    0.569386    0.569386   -0.000000   -0.000000   -0.000000
   37.399670    0.578934    0.578934    0.578934   -0.000000   -0.000000   -0.000000
   37.806188    0.588161    0.588161    0.588161   -0.000000   -0.000000   -0.000000
   38.212706    0.597082    0.597082    0.597082   -0.000000   -0.000000   -0.000000
   38.619224    0.605711    0.605711    0.605711   -0.000000   -0.000000   -0.000000
   39.025742    0.614062    0.614062    0.614062   -0.000000   -0.000000   -0.000000
   39.432261    0.622148    0.622148    0.622148   -0.000000   -0.000000   -0.000000
   39.838779    0.629979    0.629979    0.629979   -0.000000   -0.000000   -0.000000
   40.245297    0.637566    0.637566    0.637566   -0.000000   -0.000000   -0.000000

  frequency dependent IMAGINARY DIELECTRIC FUNCTION (independent particle, no local field effects) current-current (2nd set in vasprun.xml)
     E(ev)      X         Y         Z        XY        YZ        ZX
  --------------------------------------------------------------------------------------------------------------
    0.000000    0.000000    0.000000    0.000000    0.000000   -0.000000    0.000000
    0.406518   -0.000000   -0.000000   -0.000000    0.000000    0.000000   -0.000000
    0.813036    0.000000    0.000000    0.000000    0.000000    0.000000    0.000000
    1.219554   -0.000000   -0.000000   -0.000000   -0.000000   -0.000000   -0.000000
    1.626073   -0.035637   -0.035637   -0.035637    0.000000    0.000000   -0.000000
    2.032591 1565.231245 1565.231245 1565.231245    0.000000    0.000000   -0.000000
    2.439109   -0.000081   -0.000081   -0.000081    0.000000    0.000000    0.000000
    2.845627    0.000000    0.000000    0.000000    0.000000    0.000000    0.000000
    3.252145    0.000000    0.000000    0.000000    0.000000    0.000000    0.000000
    3.658663    0.000000    0.000000    0.000000    0.000000    0.000000    0.000000
    4.065181    0.000000    0.000000    0.000000    0.000000    0.000000    0.000000
    4.471700    0.000000    0.000000    0.000000    0.000000    0.000000    0.000000
    4.878218    0.000000    0.000000    0.000000    0.000000    0.000000    0.000000
    5.284736    0.000000    0.000000    0.000000    0.000000    0.000000    0.000000
    5.691254   -0.000000   -0.000000   -0.000000    0.000000    0.000000    0.000000
    6.097772  -21.872910  -21.872910  -21.872910    0.000000    0.000000   -0.000000
    6.504290   -3.045941   -3.045941   -3.045941    0.000000    0.000000   -0.000000
    6.910809    0.000000    0.000000    0.000000    0.000000    0.000000    0.000000
    7.317327    0.000000    0.000000    0.000000    0.000000    0.000000    0.000000
    7.723845    0.000000    0.000000    0.000000    0.000000    0.000000    0.000000
    8.130363    0.000000    0.000000    0.000000    0.000000    0.000000    0.000000
    8.536881    0.000000    0.000000    0.000000    0.000000    0.000000    0.000000
    8.943399   -0.000000   -0.000000   -0.000000   -0.000000   -0.000000   -0.000000
    9.349917   -2.646956   -2.646956   -2.646956    0.000000    0.000000   -0.000000
    9.756436   -2.743742   -2.743742   -2.743742    0.000000    0.000000    0.000000
   10.162954   -0.000290   -0.000290   -0.000290   -0.000000   -0.000000    0.000000
   10.569472   -0.000050   -0.000050   -0.000050    0.000000    0.000000    0.000000
   10.975990    0.000000    0.000000    0.000000    0.000000   -0.000000    0.000000
   11.382508   -0.456748   -0.456748   -0.456748   -0.000000   -0.000000    0.000000
   11.789026   -0.044904   -0.044904   -0.044904   -0.000000    0.000000    0.000000
   12.195544    0.000000    0.000000    0.000000    0.000000    0.000000    0.000000
   12.602063   -0.000000   -0.000000   -0.000000    0.000000    0.000000   -0.000000
   13.008581   -0.000000   -0.000000   -0.000000   -0.000000    0.000000   -0.000000
   13.415099   -0.000000   -0.000000   -0.000000   -0.000000   -0.000000    0.000000
   13.821617   -0.000000   -0.000000   -0.000000   -0.000000   -0.000000    0.000000
   14.228135   -0.057439   -0.057439   -0.057439    0.000000   -0.000000    0.000000
   14.634653   -0.008075   -0.008075   -0.008075   -0.000000    0.000000   -0.000000
   15.041172    0.000000    0.000000    0.000000    0.000000    0.000000    0.000000
   15.447690    0.000000    0.000000    0.000000    0.000000    0.000000    0.000000
   15.854208    0.000000    0.000000    0.000000    0.000000    0.000000    0.000000
   16.260726    0.000000    0.000000    0.000000    0.000000    0.000000    0.000000
   16.667244    0.000000    0.000000    0.000000    0.000000    0.000000    0.000000
   17.073762   -0.000000   -0.000000   -0.000000    0.000000    0.000000   -0.000000
   17.480280    0.119514    0.119514    0.119514    0.000000   -0.000000    0.000000
   17.886799   -0.000018   -0.000018   -0.000018    0.000000    0.000000    0.000000
   18.293317    0.000000    0.000000    0.000000    0.000000    0.000000    0.000000
   18.699835    0.000000    0.000000    0.000000    0.000000    0.000000    0.000000
   19.106353    0.000000    0.000000    0.000000    0.000000    0.000000    0.000000
   19.512871    0.000000    0.000000    0.000000    0.000000    0.000000    0.000000
   19.919389    0.000000    0.000000    0.000000    0.000000    0.000000    0.000000
   20.325907   -0.000000   -0.000000   -0.000000    0.000000   -0.000000    0.000000
   20.732426    0.000000    0.000000    0.000000    0.000000    0.000000    0.000000
   21.138944   -0.000000   -0.000000   -0.000000    0.000000    0.000000    0.000000
   21.545462    0.000000    0.000000    0.000000   -0.000000   -0.000000    0.000000
   21.951980   -0.000000   -0.000000   -0.000000    0.000000   -0.000000   -0.000000
   22.358498   -0.008600   -0.008600   -0.008600    0.000000    0.000000    0.000000
   22.765016    0.004828    0.004828    0.004828   -0.000000    0.000000   -0.000000
   23.171535   -0.000001   -0.000001   -0.000001    0.000000    0.000000   -0.000000
   23.578053    0.000000    0.000000    0.000000    0.000000    0.000000    0.000000
   23.984571    0.000000    0.000000    0.000000    0.000000    0.000000    0.000000
   24.391089    0.000000    0.000000    0.000000    0.000000    0.000000    0.000000
   24.797607    0.000000    0.000000    0.000000    0.000000    0.000000    0.000000
   25.204125   -0.000000   -0.000000   -0.000000    0.000000    0.000000    0.000000
   25.610643    0.000000    0.000000    0.000000   -0.000000   -0.000000   -0.000000
   26.017162   -0.000000   -0.000000   -0.000000    0.000000    0.000000   -0.000000
   26.423680    0.000000    0.000000    0.000000    0.000000    0.000000    0.000000
   26.830198    0.000000    0.000000    0.000000    0.000000    0.000000    0.000000
   27.236716    0.000000    0.000000    0.000000    0.000000    0.000000    0.000000
   27.643234    0.000000    0.000000    0.000000    0.000000    0.000000    0.000000
   28.049752    0.000000    0.000000    0.000000    0.000000    0.000000    0.000000
   28.456270    0.000000    0.000000    0.000000    0.000000    0.000000    0.000000
   28.862789    0.000000    0.000000    0.000000    0.000000    0.000000    0.000000
   29.269307    0.000000    0.000000    0.000000    0.000000    0.000000    0.000000
   29.675825    0.000000    0.000000    0.000000    0.000000    0.000000    0.000000
   30.082343    0.000000    0.000000    0.000000    0.000000    0.000000    0.000000
   30.488861    0.000000    0.000000    0.000000    0.000000    0.000000    0.000000
   30.895379    0.000000    0.000000    0.000000    0.000000    0.000000    0.000000
   31.301898    0.000000    0.000000    0.000000    0.000000    0.000000    0.000000
   31.708416    0.000000    0.000000    0.000000    0.000000    0.000000    0.000000
   32.114934    0.000000    0.000000    0.000000    0.000000    0.000000    0.000000
   32.521452    0.000000    0.000000    0.000000    0.000000    0.000000    0.000000
   32.927970    0.000000    0.000000    0.000000    0.000000    0.000000    0.000000
   33.334488   -0.000000   -0.000000   -0.000000   -0.000000    0.000000   -0.000000
   33.741006    0.002918    0.002918    0.002918    0.000000    0.000000    0.000000
   34.147525   -0.000013   -0.000013   -0.000013    0.000000    0.000000    0.000000
   34.554043    0.000000    0.000000    0.000000    0.000000    0.000000    0.000000
   34.960561    0.000000    0.000000    0.000000    0.000000    0.000000    0.000000
   35.367079    0.000000    0.000000    0.000000    0.000000    0.000000    0.000000
   35.773597    0.000000    0.000000    0.000000    0.000000    0.000000    0.000000
   36.180115    0.000000    0.000000    0.000000    0.000000    0.000000    0.000000
   36.586633    0.000000    0.000000    0.000000    0.000000    0.000000    0.000000
   36.993152    0.000000    0.000000    0.000000    0.000000    0.000000    0.000000
   37.399670    0.000000    0.000000    0.000000    0.000000    0.000000    0.000000
   37.806188    0.000000    0.000000    0.000000    0.000000    0.000000    0.000000
   38.212706    0.000000    0.000000    0.000000    0.000000    0.000000    0.000000
   38.619224    0.000000    0.000000    0.000000    0.000000    0.000000    0.000000
   39.025742    0.000000    0.000000    0.000000    0.000000    0.000000    0.000000
   39.432261    0.000000    0.000000    0.000000    0.000000    0.000000    0.000000
   39.838779    0.000000    0.000000    0.000000    0.000000    0.000000    0.000000
   40.245297    0.000000    0.000000    0.000000    0.000000    0.000000    0.000000

  frequency dependent      REAL DIELECTRIC FUNCTION (independent particle, no local field effects) current-current (2nd set in vasprun.xml)
     E(ev)        X           Y           Z          XY          YZ          ZX
  --------------------------------------------------------------------------------------------------------------
    0.000000   83.730986   83.730986   83.730986   -0.000000   -0.000000    0.000000
    0.406518   87.032100   87.032100   87.032100   -0.000000   -0.000000    0.000000
    0.813036   99.065580   99.065580   99.065580   -0.000000   -0.000000    0.000000
    1.219554  129.645698  129.645698  129.645698   -0.000000   -0.000000    0.000000
    1.626073  233.659937  233.659937  233.659937   -0.000000   -0.000000    0.000000
    2.032591 -681.065358 -681.065358 -681.065358   -0.000000    0.000000    0.000000
    2.439109 -148.603757 -148.603757 -148.603757    0.000000    0.000000   -0.000000
    2.845627  -66.660316  -66.660316  -66.660316    0.000000    0.000000   -0.000000
    3.252145  -38.001756  -38.001756  -38.001756    0.000000    0.000000   -0.000000
    3.658663  -23.313435  -23.313435  -23.313435    0.000000    0.000000   -0.000000
    4.065181  -14.067259  -14.067259  -14.067259    0.000000    0.000000   -0.000000
    4.471700   -7.186619   -7.186619   -7.186619    0.000000    0.000000   -0.000000
    4.878218   -0.989676   -0.989676   -0.989676    0.000000    0.000000   -0.000000
    5.284736    6.312961    6.312961    6.312961    0.000000    0.000000   -0.000000
    5.691254   19.546620   19.546620   19.546620    0.000000    0.000000   -0.000000
    6.097772  108.537021  108.537021  108.537021    0.000000    0.000000   -0.000000
    6.504290  -65.564017  -65.564017  -65.564017    0.000000    0.000000    0.000000
    6.910809  -26.630262  -26.630262  -26.630262    0.000000    0.000000    0.000000
    7.317327  -16.598803  -16.598803  -16.598803    0.000000    0.000000   -0.000000
    7.723845  -11.589453  -11.589453  -11.589453    0.000000    0.000000   -0.000000
    8.130363   -8.225083   -8.225083   -8.225083    0.000000    0.000000   -0.000000
    8.536881   -5.311193   -5.311193   -5.311193    0.000000    0.000000   -0.000000
    8.943399   -1.589820   -1.589820   -1.589820    0.000000    0.000000   -0.000000
    9.349917   11.510436   11.510436   11.510436    0.000000    0.000000   -0.000000
    9.756436  -23.766269  -23.766269  -23.766269    0.000000    0.000000   -0.000000
   10.162954  -10.421617  -10.421617  -10.421617    0.000000    0.000000   -0.000000
   10.569472   -7.393471   -7.393471   -7.393471    0.000000    0.000000   -0.000000
   10.975990   -5.624579   -5.624579   -5.624579    0.000000    0.000000   -0.000000
   11.382508   -2.232525   -2.232525   -2.232525    0.000000    0.000000   -0.000000
   11.789026   -5.937995   -5.937995   -5.937995    0.000000    0.000000   -0.000000
   12.195544   -4.546569   -4.546569   -4.546569    0.000000    0.000000   -0.000000
   12.602063   -3.875649   -3.875649   -3.875649    0.000000    0.000000   -0.000000
   13.008581   -3.389590   -3.389590   -3.389590    0.000000    0.000000   -0.000000
   13.415099   -2.993743   -2.993743   -2.993743    0.000000    0.000000   -0.000000
   13.821617   -2.642388   -2.642388   -2.642388    0.000000    0.000000   -0.000000
   14.228135   -2.126670   -2.126670   -2.126670    0.000000    0.000000   -0.000000
   14.634653   -2.363298   -2.363298   -2.363298    0.000000    0.000000   -0.000000
   15.041172   -2.049479   -2.049479   -2.049479    0.000000    0.000000   -0.000000
   15.447690   -1.835344   -1.835344   -1.835344    0.000000    0.000000   -0.000000
   15.854208   -1.653646   -1.653646   -1.653646    0.000000    0.000000   -0.000000
   16.260726   -1.492396   -1.492396   -1.492396    0.000000    0.000000   -0.000000
   16.667244   -1.345819   -1.345819   -1.345819    0.000000    0.000000   -0.000000
   17.073762   -1.206829   -1.206829   -1.206829    0.000000    0.000000   -0.000000
   17.480280   -0.991368   -0.991368   -0.991368    0.000000    0.000000   -0.000000
   17.886799   -1.028042   -1.028042   -1.028042    0.000000    0.000000   -0.000000
   18.293317   -0.913469   -0.913469   -0.913469    0.000000    0.000000   -0.000000
   18.699835   -0.816994   -0.816994   -0.816994    0.000000    0.000000   -0.000000
   19.106353   -0.729653   -0.729653   -0.729653    0.000000    0.000000   -0.000000
   19.512871   -0.649257   -0.649257   -0.649257    0.000000    0.000000   -0.000000
   19.919389   -0.574690   -0.574690   -0.574690    0.000000    0.000000   -0.000000
   20.325907   -0.505162   -0.505162   -0.505162   -0.000000    0.000000   -0.000000
   20.732426   -0.439985   -0.439985   -0.439985   -0.000000    0.000000   -0.000000
   21.138944   -0.378427   -0.378427   -0.378427   -0.000000    0.000000   -0.000000
   21.545462   -0.319391   -0.319391   -0.319391   -0.000000    0.000000   -0.000000
   21.951980   -0.259965   -0.259965   -0.259965   -0.000000   -0.000000   -0.000000
   22.358498   -0.173656   -0.173656   -0.173656   -0.000000   -0.000000   -0.000000
   22.765016   -0.221779   -0.221779   -0.221779    0.000000    0.000000   -0.000000
   23.171535   -0.155035   -0.155035   -0.155035    0.000000    0.000000    0.000000
   23.578053   -0.106263   -0.106263   -0.106263    0.000000    0.000000    0.000000
   23.984571   -0.064092   -0.064092   -0.064092    0.000000    0.000000   -0.000000
   24.391089   -0.025406   -0.025406   -0.025406    0.000000    0.000000   -0.000000
   24.797607    0.010707    0.010707    0.010707    0.000000    0.000000   -0.000000
   25.204125    0.044674    0.044674    0.044674    0.000000    0.000000   -0.000000
   25.610643    0.076755    0.076755    0.076755    0.000000    0.000000   -0.000000
   26.017162    0.107134    0.107134    0.107134    0.000000    0.000000   -0.000000
   26.423680    0.135959    0.135959    0.135959    0.000000    0.000000   -0.000000
   26.830198    0.163350    0.163350    0.163350    0.000000    0.000000   -0.000000
   27.236716    0.189412    0.189412    0.189412    0.000000    0.000000   -0.000000
   27.643234    0.214238    0.214238    0.214238    0.000000    0.000000   -0.000000
   28.049752    0.237911    0.237911    0.237911    0.000000    0.000000   -0.000000
   28.456270    0.260506    0.260506    0.260506    0.000000    0.000000   -0.000000
   28.862789    0.282090    0.282090    0.282090    0.000000    0.000000   -0.000000
   29.269307    0.302727    0.302727    0.302727    0.000000    0.000000   -0.000000
   29.675825    0.322474    0.322474    0.322474    0.000000    0.000000   -0.000000
   30.082343    0.341384    0.341384    0.341384    0.000000    0.000000   -0.000000
   30.488861    0.359508    0.359508    0.359508    0.000000    0.000000    0.000000
   30.895379    0.376892    0.376892    0.376892    0.000000    0.000000    0.000000
   31.301898    0.393582    0.393582    0.393582    0.000000    0.000000    0.000000
   31.708416    0.409624    0.409624    0.409624    0.000000    0.000000    0.000000
   32.114934    0.425065    0.425065    0.425065   -0.000000    0.000000    0.000000
   32.521452    0.439969    0.439969    0.439969   -0.000000    0.000000    0.000000
   32.927970    0.454447    0.454447    0.454447   -0.000000    0.000000    0.000000
   33.334488    0.468864    0.468864    0.468864   -0.000000    0.000000    0.000000
   33.741006    0.491158    0.491158    0.491158   -0.000000    0.000000    0.000000
   34.147525    0.490017    0.490017    0.490017    0.000000    0.000000   -0.000000
   34.554043    0.503823    0.503823    0.503823    0.000000    0.000000   -0.000000
   34.960561    0.516024    0.516024    0.516024    0.000000    0.000000   -0.000000
   35.367079    0.527565    0.527565    0.527565    0.000000    0.000000   -0.000000
   35.773597    0.538619    0.538619    0.538619    0.000000    0.000000   -0.000000
   36.180115    0.549251    0.549251    0.549251    0.000000    0.000000   -0.000000
   36.586633    0.559498    0.559498    0.559498    0.000000    0.000000   -0.000000
   36.993152    0.569385    0.569385    0.569385    0.000000    0.000000   -0.000000
   37.399670    0.578933    0.578933    0.578933    0.000000    0.000000   -0.000000
   37.806188    0.588160    0.588160    0.588160    0.000000    0.000000   -0.000000
   38.212706    0.597081    0.597081    0.597081    0.000000    0.000000   -0.000000
   38.619224    0.605710    0.605710    0.605710    0.000000    0.000000   -0.000000
   39.025742    0.614061    0.614061    0.614061    0.000000    0.000000   -0.000000
   39.432261    0.622147    0.622147    0.622147    0.000000    0.000000   -0.000000
   39.838779    0.629978    0.629978    0.629978    0.000000    0.000000   -0.000000
   40.245297    0.637566    0.637566    0.637566    0.000000    0.000000   -0.000000
 
 The outermost node in the dielectric function lies at epsilon=  24.7


--------------------------------------------------------------------------------------------------------


    OPTICS:  cpu time    0.0407: real time    0.0426
    4ORBIT:  cpu time    0.0000: real time    0.0000
 


 total charge     
 
# of ion       s       p       d       tot
------------------------------------------
    1        0.056   0.072   0.097   0.225
    2        1.197   3.116   0.006   4.320
--------------------------------------------------
tot          1.253   3.188   0.104   4.545
 

 total amount of memory used by VASP MPI-rank0    30623. kBytes
=======================================================================

   base      :      30000. kBytes
   nonl-proj :         42. kBytes
   fftplans  :        160. kBytes
   grid      :        407. kBytes
   one-center:          8. kBytes
   wavefun   :          6. kBytes
 
  
  
 General timing and accounting informations for this job:
 ========================================================
  
                  Total CPU time used (sec):        2.008
                            User time (sec):        1.891
                          System time (sec):        0.117
                         Elapsed time (sec):        2.253
  
                   Maximum memory used (kb):       51896.
                   Average memory used (kb):           0.
  
                          Minor page faults:         7205
                          Major page faults:           12
                 Voluntary context switches:         1430
