 vasp.5.4.4.18Apr17-6-g9f103f2a35 (build Apr 25 2017 10:43:04) complex          
  
 executed on             LinuxIFC date 2019.12.17  10:40:00
 running on   36 total cores
 distrk:  each k-point on   18 cores,    2 groups
 distr:  one band on NCORES_PER_BAND=   1 cores,   18 groups


--------------------------------------------------------------------------------------------------------


 INCAR:
 POTCAR:    PAW_PBE Mn 06Sep2000                  
 POTCAR:    PAW_PBE O 08Apr2002                   

 ----------------------------------------------------------------------------- 
|                                                                             |
|           W    W    AA    RRRRR   N    N  II  N    N   GGGG   !!!           |
|           W    W   A  A   R    R  NN   N  II  NN   N  G    G  !!!           |
|           W    W  A    A  R    R  N N  N  II  N N  N  G       !!!           |
|           W WW W  AAAAAA  RRRRR   N  N N  II  N  N N  G  GGG   !            |
|           WW  WW  A    A  R   R   N   NN  II  N   NN  G    G                |
|           W    W  A    A  R    R  N    N  II  N    N   GGGG   !!!           |
|                                                                             |
|      For optimal performance we recommend to set                            |
|        NCORE= 4 - approx SQRT( number of cores)                             |
|      NCORE specifies how many cores store one orbital (NPAR=cpu/NCORE).     |
|      This setting can  greatly improve the performance of VASP for DFT.     |
|      The default,   NCORE=1            might be grossly inefficient         |
|      on modern multi-core architectures or massively parallel machines.     |
|      Do your own testing !!!!                                               |
|      Unfortunately you need to use the default for GW and RPA calculations. |
|      (for HF NCORE is supported but not extensively tested yet)             |
|                                                                             |
 ----------------------------------------------------------------------------- 


 ----------------------------------------------------------------------------- 
|                                                                             |
|           W    W    AA    RRRRR   N    N  II  N    N   GGGG   !!!           |
|           W    W   A  A   R    R  NN   N  II  NN   N  G    G  !!!           |
|           W    W  A    A  R    R  N N  N  II  N N  N  G       !!!           |
|           W WW W  AAAAAA  RRRRR   N  N N  II  N  N N  G  GGG   !            |
|           WW  WW  A    A  R   R   N   NN  II  N   NN  G    G                |
|           W    W  A    A  R    R  N    N  II  N    N   GGGG   !!!           |
|                                                                             |
|      You have enabled k-point parallelism (KPAR>1).                         |
|      This developmental code was originally  written by Paul Kent at ORNL,  |
|      and carefully double checked in Vienna.                                |
|      GW as well as linear response parallelism added by Martijn Marsman     |
|      and Georg Kresse.                                                      |
|      Carefully verify results versus KPAR=1.                                |
|      Report problems to Paul Kent and Vienna.                               |
|                                                                             |
 ----------------------------------------------------------------------------- 

 POTCAR:    PAW_PBE Mn 06Sep2000                  
   VRHFIN =Mn: d6 s1                                                            
   LEXCH  = PE                                                                  
   EATOM  =   416.7541 eV,   30.6306 Ry                                         
                                                                                
   TITEL  = PAW_PBE Mn 06Sep2000                                                
   LULTRA =        F    use ultrasoft PP ?                                      
   IUNSCR =        1    unscreen: 0-lin 1-nonlin 2-no                           
   RPACOR =    2.000    partial core radius                                     
   POMASS =   54.938; ZVAL   =    7.000    mass and valenz                      
   RCORE  =    2.300    outmost cutoff radius                                   
   RWIGS  =    2.500; RWIGS  =    1.323    wigner-seitz radius (au A)           
   ENMAX  =  269.864; ENMIN  =  202.398 eV                                      
   RCLOC  =    1.725    cutoff for local pot                                    
   LCOR   =        T    correct aug charges                                     
   LPAW   =        T    paw PP                                                  
   EAUG   =  500.711                                                            
   DEXC   =    0.000                                                            
   RMAX   =    2.343    core radius for proj-oper                               
   RAUG   =    1.300    factor for augmentation sphere                          
   RDEP   =    2.338    radius for radial grids                                 
   RDEPT  =    1.911    core radius for aug-charge                              
                                                                                
   Atomic configuration                                                         
    9 entries                                                                   
     n  l   j            E        occ.                                          
     1  0  0.50     -6424.8288   2.0000                                         
     2  0  0.50      -739.1154   2.0000                                         
     2  1  1.50      -625.3949   6.0000                                         
     3  0  0.50       -81.6100   2.0000                                         
     3  1  1.50       -50.4667   6.0000                                         
     3  2  2.50        -3.3745   6.0000                                         
     4  0  0.50        -4.1331   1.0000                                         
     4  1  0.50        -4.0817   0.0000                                         
     4  3  2.50        -1.3606   0.0000                                         
   Description                                                                  
     l       E           TYP  RCUT    TYP  RCUT                                 
     2     -3.3744664     23  2.300                                             
     2     -4.7350490     23  2.300                                             
     0     -4.1331408     23  2.300                                             
     0      7.6656614     23  2.300                                             
     1     -2.7211652     23  2.300                                             
     1     20.4087390     23  2.300                                             
  local pseudopotential read in
  partial core-charges read in
  partial kinetic energy density read in
  atomic valenz-charges read in
  non local Contribution for L=           2  read in
    real space projection operators read in
  non local Contribution for L=           2  read in
    real space projection operators read in
  non local Contribution for L=           0  read in
    real space projection operators read in
  non local Contribution for L=           0  read in
    real space projection operators read in
  non local Contribution for L=           1  read in
    real space projection operators read in
  non local Contribution for L=           1  read in
    real space projection operators read in
    PAW grid and wavefunctions read in
 
   number of l-projection  operators is LMAX  =           6
   number of lm-projection operators is LMMAX =          18
 
 POTCAR:    PAW_PBE O 08Apr2002                   
   VRHFIN =O: s2p4                                                              
   LEXCH  = PE                                                                  
   EATOM  =   432.3788 eV,   31.7789 Ry                                         
                                                                                
   TITEL  = PAW_PBE O 08Apr2002                                                 
   LULTRA =        F    use ultrasoft PP ?                                      
   IUNSCR =        1    unscreen: 0-lin 1-nonlin 2-no                           
   RPACOR =    1.200    partial core radius                                     
   POMASS =   16.000; ZVAL   =    6.000    mass and valenz                      
   RCORE  =    1.520    outmost cutoff radius                                   
   RWIGS  =    1.550; RWIGS  =    0.820    wigner-seitz radius (au A)           
   ENMAX  =  400.000; ENMIN  =  300.000 eV                                      
   ICORE  =        2    local potential                                         
   LCOR   =        T    correct aug charges                                     
   LPAW   =        T    paw PP                                                  
   EAUG   =  605.392                                                            
   DEXC   =    0.000                                                            
   RMAX   =    1.553    core radius for proj-oper                               
   RAUG   =    1.300    factor for augmentation sphere                          
   RDEP   =    1.550    radius for radial grids                                 
   RDEPT  =    1.329    core radius for aug-charge                              
                                                                                
   Atomic configuration                                                         
    4 entries                                                                   
     n  l   j            E        occ.                                          
     1  0  0.50      -514.6923   2.0000                                         
     2  0  0.50       -23.9615   2.0000                                         
     2  1  0.50        -9.0305   4.0000                                         
     3  2  1.50        -9.5241   0.0000                                         
   Description                                                                  
     l       E           TYP  RCUT    TYP  RCUT                                 
     0    -23.9615318     23  1.200                                             
     0     -9.5240782     23  1.200                                             
     1     -9.0304911     23  1.520                                             
     1      8.1634956     23  1.520                                             
     2     -9.5240782      7  1.500                                             
  local pseudopotential read in
  partial core-charges read in
  partial kinetic energy density read in
  kinetic energy density of atom read in
  atomic valenz-charges read in
  non local Contribution for L=           0  read in
    real space projection operators read in
  non local Contribution for L=           0  read in
    real space projection operators read in
  non local Contribution for L=           1  read in
    real space projection operators read in
  non local Contribution for L=           1  read in
    real space projection operators read in
    PAW grid and wavefunctions read in
 
   number of l-projection  operators is LMAX  =           4
   number of lm-projection operators is LMMAX =           8
 

 ----------------------------------------------------------------------------- 
|                                                                             |
|  ADVICE TO THIS USER RUNNING 'VASP/VAMP'   (HEAR YOUR MASTER'S VOICE ...):  |
|                                                                             |
|      You enforced a specific xc-type in the INCAR file,                     |
|      a different type was found on the POTCAR file                          |
|          I HOPE YOU KNOW, WHAT YOU ARE  DOING                               |
|                                                                             |
 ----------------------------------------------------------------------------- 

  PAW_PBE Mn 06Sep2000                  :
 energy of atom  1       EATOM= -416.7541
 kinetic energy error for atom=    0.0024 (will be added to EATOM!!)
  PAW_PBE O 08Apr2002                   :
 energy of atom  2       EATOM= -432.3788
 kinetic energy error for atom=    0.0208 (will be added to EATOM!!)
 
 
 POSCAR: Mg1 O1                                  
  positions in direct lattice
  velocities in cartesian coordinates
 exchange correlation table for  LEXCH =       14
   RHO(1)=    0.500       N(1)  =     2000
   RHO(2)=  100.500       N(2)  =     4000
 


--------------------------------------------------------------------------------------------------------


 ion  position               nearest neighbor table
   1  0.000  0.000  0.000-   2 2.23   2 2.23   2 2.23   2 2.23   2 2.23   2 2.23
   2  0.500  0.500  0.500-   1 2.23   1 2.23   1 2.23   1 2.23   1 2.23   1 2.23
 
  LATTYP: Found a face centered cubic cell.
 ALAT       =     4.4534081261
  
  Lattice vectors:
  
 A1 = (   0.0000000000,   2.2267040630,   2.2267040630)
 A2 = (   2.2267040630,   0.0000000000,   2.2267040630)
 A3 = (   2.2267040630,   2.2267040630,   0.0000000000)


Analysis of symmetry for initial positions (statically):
=====================================================================
 Subroutine PRICEL returns:
 Original cell was already a primitive cell.
 

 Routine SETGRP: Setting up the symmetry group for a 
 face centered cubic supercell.


 Subroutine GETGRP returns: Found 48 space group operations
 (whereof 48 operations were pure point group operations)
 out of a pool of 48 trial point group operations.


The static configuration has the point symmetry O_h .


Analysis of symmetry for dynamics (positions and initial velocities):
=====================================================================
 Subroutine PRICEL returns:
 Original cell was already a primitive cell.
 

 Routine SETGRP: Setting up the symmetry group for a 
 face centered cubic supercell.


 Subroutine GETGRP returns: Found 48 space group operations
 (whereof 48 operations were pure point group operations)
 out of a pool of 48 trial point group operations.


The dynamic configuration has the point symmetry O_h .


Analysis of structural, dynamic, and magnetic symmetry:
=====================================================================
 Subroutine PRICEL returns:
 Original cell was already a primitive cell.
 

 Routine SETGRP: Setting up the symmetry group for a 
 face centered cubic supercell.


 Subroutine GETGRP returns: Found 48 space group operations
 (whereof 48 operations were pure point group operations)
 out of a pool of 48 trial point group operations.


The magnetic configuration has the point symmetry O_h .


 Subroutine INISYM returns: Found 48 space group operations
 (whereof 48 operations are pure point group operations),
 and found     1 'primitive' translations

 
 
 KPOINTS: Generated by vise. Mode: primitive_unifo

Automatic generation of k-mesh.
Space group operators:
 irot       det(A)        alpha          n_x          n_y          n_z        tau_x        tau_y        tau_z
    1     1.000000     0.000000     1.000000     0.000000     0.000000     0.000000     0.000000     0.000000
    2    -1.000000     0.000000     1.000000     0.000000     0.000000     0.000000     0.000000     0.000000
    3     1.000000   120.000000    -0.577350    -0.577350    -0.577350     0.000000     0.000000     0.000000
    4    -1.000000   120.000000    -0.577350    -0.577350    -0.577350     0.000000     0.000000     0.000000
    5     1.000000   120.000000     0.577350     0.577350     0.577350     0.000000     0.000000     0.000000
    6    -1.000000   120.000000     0.577350     0.577350     0.577350     0.000000     0.000000     0.000000
    7     1.000000    90.000000     0.000000     0.000000    -1.000000     0.000000     0.000000     0.000000
    8    -1.000000    90.000000     0.000000     0.000000    -1.000000     0.000000     0.000000     0.000000
    9     1.000000   180.000000     0.000000     0.707107     0.707107     0.000000     0.000000     0.000000
   10    -1.000000   180.000000     0.000000     0.707107     0.707107     0.000000     0.000000     0.000000
   11     1.000000    90.000000     0.000000     1.000000     0.000000     0.000000     0.000000     0.000000
   12    -1.000000    90.000000     0.000000     1.000000     0.000000     0.000000     0.000000     0.000000
   13     1.000000   180.000000     0.000000     0.000000     1.000000     0.000000     0.000000     0.000000
   14    -1.000000   180.000000     0.000000     0.000000     1.000000     0.000000     0.000000     0.000000
   15     1.000000   120.000000    -0.577350     0.577350     0.577350     0.000000     0.000000     0.000000
   16    -1.000000   120.000000    -0.577350     0.577350     0.577350     0.000000     0.000000     0.000000
   17     1.000000   120.000000    -0.577350     0.577350    -0.577350     0.000000     0.000000     0.000000
   18    -1.000000   120.000000    -0.577350     0.577350    -0.577350     0.000000     0.000000     0.000000
   19     1.000000    90.000000     0.000000     0.000000     1.000000     0.000000     0.000000     0.000000
   20    -1.000000    90.000000     0.000000     0.000000     1.000000     0.000000     0.000000     0.000000
   21     1.000000    90.000000    -1.000000     0.000000     0.000000     0.000000     0.000000     0.000000
   22    -1.000000    90.000000    -1.000000     0.000000     0.000000     0.000000     0.000000     0.000000
   23     1.000000   180.000000     0.707107     0.000000     0.707107     0.000000     0.000000     0.000000
   24    -1.000000   180.000000     0.707107     0.000000     0.707107     0.000000     0.000000     0.000000
   25     1.000000   120.000000     0.577350    -0.577350     0.577350     0.000000     0.000000     0.000000
   26    -1.000000   120.000000     0.577350    -0.577350     0.577350     0.000000     0.000000     0.000000
   27     1.000000   120.000000    -0.577350    -0.577350     0.577350     0.000000     0.000000     0.000000
   28    -1.000000   120.000000    -0.577350    -0.577350     0.577350     0.000000     0.000000     0.000000
   29     1.000000   180.000000     1.000000     0.000000     0.000000     0.000000     0.000000     0.000000
   30    -1.000000   180.000000     1.000000     0.000000     0.000000     0.000000     0.000000     0.000000
   31     1.000000    90.000000     0.000000    -1.000000     0.000000     0.000000     0.000000     0.000000
   32    -1.000000    90.000000     0.000000    -1.000000     0.000000     0.000000     0.000000     0.000000
   33     1.000000   180.000000     0.707107     0.707107     0.000000     0.000000     0.000000     0.000000
   34    -1.000000   180.000000     0.707107     0.707107     0.000000     0.000000     0.000000     0.000000
   35     1.000000    90.000000     1.000000     0.000000     0.000000     0.000000     0.000000     0.000000
   36    -1.000000    90.000000     1.000000     0.000000     0.000000     0.000000     0.000000     0.000000
   37     1.000000   120.000000     0.577350    -0.577350    -0.577350     0.000000     0.000000     0.000000
   38    -1.000000   120.000000     0.577350    -0.577350    -0.577350     0.000000     0.000000     0.000000
   39     1.000000   180.000000     0.000000     1.000000     0.000000     0.000000     0.000000     0.000000
   40    -1.000000   180.000000     0.000000     1.000000     0.000000     0.000000     0.000000     0.000000
   41     1.000000   120.000000     0.577350     0.577350    -0.577350     0.000000     0.000000     0.000000
   42    -1.000000   120.000000     0.577350     0.577350    -0.577350     0.000000     0.000000     0.000000
   43     1.000000   180.000000     0.000000    -0.707107     0.707107     0.000000     0.000000     0.000000
   44    -1.000000   180.000000     0.000000    -0.707107     0.707107     0.000000     0.000000     0.000000
   45     1.000000   180.000000     0.707107    -0.707107     0.000000     0.000000     0.000000     0.000000
   46    -1.000000   180.000000     0.707107    -0.707107     0.000000     0.000000     0.000000     0.000000
   47     1.000000   180.000000     0.707107     0.000000    -0.707107     0.000000     0.000000     0.000000
   48    -1.000000   180.000000     0.707107     0.000000    -0.707107     0.000000     0.000000     0.000000
 
 Subroutine IBZKPT returns following result:
 ===========================================
 
 Found     20 irreducible k-points:
 
 Following reciprocal coordinates:
            Coordinates               Weight
  0.000000  0.000000  0.000000      1.000000
  0.142857  0.000000  0.000000      8.000000
  0.285714  0.000000  0.000000      8.000000
  0.428571  0.000000  0.000000      8.000000
  0.142857  0.142857  0.000000      6.000000
  0.285714  0.142857  0.000000     24.000000
  0.428571  0.142857  0.000000     24.000000
 -0.428571  0.142857  0.000000     24.000000
 -0.285714  0.142857  0.000000     24.000000
 -0.142857  0.142857  0.000000     12.000000
  0.285714  0.285714  0.000000      6.000000
  0.428571  0.285714  0.000000     24.000000
 -0.428571  0.285714  0.000000     24.000000
 -0.285714  0.285714  0.000000     12.000000
  0.428571  0.428571  0.000000      6.000000
 -0.428571  0.428571  0.000000     12.000000
  0.428571  0.285714  0.142857     24.000000
 -0.428571  0.285714  0.142857     48.000000
 -0.428571  0.428571  0.142857     24.000000
 -0.285714  0.428571  0.142857     24.000000
 
 Following cartesian coordinates:
            Coordinates               Weight
  0.000000  0.000000  0.000000      1.000000
 -0.032078  0.032078  0.032078      8.000000
 -0.064156  0.064156  0.064156      8.000000
 -0.096234  0.096234  0.096234      8.000000
  0.000000  0.000000  0.064156      6.000000
 -0.032078  0.032078  0.096234     24.000000
 -0.064156  0.064156  0.128313     24.000000
  0.128313 -0.128313 -0.064156     24.000000
  0.096234 -0.096234 -0.032078     24.000000
  0.064156 -0.064156  0.000000     12.000000
  0.000000  0.000000  0.128313      6.000000
 -0.032078  0.032078  0.160391     24.000000
  0.160391 -0.160391 -0.032078     24.000000
  0.128313 -0.128313  0.000000     12.000000
  0.000000  0.000000  0.192469      6.000000
  0.192469 -0.192469  0.000000     12.000000
 -0.000000  0.064156  0.128313     24.000000
  0.192469 -0.128313 -0.064156     48.000000
  0.224547 -0.160391 -0.032078     24.000000
  0.192469 -0.128313  0.000000     24.000000
 


--------------------------------------------------------------------------------------------------------




 Dimension of arrays:
   k-points           NKPTS =     20   k-points in BZ     NKDIM =     20   number of bands    NBANDS=     18
   number of dos      NEDOS =    301   number of ions     NIONS =      2
   non local maximal  LDIM  =      6   non local SUM 2l+1 LMDIM =     18
   total plane-waves  NPLWV =   5832
   max r-space proj   IRMAX =      1   max aug-charges    IRDMAX=   9909
   dimension x,y,z NGX =    18 NGY =   18 NGZ =   18
   dimension x,y,z NGXF=    36 NGYF=   36 NGZF=   36
   support grid    NGXF=    36 NGYF=   36 NGZF=   36
   ions per type =               1   1
   NGX,Y,Z   is equivalent  to a cutoff of   9.50,  9.50,  9.50 a.u.
   NGXF,Y,Z  is equivalent  to a cutoff of  19.01, 19.01, 19.01 a.u.

 SYSTEM =  unknown system                          
 POSCAR =  Mg1 O1                                  

 Startparameter for this run:
   NWRITE =      2    write-flag & timer
   PREC   = n         normal or accurate (medium, high low for compatibility)
   ISTART =      0    job   : 0-new  1-cont  2-samecut
   ICHARG =      2    charge: 1-file 2-atom 10-const
   ISPIN  =      2    spin polarized calculation?
   LNONCOLLINEAR =      F non collinear calculations
   LSORBIT =      F    spin-orbit coupling
   INIWAV =      1    electr: 0-lowe 1-rand  2-diag
   LASPH  =      T    aspherical Exc in radial PAW
   METAGGA=      F    non-selfconsistent MetaGGA calc.

 Electronic Relaxation 1
   ENCUT  =  520.0 eV  38.22 Ry    6.18 a.u.   5.86  5.86  5.86*2*pi/ulx,y,z
   ENINI  =  520.0     initial cutoff
   ENAUG  =  605.4 eV  augmentation charge cutoff
   NELM   =    100;   NELMIN=  2; NELMDL=  0     # of ELM steps 
   EDIFF  = 0.1E-06   stopping-criterion for ELM
   LREAL  =      F    real-space projection
   NLSPLINE    = F    spline interpolate recip. space projectors
   LCOMPAT=      F    compatible to vasp.4.4
   GGA_COMPAT  = T    GGA compatible to vasp.4.4-vasp.4.6
   LMAXPAW     = -100 max onsite density
   LMAXMIX     =    4 max onsite mixed and CHGCAR
   VOSKOWN=      0    Vosko Wilk Nusair interpolation
   ROPT   =    0.00000   0.00000
 Ionic relaxation
   EDIFFG = -.5E-02   stopping-criterion for IOM
   NSW    =      0    number of steps for IOM
   NBLOCK =      1;   KBLOCK =      1    inner block; outer block 
   IBRION =     -1    ionic relax: 0-MD 1-quasi-New 2-CG
   NFREE  =      1    steps in history (QN), initial steepest desc. (CG)
   ISIF   =      3    stress and relaxation
   IWAVPR =     10    prediction:  0-non 1-charg 2-wave 3-comb
   ISYM   =      2    0-nonsym 1-usesym 2-fastsym
   LCORR  =      T    Harris-Foulkes like correction to forces

   POTIM  = 0.5000    time-step for ionic-motion
   TEIN   =    0.0    initial temperature
   TEBEG  =    0.0;   TEEND  =   0.0 temperature during run
   SMASS  =  -3.00    Nose mass-parameter (am)
   estimated Nose-frequenzy (Omega)   =  0.10E-29 period in steps =****** mass=  -0.227E-27a.u.
   SCALEE = 1.0000    scale energy and forces
   NPACO  =    256;   APACO  = 16.0  distance and # of slots for P.C.
   PSTRESS=    0.0 pullay stress

  Mass of Ions in am
   POMASS =  54.94 16.00
  Ionic Valenz
   ZVAL   =   7.00  6.00
  Atomic Wigner-Seitz radii
   RWIGS  =  -1.00 -1.00
  virtual crystal weights 
   VCA    =   1.00  1.00
   NELECT =      13.0000    total number of electrons
   NUPDOWN=      -1.0000    fix difference up-down

 DOS related values:
   EMIN   =  10.00;   EMAX   =-10.00  energy-range for DOS
   EFERMI =   0.00
   ISMEAR =     0;   SIGMA  =   0.10  broadening in eV -4-tet -1-fermi 0-gaus

 Electronic relaxation 2 (details)
   IALGO  =     38    algorithm
   LDIAG  =      T    sub-space diagonalisation (order eigenvalues)
   LSUBROT=      F    optimize rotation matrix (better conditioning)
   TURBO    =      0    0=normal 1=particle mesh
   IRESTART =      0    0=no restart 2=restart with 2 vectors
   NREBOOT  =      0    no. of reboots
   NMIN     =      0    reboot dimension
   EREF     =   0.00    reference energy to select bands
   IMIX   =      4    mixing-type and parameters
     AMIX     =   0.40;   BMIX     =  1.00
     AMIX_MAG =   1.60;   BMIX_MAG =  1.00
     AMIN     =   0.10
     WC   =   100.;   INIMIX=   1;  MIXPRE=   1;  MAXMIX= -45

 Intra band minimization:
   WEIMIN = 0.0000     energy-eigenvalue tresh-hold
   EBREAK =  0.14E-08  absolut break condition
   DEPER  =   0.30     relativ break condition  

   TIME   =   0.40     timestep for ELM

  volume/ion in A,a.u.               =      11.04        74.50
  Fermi-wavevector in a.u.,A,eV,Ry     =   1.372093  2.592879 25.614850  1.882638
  Thomas-Fermi vector in A             =   2.497731
 
 Write flags
   LWAVE        =      F    write WAVECAR
   LDOWNSAMPLE  =      F    k-point downsampling of WAVECAR
   LCHARG       =      F    write CHGCAR
   LVTOT        =      F    write LOCPOT, total local potential
   LVHAR        =      F    write LOCPOT, Hartree potential only
   LELF         =      F    write electronic localiz. function (ELF)
   LORBIT       =     12    0 simple, 1 ext, 2 COOP (PROOUT), +10 PAW based schemes


 Dipole corrections
   LMONO  =      F    monopole corrections only (constant potential shift)
   LDIPOL =      F    correct potential (dipole corrections)
   IDIPOL =      0    1-x, 2-y, 3-z, 4-all directions 
   EPSILON=  1.0000000 bulk dielectric constant

 LDA+U is selected, type is set to LDAUTYPE =  2
   angular momentum for each species LDAUL =     2    0
   U (eV)           for each species LDAUU =   5.0  0.0
   J (eV)           for each species LDAUJ =   0.0  0.0
 Exchange correlation treatment:
   GGA     =    PS    GGA type
   LEXCH   =    14    internal setting for exchange type
   VOSKOWN=      0    Vosko Wilk Nusair interpolation
   LHFCALC =     F    Hartree Fock is set to
   LHFONE  =     F    Hartree Fock one center treatment
   AEXX    =    0.0000 exact exchange contribution

 Linear response parameters
   LEPSILON=     F    determine dielectric tensor
   LRPA    =     F    only Hartree local field effects (RPA)
   LNABLA  =     F    use nabla operator in PAW spheres
   LVEL    =     F    velocity operator in full k-point grid
   LINTERFAST=   F  fast interpolation
   KINTER  =     0    interpolate to denser k-point grid
   CSHIFT  =0.1000    complex shift for real part using Kramers Kronig
   OMEGAMAX=  -1.0    maximum frequency
   DEG_THRESHOLD= 0.2000000E-02 threshold for treating states as degnerate
   RTIME   =   -0.100 relaxation time in fs
  (WPLASMAI=    0.000 imaginary part of plasma frequency in eV, 0.658/RTIME)
   DFIELD  = 0.0000000 0.0000000 0.0000000 field for delta impulse in time
 
 Orbital magnetization related:
   ORBITALMAG=     F  switch on orbital magnetization
   LCHIMAG   =     F  perturbation theory with respect to B field
   DQ        =  0.001000  dq finite difference perturbation B field
   LLRAUG    =     F  two centre corrections for induced B field



--------------------------------------------------------------------------------------------------------


 Static calculation
 charge density and potential will be updated during run
 spin polarized calculation
 Variant of blocked Davidson
 Davidson routine will perform the subspace rotation
 perform sub-space diagonalisation
    after iterative eigenvector-optimisation
 modified Broyden-mixing scheme, WC =      100.0
 initial mixing is a Kerker type mixing with AMIX =  0.4000 and BMIX =      1.0000
 Hartree-type preconditioning will be used
 using additional bands           11
 reciprocal scheme for non local part
 use partial core corrections
 calculate Harris-corrections to forces 
   (improved forces if not selfconsistent)
 use gradient corrections 
 use of overlap-Matrix (Vanderbilt PP)
 Gauss-broadening in eV      SIGMA  =   0.10


--------------------------------------------------------------------------------------------------------


  energy-cutoff  :      520.00
  volume of cell :       22.08
      direct lattice vectors                 reciprocal lattice vectors
     0.000000000  2.226704063  2.226704063    -0.224547127  0.224547127  0.224547127
     2.226704063  0.000000000  2.226704063     0.224547127 -0.224547127  0.224547127
     2.226704063  2.226704063  0.000000000     0.224547127  0.224547127 -0.224547127

  length of vectors
     3.149035085  3.149035085  3.149035085     0.388927033  0.388927033  0.388927033


 
 k-points in units of 2pi/SCALE and weight: Generated by vise. Mode: primitive_unifo
   0.00000000  0.00000000  0.00000000       0.003
  -0.03207816  0.03207816  0.03207816       0.023
  -0.06415632  0.06415632  0.06415632       0.023
  -0.09623448  0.09623448  0.09623448       0.023
   0.00000000  0.00000000  0.06415632       0.017
  -0.03207816  0.03207816  0.09623448       0.070
  -0.06415632  0.06415632  0.12831264       0.070
   0.12831264 -0.12831264 -0.06415632       0.070
   0.09623448 -0.09623448 -0.03207816       0.070
   0.06415632 -0.06415632  0.00000000       0.035
   0.00000000  0.00000000  0.12831264       0.017
  -0.03207816  0.03207816  0.16039080       0.070
   0.16039080 -0.16039080 -0.03207816       0.070
   0.12831264 -0.12831264  0.00000000       0.035
   0.00000000  0.00000000  0.19246897       0.017
   0.19246897 -0.19246897  0.00000000       0.035
  -0.00000000  0.06415632  0.12831264       0.070
   0.19246897 -0.12831264 -0.06415632       0.140
   0.22454713 -0.16039080 -0.03207816       0.070
   0.19246897 -0.12831264  0.00000000       0.070
 
 k-points in reciprocal lattice and weights: Generated by vise. Mode: primitive_unifo
   0.00000000  0.00000000  0.00000000       0.003
   0.14285714  0.00000000  0.00000000       0.023
   0.28571429  0.00000000  0.00000000       0.023
   0.42857143  0.00000000  0.00000000       0.023
   0.14285714  0.14285714  0.00000000       0.017
   0.28571429  0.14285714  0.00000000       0.070
   0.42857143  0.14285714  0.00000000       0.070
  -0.42857143  0.14285714  0.00000000       0.070
  -0.28571429  0.14285714  0.00000000       0.070
  -0.14285714  0.14285714  0.00000000       0.035
   0.28571429  0.28571429  0.00000000       0.017
   0.42857143  0.28571429  0.00000000       0.070
  -0.42857143  0.28571429  0.00000000       0.070
  -0.28571429  0.28571429  0.00000000       0.035
   0.42857143  0.42857143  0.00000000       0.017
  -0.42857143  0.42857143  0.00000000       0.035
   0.42857143  0.28571429  0.14285714       0.070
  -0.42857143  0.28571429  0.14285714       0.140
  -0.42857143  0.42857143  0.14285714       0.070
  -0.28571429  0.42857143  0.14285714       0.070
 
 position of ions in fractional coordinates (direct lattice) 
   0.00000000  0.00000000  0.00000000
   0.50000000  0.50000000  0.50000000
 
 position of ions in cartesian coordinates  (Angst):
   0.00000000  0.00000000  0.00000000
   2.22670406  2.22670406  2.22670406
 


--------------------------------------------------------------------------------------------------------


 k-point  1 :   0.0000 0.0000 0.0000  plane waves:     609
 k-point  2 :   0.1429 0.0000 0.0000  plane waves:     576
 k-point  3 :   0.2857 0.0000 0.0000  plane waves:     595
 k-point  4 :   0.4286 0.0000 0.0000  plane waves:     595
 k-point  5 :   0.1429 0.1429 0.0000  plane waves:     580
 k-point  6 :   0.2857 0.1429 0.0000  plane waves:     587
 k-point  7 :   0.4286 0.1429 0.0000  plane waves:     590
 k-point  8 :  -0.4286 0.1429 0.0000  plane waves:     592
 k-point  9 :  -0.2857 0.1429 0.0000  plane waves:     596
 k-point 10 :  -0.1429 0.1429 0.0000  plane waves:     584
 k-point 11 :   0.2857 0.2857 0.0000  plane waves:     592
 k-point 12 :   0.4286 0.2857 0.0000  plane waves:     597
 k-point 13 :  -0.4286 0.2857 0.0000  plane waves:     599
 k-point 14 :  -0.2857 0.2857 0.0000  plane waves:     590
 k-point 15 :   0.4286 0.4286 0.0000  plane waves:     604
 k-point 16 :  -0.4286 0.4286 0.0000  plane waves:     606
 k-point 17 :   0.4286 0.2857 0.1429  plane waves:     594
 k-point 18 :  -0.4286 0.2857 0.1429  plane waves:     595
 k-point 19 :  -0.4286 0.4286 0.1429  plane waves:     594
 k-point 20 :  -0.2857 0.4286 0.1429  plane waves:     592

 maximum and minimum number of plane-waves per node :       609      576

 maximum number of plane-waves:       609
 maximum index in each direction: 
   IXMAX=    6   IYMAX=    5   IZMAX=    5
   IXMIN=   -6   IYMIN=   -6   IZMIN=   -5


 serial   3D FFT for wavefunctions
 parallel 3D FFT for charge:
    minimum data exchange during FFTs selected (reduces bandwidth)


 total amount of memory used by VASP MPI-rank0    34830. kBytes
=======================================================================

   base      :      30000. kBytes
   nonl-proj :       3544. kBytes
   fftplans  :        117. kBytes
   grid      :        693. kBytes
   one-center:         62. kBytes
   wavefun   :        414. kBytes
 
     INWAV:  cpu time    0.0000: real time    0.0000
 Broyden mixing: mesh for mixing (old mesh)
   NGX = 11   NGY = 11   NGZ = 11
  (NGX  = 36   NGY  = 36   NGZ  = 36)
  gives a total of   1331 points

 initial charge density was supplied:
 charge density of overlapping atoms calculated
 number of electron      13.0000000 magnetization       5.0000000
 keeping initial charge density in first step


--------------------------------------------------------------------------------------------------------


 Maximum index for augmentation-charges          499 (set IRDMAX)


--------------------------------------------------------------------------------------------------------


 First call to EWALD:  gamma=   0.632
 Maximum number of real-space cells 3x 3x 3
 Maximum number of reciprocal cells 3x 3x 3

    FEWALD:  cpu time    0.0040: real time    0.0011


--------------------------------------- Iteration      1(   1)  ---------------------------------------


    POTLOK:  cpu time    0.0040: real time    0.0094
    SETDIJ:  cpu time    0.4480: real time    0.4506
atom =   1  type =  1  l = 2
 
 onsite density matrix
 
spin component  1
 
  0.9024  0.0000  0.0000  0.0000  0.0000
  0.0000  0.9024  0.0000  0.0000  0.0000
  0.0000  0.0000  0.9024  0.0000  0.0000
  0.0000  0.0000  0.0000  0.9024  0.0000
  0.0000  0.0000  0.0000  0.0000  0.9024
 
spin component  2
 
  0.1504  0.0000  0.0000  0.0000  0.0000
  0.0000  0.1504  0.0000  0.0000  0.0000
  0.0000  0.0000  0.1504  0.0000  0.0000
  0.0000  0.0000  0.0000  0.1504  0.0000
  0.0000  0.0000  0.0000  0.0000  0.1504
 
 occupancies and eigenvectors
 
  o =  0.1504  v =  0.0000  0.0000  0.0000  0.0000  0.0000  1.0000  0.0000  0.0000  0.0000  0.0000      0.0000  0.0000  0.0000  0.0000  0.0000  0.0000  0.0000  0.0000  0.0000  0.0000
  o =  0.1504  v =  0.0000  0.0000  0.0000  0.0000  0.0000  0.0000  1.0000  0.0000  0.0000  0.0000      0.0000  0.0000  0.0000  0.0000  0.0000  0.0000  0.0000  0.0000  0.0000  0.0000
  o =  0.1504  v =  0.0000  0.0000  0.0000  0.0000  0.0000  0.0000  0.0000  1.0000  0.0000  0.0000      0.0000  0.0000  0.0000  0.0000  0.0000  0.0000  0.0000  0.0000  0.0000  0.0000
  o =  0.1504  v =  0.0000  0.0000  0.0000  0.0000  0.0000  0.0000  0.0000  0.0000  1.0000  0.0000      0.0000  0.0000  0.0000  0.0000  0.0000  0.0000  0.0000  0.0000  0.0000  0.0000
  o =  0.1504  v =  0.0000  0.0000  0.0000  0.0000  0.0000  0.0000  0.0000  0.0000  0.0000  1.0000      0.0000  0.0000  0.0000  0.0000  0.0000  0.0000  0.0000  0.0000  0.0000  0.0000
  o =  0.9024  v =  1.0000  0.0000  0.0000  0.0000  0.0000  0.0000  0.0000  0.0000  0.0000  0.0000      0.0000  0.0000  0.0000  0.0000  0.0000  0.0000  0.0000  0.0000  0.0000  0.0000
  o =  0.9024  v =  0.0000  1.0000  0.0000  0.0000  0.0000  0.0000  0.0000  0.0000  0.0000  0.0000      0.0000  0.0000  0.0000  0.0000  0.0000  0.0000  0.0000  0.0000  0.0000  0.0000
  o =  0.9024  v =  0.0000  0.0000  1.0000  0.0000  0.0000  0.0000  0.0000  0.0000  0.0000  0.0000      0.0000  0.0000  0.0000  0.0000  0.0000  0.0000  0.0000  0.0000  0.0000  0.0000
  o =  0.9024  v =  0.0000  0.0000  0.0000  1.0000  0.0000  0.0000  0.0000  0.0000  0.0000  0.0000      0.0000  0.0000  0.0000  0.0000  0.0000  0.0000  0.0000  0.0000  0.0000  0.0000
  o =  0.9024  v =  0.0000  0.0000  0.0000  0.0000  1.0000  0.0000  0.0000  0.0000  0.0000  0.0000      0.0000  0.0000  0.0000  0.0000  0.0000  0.0000  0.0000  0.0000  0.0000  0.0000
atom =   2  type =  2  l = 0
 
 onsite density matrix
 
spin component  1
 
  0.8190
 
spin component  2
 
  0.8190
 
 occupancies and eigenvectors
 
  o =  0.8190  v =  1.0000  0.0000      0.0000  0.0000
  o =  0.8190  v =  0.0000  1.0000      0.0000  0.0000
     EDDAV:  cpu time    0.0960: real time    0.0967
       DOS:  cpu time    0.0000: real time    0.0006
    --------------------------------------------
      LOOP:  cpu time    0.5480: real time    0.5573

 eigenvalue-minimisations  :  1440
 total energy-change (2. order) : 0.2077217E+02  (-0.7716556E+03)
 number of electron      13.0000000 magnetization       5.0000000
 augmentation part       13.0000000 magnetization       5.0000000

 Free energy of the ion-electron system (eV)
  ---------------------------------------------------
  alpha Z        PSCENC =        60.06754336
  Ewald energy   TEWEN  =      -778.04565751
  -Hartree energ DENC   =      -165.57864239
  -exchange      EXHF   =         0.00000000
  -V(xc)+E(xc)   XCENC  =        19.44963388
  PAW double counting   =       748.97831746     -725.78165857
  entropy T*S    EENTRO =        -0.00233867
  eigenvalues    EBANDS =        14.67714141
  atomic energy  EATOM  =       847.00783152
  Solvation  Ediel_sol  =         0.00000000
  ---------------------------------------------------
  free energy    TOTEN  =        20.77217049 eV

  energy without entropy =       20.77450916  energy(sigma->0) =       20.77333983


--------------------------------------------------------------------------------------------------------




--------------------------------------- Iteration      1(   2)  ---------------------------------------


     EDDAV:  cpu time    0.1000: real time    0.0978
       DOS:  cpu time    0.0000: real time    0.0011
    --------------------------------------------
      LOOP:  cpu time    0.1000: real time    0.0989

 eigenvalue-minimisations  :  1710
 total energy-change (2. order) :-0.3834861E+02  (-0.3772011E+02)
 number of electron      13.0000000 magnetization       5.0000000
 augmentation part       13.0000000 magnetization       5.0000000

 Free energy of the ion-electron system (eV)
  ---------------------------------------------------
  alpha Z        PSCENC =        60.06754336
  Ewald energy   TEWEN  =      -778.04565751
  -Hartree energ DENC   =      -165.57864239
  -exchange      EXHF   =         0.00000000
  -V(xc)+E(xc)   XCENC  =        19.44963388
  PAW double counting   =       748.97831746     -725.78165857
  entropy T*S    EENTRO =        -0.00279394
  eigenvalues    EBANDS =       -23.67101036
  atomic energy  EATOM  =       847.00783152
  Solvation  Ediel_sol  =         0.00000000
  ---------------------------------------------------
  free energy    TOTEN  =       -17.57643656 eV

  energy without entropy =      -17.57364262  energy(sigma->0) =      -17.57503959


--------------------------------------------------------------------------------------------------------




--------------------------------------- Iteration      1(   3)  ---------------------------------------


     EDDAV:  cpu time    0.1200: real time    0.1190
       DOS:  cpu time    0.0000: real time    0.0006
    --------------------------------------------
      LOOP:  cpu time    0.1200: real time    0.1195

 eigenvalue-minimisations  :  2052
 total energy-change (2. order) :-0.4281676E+00  (-0.4280320E+00)
 number of electron      13.0000000 magnetization       5.0000000
 augmentation part       13.0000000 magnetization       5.0000000

 Free energy of the ion-electron system (eV)
  ---------------------------------------------------
  alpha Z        PSCENC =        60.06754336
  Ewald energy   TEWEN  =      -778.04565751
  -Hartree energ DENC   =      -165.57864239
  -exchange      EXHF   =         0.00000000
  -V(xc)+E(xc)   XCENC  =        19.44963388
  PAW double counting   =       748.97831746     -725.78165857
  entropy T*S    EENTRO =        -0.00294191
  eigenvalues    EBANDS =       -24.09903002
  atomic energy  EATOM  =       847.00783152
  Solvation  Ediel_sol  =         0.00000000
  ---------------------------------------------------
  free energy    TOTEN  =       -18.00460418 eV

  energy without entropy =      -18.00166228  energy(sigma->0) =      -18.00313323


--------------------------------------------------------------------------------------------------------




--------------------------------------- Iteration      1(   4)  ---------------------------------------


     EDDAV:  cpu time    0.1280: real time    0.1294
       DOS:  cpu time    0.0000: real time    0.0006
    --------------------------------------------
      LOOP:  cpu time    0.1280: real time    0.1299

 eigenvalue-minimisations  :  2052
 total energy-change (2. order) :-0.1024347E-02  (-0.1024346E-02)
 number of electron      13.0000000 magnetization       5.0000000
 augmentation part       13.0000000 magnetization       5.0000000

 Free energy of the ion-electron system (eV)
  ---------------------------------------------------
  alpha Z        PSCENC =        60.06754336
  Ewald energy   TEWEN  =      -778.04565751
  -Hartree energ DENC   =      -165.57864239
  -exchange      EXHF   =         0.00000000
  -V(xc)+E(xc)   XCENC  =        19.44963388
  PAW double counting   =       748.97831746     -725.78165857
  entropy T*S    EENTRO =        -0.00294201
  eigenvalues    EBANDS =       -24.10005427
  atomic energy  EATOM  =       847.00783152
  Solvation  Ediel_sol  =         0.00000000
  ---------------------------------------------------
  free energy    TOTEN  =       -18.00562853 eV

  energy without entropy =      -18.00268652  energy(sigma->0) =      -18.00415753


--------------------------------------------------------------------------------------------------------




--------------------------------------- Iteration      1(   5)  ---------------------------------------


     EDDAV:  cpu time    0.1320: real time    0.1316
       DOS:  cpu time    0.0000: real time    0.0006
    CHARGE:  cpu time    0.0080: real time    0.0055
    MIXING:  cpu time    0.0000: real time    0.0002
    --------------------------------------------
      LOOP:  cpu time    0.1400: real time    0.1379

 eigenvalue-minimisations  :  2160
 total energy-change (2. order) :-0.3155237E-06  (-0.3164700E-06)
 number of electron      13.0000028 magnetization       5.0000023
 augmentation part        3.8204458 magnetization       2.9745066

 Broyden mixing:
  rms(total) = 0.13533E+01    rms(broyden)= 0.13531E+01
  rms(prec ) = 0.36631E+01
  weight for this iteration     100.00

 Free energy of the ion-electron system (eV)
  ---------------------------------------------------
  alpha Z        PSCENC =        60.06754336
  Ewald energy   TEWEN  =      -778.04565751
  -Hartree energ DENC   =      -165.57864239
  -exchange      EXHF   =         0.00000000
  -V(xc)+E(xc)   XCENC  =        19.44963388
  PAW double counting   =       748.97831746     -725.78165857
  entropy T*S    EENTRO =        -0.00294201
  eigenvalues    EBANDS =       -24.10005458
  atomic energy  EATOM  =       847.00783152
  Solvation  Ediel_sol  =         0.00000000
  ---------------------------------------------------
  free energy    TOTEN  =       -18.00562884 eV

  energy without entropy =      -18.00268684  energy(sigma->0) =      -18.00415784


--------------------------------------------------------------------------------------------------------




--------------------------------------- Iteration      1(   6)  ---------------------------------------


    POTLOK:  cpu time    0.0040: real time    0.0047
    SETDIJ:  cpu time    0.4440: real time    0.4448
atom =   1  type =  1  l = 2
 
 onsite density matrix
 
spin component  1
 
  1.0020  0.0000 -0.0000 -0.0000 -0.0000
  0.0000  1.0020 -0.0000 -0.0000  0.0000
 -0.0000 -0.0000  1.0188 -0.0000  0.0000
 -0.0000 -0.0000 -0.0000  1.0020 -0.0000
 -0.0000  0.0000  0.0000 -0.0000  1.0188
 
spin component  2
 
 -0.0008 -0.0000 -0.0000 -0.0000  0.0000
 -0.0000 -0.0008 -0.0000 -0.0000  0.0000
 -0.0000 -0.0000  0.0070  0.0000  0.0000
 -0.0000 -0.0000  0.0000 -0.0008  0.0000
  0.0000  0.0000  0.0000  0.0000  0.0070
 
 occupancies and eigenvectors
 
  o = -0.0008  v =  0.0000  0.0000  0.0000  0.0000  0.0000  1.0000  0.0078  0.0000  0.0062 -0.0000      0.0000  0.0000  0.0000  0.0000  0.0000  0.0000  0.0000  0.0000  0.0000  0.0000
  o = -0.0008  v =  0.0000  0.0000  0.0000  0.0000  0.0000 -0.0099  0.7124 -0.0000  0.7017 -0.0000      0.0000  0.0000  0.0000  0.0000  0.0000  0.0000  0.0000  0.0000  0.0000  0.0000
  o = -0.0008  v =  0.0000  0.0000  0.0000  0.0000  0.0000 -0.0010  0.7017  0.0000 -0.7125 -0.0000      0.0000  0.0000  0.0000  0.0000  0.0000  0.0000  0.0000  0.0000  0.0000  0.0000
  o =  0.0070  v =  0.0000  0.0000  0.0000  0.0000  0.0000  0.0000  0.0000 -0.9998 -0.0000  0.0211      0.0000  0.0000  0.0000  0.0000  0.0000  0.0000  0.0000  0.0000  0.0000  0.0000
  o =  0.0070  v =  0.0000  0.0000  0.0000  0.0000  0.0000  0.0000  0.0000  0.0211  0.0000  0.9998      0.0000  0.0000  0.0000  0.0000  0.0000  0.0000  0.0000  0.0000  0.0000  0.0000
  o =  1.0020  v =  1.0000  0.0000  0.0000  0.0000  0.0000  0.0000  0.0000  0.0000  0.0000  0.0000      0.0000  0.0000  0.0000  0.0000  0.0000  0.0000  0.0000  0.0000  0.0000  0.0000
  o =  1.0020  v =  0.0000  0.9695 -0.0000 -0.2449 -0.0000  0.0000  0.0000  0.0000  0.0000  0.0000      0.0000  0.0000  0.0000  0.0000  0.0000  0.0000  0.0000  0.0000  0.0000  0.0000
  o =  1.0020  v =  0.0000 -0.2449 -0.0000 -0.9695  0.0000  0.0000  0.0000  0.0000  0.0000  0.0000      0.0000  0.0000  0.0000  0.0000  0.0000  0.0000  0.0000  0.0000  0.0000  0.0000
  o =  1.0188  v =  0.0000 -0.0000 -0.1863 -0.0000 -0.9825  0.0000  0.0000  0.0000  0.0000  0.0000      0.0000  0.0000  0.0000  0.0000  0.0000  0.0000  0.0000  0.0000  0.0000  0.0000
  o =  1.0188  v =  0.0000 -0.0000  0.9825 -0.0000 -0.1863  0.0000  0.0000  0.0000  0.0000  0.0000      0.0000  0.0000  0.0000  0.0000  0.0000  0.0000  0.0000  0.0000  0.0000  0.0000
atom =   2  type =  2  l = 0
 
 onsite density matrix
 
spin component  1
 
  0.8323
 
spin component  2
 
  0.7999
 
 occupancies and eigenvectors
 
  o =  0.7999  v =  0.0000  1.0000      0.0000  0.0000
  o =  0.8323  v =  1.0000  0.0000      0.0000  0.0000
     EDDAV:  cpu time    0.0960: real time    0.0974
       DOS:  cpu time    0.0000: real time    0.0005
    CHARGE:  cpu time    0.0080: real time    0.0052
    MIXING:  cpu time    0.0000: real time    0.0003
    --------------------------------------------
      LOOP:  cpu time    0.5520: real time    0.5529

 eigenvalue-minimisations  :  1764
 total energy-change (2. order) : 0.1786468E+01  (-0.2766144E+01)
 number of electron      13.0000027 magnetization       5.0000019
 augmentation part        3.9819066 magnetization       3.2753285

 Broyden mixing:
  rms(total) = 0.16526E+01    rms(broyden)= 0.16525E+01
  rms(prec ) = 0.18800E+01
  weight for this iteration     100.00

 eigenvalues of (default mixing * dielectric matrix)
  average eigenvalue GAMMA=   0.2552
  0.2552

 Free energy of the ion-electron system (eV)
  ---------------------------------------------------
  alpha Z        PSCENC =        60.06754336
  Ewald energy   TEWEN  =      -778.04565751
  -Hartree energ DENC   =      -175.53154627
  -exchange      EXHF   =         0.00000000
  -V(xc)+E(xc)   XCENC  =        22.23242408
  PAW double counting   =       827.61056124     -801.84157754
  entropy T*S    EENTRO =        -0.00002743
  eigenvalues    EBANDS =       -17.71871254
  atomic energy  EATOM  =       847.00783152
  Solvation  Ediel_sol  =         0.00000000
  ---------------------------------------------------
  free energy    TOTEN  =       -16.21916109 eV

  energy without entropy =      -16.21913367  energy(sigma->0) =      -16.21914738


--------------------------------------------------------------------------------------------------------




--------------------------------------- Iteration      1(   7)  ---------------------------------------


    POTLOK:  cpu time    0.0040: real time    0.0047
    SETDIJ:  cpu time    0.4440: real time    0.4439
atom =   1  type =  1  l = 2
 
 onsite density matrix
 
spin component  1
 
  0.9528 -0.0000 -0.0000 -0.0000  0.0000
 -0.0000  0.9528 -0.0000  0.0000 -0.0000
 -0.0000 -0.0000  0.9658  0.0000  0.0000
 -0.0000  0.0000  0.0000  0.9528  0.0000
  0.0000 -0.0000  0.0000  0.0000  0.9658
 
spin component  2
 
  0.0386  0.0000 -0.0000 -0.0000 -0.0000
  0.0000  0.0386  0.0000 -0.0000  0.0000
 -0.0000  0.0000  0.0694  0.0000 -0.0000
 -0.0000 -0.0000  0.0000  0.0386  0.0000
 -0.0000  0.0000 -0.0000  0.0000  0.0694
 
 occupancies and eigenvectors
 
  o =  0.0386  v =  0.0000  0.0000  0.0000  0.0000  0.0000  1.0000 -0.0016  0.0000  0.0009  0.0000      0.0000  0.0000  0.0000  0.0000  0.0000  0.0000  0.0000  0.0000  0.0000  0.0000
  o =  0.0386  v =  0.0000  0.0000  0.0000  0.0000  0.0000  0.0016  0.9997 -0.0000 -0.0249 -0.0000      0.0000  0.0000  0.0000  0.0000  0.0000  0.0000  0.0000  0.0000  0.0000  0.0000
  o =  0.0386  v =  0.0000  0.0000  0.0000  0.0000  0.0000  0.0008 -0.0249  0.0000 -0.9997  0.0000      0.0000  0.0000  0.0000  0.0000  0.0000  0.0000  0.0000  0.0000  0.0000  0.0000
  o =  0.0694  v =  0.0000  0.0000  0.0000  0.0000  0.0000  0.0000 -0.0000 -0.3116 -0.0000 -0.9502      0.0000  0.0000  0.0000  0.0000  0.0000  0.0000  0.0000  0.0000  0.0000  0.0000
  o =  0.0694  v =  0.0000  0.0000  0.0000  0.0000  0.0000 -0.0000  0.0000  0.9502 -0.0000 -0.3116      0.0000  0.0000  0.0000  0.0000  0.0000  0.0000  0.0000  0.0000  0.0000  0.0000
  o =  0.9528  v =  0.0000 -0.1055  0.0000 -0.9944  0.0000  0.0000  0.0000  0.0000  0.0000  0.0000      0.0000  0.0000  0.0000  0.0000  0.0000  0.0000  0.0000  0.0000  0.0000  0.0000
  o =  0.9528  v =  0.0000 -0.9944 -0.0000  0.1055 -0.0000  0.0000  0.0000  0.0000  0.0000  0.0000      0.0000  0.0000  0.0000  0.0000  0.0000  0.0000  0.0000  0.0000  0.0000  0.0000
  o =  0.9528  v =  1.0000  0.0000  0.0000  0.0000  0.0000  0.0000  0.0000  0.0000  0.0000  0.0000      0.0000  0.0000  0.0000  0.0000  0.0000  0.0000  0.0000  0.0000  0.0000  0.0000
  o =  0.9658  v =  0.0000 -0.0000 -0.1580  0.0000  0.9874  0.0000  0.0000  0.0000  0.0000  0.0000      0.0000  0.0000  0.0000  0.0000  0.0000  0.0000  0.0000  0.0000  0.0000  0.0000
  o =  0.9658  v =  0.0000 -0.0000  0.9874  0.0000  0.1580  0.0000  0.0000  0.0000  0.0000  0.0000      0.0000  0.0000  0.0000  0.0000  0.0000  0.0000  0.0000  0.0000  0.0000  0.0000
atom =   2  type =  2  l = 0
 
 onsite density matrix
 
spin component  1
 
  0.8149
 
spin component  2
 
  0.7960
 
 occupancies and eigenvectors
 
  o =  0.7960  v =  0.0000  1.0000      0.0000  0.0000
  o =  0.8149  v =  1.0000  0.0000      0.0000  0.0000
     EDDAV:  cpu time    0.0880: real time    0.0891
       DOS:  cpu time    0.0000: real time    0.0005
    CHARGE:  cpu time    0.0080: real time    0.0052
    MIXING:  cpu time    0.0000: real time    0.0003
    --------------------------------------------
      LOOP:  cpu time    0.5440: real time    0.5438

 eigenvalue-minimisations  :  1620
 total energy-change (2. order) : 0.1415246E+00  (-0.9631158E-01)
 number of electron      13.0000027 magnetization       5.0000019
 augmentation part        3.9797550 magnetization       3.2620311

 Broyden mixing:
  rms(total) = 0.90591E+00    rms(broyden)= 0.90591E+00
  rms(prec ) = 0.97398E+00
  weight for this iteration     100.00

 eigenvalues of (default mixing * dielectric matrix)
  average eigenvalue GAMMA=   0.7174
  0.7174  0.7174

 Free energy of the ion-electron system (eV)
  ---------------------------------------------------
  alpha Z        PSCENC =        60.06754336
  Ewald energy   TEWEN  =      -778.04565751
  -Hartree energ DENC   =      -172.58142344
  -exchange      EXHF   =         0.00000000
  -V(xc)+E(xc)   XCENC  =        22.03771337
  PAW double counting   =       881.24465309     -857.52911648
  entropy T*S    EENTRO =        -0.00000248
  eigenvalues    EBANDS =       -18.27917797
  atomic energy  EATOM  =       847.00783152
  Solvation  Ediel_sol  =         0.00000000
  ---------------------------------------------------
  free energy    TOTEN  =       -16.07763654 eV

  energy without entropy =      -16.07763406  energy(sigma->0) =      -16.07763530


--------------------------------------------------------------------------------------------------------




--------------------------------------- Iteration      1(   8)  ---------------------------------------


    POTLOK:  cpu time    0.0040: real time    0.0045
    SETDIJ:  cpu time    0.4440: real time    0.4449
atom =   1  type =  1  l = 2
 
 onsite density matrix
 
spin component  1
 
  0.9606 -0.0000  0.0000 -0.0000 -0.0000
 -0.0000  0.9606 -0.0000  0.0000  0.0000
  0.0000 -0.0000  0.9884 -0.0000 -0.0000
 -0.0000  0.0000 -0.0000  0.9606 -0.0000
 -0.0000  0.0000 -0.0000 -0.0000  0.9884
 
spin component  2
 
  0.0193  0.0000 -0.0000  0.0000  0.0000
  0.0000  0.0193  0.0000 -0.0000 -0.0000
 -0.0000  0.0000  0.0510  0.0000  0.0000
  0.0000 -0.0000  0.0000  0.0193  0.0000
  0.0000 -0.0000  0.0000  0.0000  0.0510
 
 occupancies and eigenvectors
 
  o =  0.0193  v =  0.0000  0.0000  0.0000  0.0000  0.0000  0.0012 -0.0058  0.0000 -1.0000  0.0000      0.0000  0.0000  0.0000  0.0000  0.0000  0.0000  0.0000  0.0000  0.0000  0.0000
  o =  0.0193  v =  0.0000  0.0000  0.0000  0.0000  0.0000  0.0021 -1.0000 -0.0000  0.0058 -0.0000      0.0000  0.0000  0.0000  0.0000  0.0000  0.0000  0.0000  0.0000  0.0000  0.0000
  o =  0.0193  v =  0.0000  0.0000  0.0000  0.0000  0.0000  1.0000  0.0021  0.0000  0.0012 -0.0000      0.0000  0.0000  0.0000  0.0000  0.0000  0.0000  0.0000  0.0000  0.0000  0.0000
  o =  0.0510  v =  0.0000  0.0000  0.0000  0.0000  0.0000 -0.0000  0.0000  0.0094 -0.0000 -1.0000      0.0000  0.0000  0.0000  0.0000  0.0000  0.0000  0.0000  0.0000  0.0000  0.0000
  o =  0.0510  v =  0.0000  0.0000  0.0000  0.0000  0.0000  0.0000  0.0000 -1.0000 -0.0000 -0.0094      0.0000  0.0000  0.0000  0.0000  0.0000  0.0000  0.0000  0.0000  0.0000  0.0000
  o =  0.9606  v =  0.0000 -0.9963 -0.0000 -0.0861  0.0000  0.0000  0.0000  0.0000  0.0000  0.0000      0.0000  0.0000  0.0000  0.0000  0.0000  0.0000  0.0000  0.0000  0.0000  0.0000
  o =  0.9606  v =  0.0000  0.0861 -0.0000 -0.9963 -0.0000  0.0000  0.0000  0.0000  0.0000  0.0000      0.0000  0.0000  0.0000  0.0000  0.0000  0.0000  0.0000  0.0000  0.0000  0.0000
  o =  0.9606  v =  1.0000  0.0000  0.0000  0.0000  0.0000  0.0000  0.0000  0.0000  0.0000  0.0000      0.0000  0.0000  0.0000  0.0000  0.0000  0.0000  0.0000  0.0000  0.0000  0.0000
  o =  0.9884  v =  0.0000  0.0000 -0.9999  0.0000 -0.0101  0.0000  0.0000  0.0000  0.0000  0.0000      0.0000  0.0000  0.0000  0.0000  0.0000  0.0000  0.0000  0.0000  0.0000  0.0000
  o =  0.9884  v =  0.0000 -0.0000  0.0101  0.0000 -0.9999  0.0000  0.0000  0.0000  0.0000  0.0000      0.0000  0.0000  0.0000  0.0000  0.0000  0.0000  0.0000  0.0000  0.0000  0.0000
atom =   2  type =  2  l = 0
 
 onsite density matrix
 
spin component  1
 
  0.8095
 
spin component  2
 
  0.7866
 
 occupancies and eigenvectors
 
  o =  0.7866  v =  0.0000  1.0000      0.0000  0.0000
  o =  0.8095  v =  1.0000  0.0000      0.0000  0.0000
     EDDAV:  cpu time    0.1360: real time    0.1355
       DOS:  cpu time    0.0000: real time    0.0015
    CHARGE:  cpu time    0.0080: real time    0.0062
    MIXING:  cpu time    0.0000: real time    0.0003
    --------------------------------------------
      LOOP:  cpu time    0.5920: real time    0.5929

 eigenvalue-minimisations  :  2124
 total energy-change (2. order) : 0.1769463E-01  (-0.5869355E-02)
 number of electron      13.0000027 magnetization       5.0000019
 augmentation part        3.9673909 magnetization       3.2477018

 Broyden mixing:
  rms(total) = 0.48097E+00    rms(broyden)= 0.48097E+00
  rms(prec ) = 0.52776E+00
  weight for this iteration     100.00

 eigenvalues of (default mixing * dielectric matrix)
  average eigenvalue GAMMA=   1.1885
  2.0684  0.8886  0.6085

 Free energy of the ion-electron system (eV)
  ---------------------------------------------------
  alpha Z        PSCENC =        60.06754336
  Ewald energy   TEWEN  =      -778.04565751
  -Hartree energ DENC   =      -172.42034315
  -exchange      EXHF   =         0.00000000
  -V(xc)+E(xc)   XCENC  =        21.96324512
  PAW double counting   =       941.69882722     -918.28564657
  entropy T*S    EENTRO =        -0.00000204
  eigenvalues    EBANDS =       -18.04573985
  atomic energy  EATOM  =       847.00783152
  Solvation  Ediel_sol  =         0.00000000
  ---------------------------------------------------
  free energy    TOTEN  =       -16.05994191 eV

  energy without entropy =      -16.05993986  energy(sigma->0) =      -16.05994088


--------------------------------------------------------------------------------------------------------




--------------------------------------- Iteration      1(   9)  ---------------------------------------


    POTLOK:  cpu time    0.0040: real time    0.0047
    SETDIJ:  cpu time    0.4440: real time    0.4457
atom =   1  type =  1  l = 2
 
 onsite density matrix
 
spin component  1
 
  0.9467 -0.0000  0.0000  0.0000  0.0000
 -0.0000  0.9467  0.0000 -0.0000  0.0000
  0.0000  0.0000  0.9838  0.0000  0.0000
  0.0000 -0.0000  0.0000  0.9467  0.0000
  0.0000  0.0000  0.0000  0.0000  0.9838
 
spin component  2
 
  0.0176 -0.0000  0.0000 -0.0000 -0.0000
 -0.0000  0.0176  0.0000  0.0000 -0.0000
  0.0000  0.0000  0.0619 -0.0000 -0.0000
 -0.0000  0.0000 -0.0000  0.0176 -0.0000
 -0.0000 -0.0000 -0.0000 -0.0000  0.0619
 
 occupancies and eigenvectors
 
  o =  0.0176  v =  0.0000  0.0000  0.0000  0.0000  0.0000 -0.0001 -0.9998  0.0000  0.0205 -0.0000      0.0000  0.0000  0.0000  0.0000  0.0000  0.0000  0.0000  0.0000  0.0000  0.0000
  o =  0.0176  v =  0.0000  0.0000  0.0000  0.0000  0.0000 -0.0047 -0.0205 -0.0000 -0.9998 -0.0000      0.0000  0.0000  0.0000  0.0000  0.0000  0.0000  0.0000  0.0000  0.0000  0.0000
  o =  0.0176  v =  0.0000  0.0000  0.0000  0.0000  0.0000  1.0000 -0.0002 -0.0000 -0.0047  0.0000      0.0000  0.0000  0.0000  0.0000  0.0000  0.0000  0.0000  0.0000  0.0000  0.0000
  o =  0.0619  v =  0.0000  0.0000  0.0000  0.0000  0.0000 -0.0000  0.0000 -1.0000  0.0000 -0.0010      0.0000  0.0000  0.0000  0.0000  0.0000  0.0000  0.0000  0.0000  0.0000  0.0000
  o =  0.0619  v =  0.0000  0.0000  0.0000  0.0000  0.0000  0.0000  0.0000  0.0010  0.0000 -1.0000      0.0000  0.0000  0.0000  0.0000  0.0000  0.0000  0.0000  0.0000  0.0000  0.0000
  o =  0.9467  v =  1.0000  0.0000  0.0000  0.0000  0.0000  0.0000  0.0000  0.0000  0.0000  0.0000      0.0000  0.0000  0.0000  0.0000  0.0000  0.0000  0.0000  0.0000  0.0000  0.0000
  o =  0.9467  v =  0.0000 -0.2493 -0.0000  0.9684  0.0000  0.0000  0.0000  0.0000  0.0000  0.0000      0.0000  0.0000  0.0000  0.0000  0.0000  0.0000  0.0000  0.0000  0.0000  0.0000
  o =  0.9467  v =  0.0000  0.9684 -0.0000  0.2493  0.0000  0.0000  0.0000  0.0000  0.0000  0.0000      0.0000  0.0000  0.0000  0.0000  0.0000  0.0000  0.0000  0.0000  0.0000  0.0000
  o =  0.9838  v =  0.0000 -0.0000  0.0035 -0.0000  1.0000  0.0000  0.0000  0.0000  0.0000  0.0000      0.0000  0.0000  0.0000  0.0000  0.0000  0.0000  0.0000  0.0000  0.0000  0.0000
  o =  0.9838  v =  0.0000 -0.0000 -1.0000 -0.0000  0.0035  0.0000  0.0000  0.0000  0.0000  0.0000      0.0000  0.0000  0.0000  0.0000  0.0000  0.0000  0.0000  0.0000  0.0000  0.0000
atom =   2  type =  2  l = 0
 
 onsite density matrix
 
spin component  1
 
  0.7964
 
spin component  2
 
  0.7770
 
 occupancies and eigenvectors
 
  o =  0.7770  v =  0.0000  1.0000      0.0000  0.0000
  o =  0.7964  v =  1.0000  0.0000      0.0000  0.0000
     EDDAV:  cpu time    0.1320: real time    0.1309
       DOS:  cpu time    0.0000: real time    0.0006
    CHARGE:  cpu time    0.0080: real time    0.0055
    MIXING:  cpu time    0.0000: real time    0.0004
    --------------------------------------------
      LOOP:  cpu time    0.5880: real time    0.5876

 eigenvalue-minimisations  :  2196
 total energy-change (2. order) : 0.1058832E-01  (-0.1617538E-02)
 number of electron      13.0000027 magnetization       5.0000019
 augmentation part        3.9628274 magnetization       3.2402436

 Broyden mixing:
  rms(total) = 0.27759E-01    rms(broyden)= 0.27755E-01
  rms(prec ) = 0.44603E-01
  weight for this iteration     100.00

 eigenvalues of (default mixing * dielectric matrix)
  average eigenvalue GAMMA=   1.1369
  2.2812  0.8763  0.6951  0.6951

 Free energy of the ion-electron system (eV)
  ---------------------------------------------------
  alpha Z        PSCENC =        60.06754336
  Ewald energy   TEWEN  =      -778.04565751
  -Hartree energ DENC   =      -172.32825680
  -exchange      EXHF   =         0.00000000
  -V(xc)+E(xc)   XCENC  =        21.97303815
  PAW double counting   =      1014.05157951     -991.58909273
  entropy T*S    EENTRO =        -0.00000505
  eigenvalues    EBANDS =       -17.18633404
  atomic energy  EATOM  =       847.00783152
  Solvation  Ediel_sol  =         0.00000000
  ---------------------------------------------------
  free energy    TOTEN  =       -16.04935358 eV

  energy without entropy =      -16.04934854  energy(sigma->0) =      -16.04935106


--------------------------------------------------------------------------------------------------------




--------------------------------------- Iteration      1(  10)  ---------------------------------------


    POTLOK:  cpu time    0.0040: real time    0.0047
    SETDIJ:  cpu time    0.4440: real time    0.4446
atom =   1  type =  1  l = 2
 
 onsite density matrix
 
spin component  1
 
  0.9475 -0.0000  0.0000 -0.0000 -0.0000
 -0.0000  0.9475  0.0000  0.0000 -0.0000
  0.0000  0.0000  0.9836 -0.0000 -0.0000
 -0.0000  0.0000 -0.0000  0.9475 -0.0000
 -0.0000 -0.0000 -0.0000 -0.0000  0.9836
 
spin component  2
 
  0.0166 -0.0000 -0.0000  0.0000  0.0000
 -0.0000  0.0166  0.0000 -0.0000  0.0000
 -0.0000  0.0000  0.0632  0.0000  0.0000
  0.0000 -0.0000  0.0000  0.0166  0.0000
  0.0000  0.0000  0.0000  0.0000  0.0632
 
 occupancies and eigenvectors
 
  o =  0.0166  v =  0.0000  0.0000  0.0000  0.0000  0.0000  1.0000  0.0015  0.0000 -0.0002 -0.0000      0.0000  0.0000  0.0000  0.0000  0.0000  0.0000  0.0000  0.0000  0.0000  0.0000
  o =  0.0166  v =  0.0000  0.0000  0.0000  0.0000  0.0000  0.0015 -0.9929  0.0000  0.1191  0.0000      0.0000  0.0000  0.0000  0.0000  0.0000  0.0000  0.0000  0.0000  0.0000  0.0000
  o =  0.0166  v =  0.0000  0.0000  0.0000  0.0000  0.0000 -0.0000 -0.1191 -0.0000 -0.9929 -0.0000      0.0000  0.0000  0.0000  0.0000  0.0000  0.0000  0.0000  0.0000  0.0000  0.0000
  o =  0.0632  v =  0.0000  0.0000  0.0000  0.0000  0.0000  0.0000  0.0000 -0.0020 -0.0000  1.0000      0.0000  0.0000  0.0000  0.0000  0.0000  0.0000  0.0000  0.0000  0.0000  0.0000
  o =  0.0632  v =  0.0000  0.0000  0.0000  0.0000  0.0000 -0.0000  0.0000  1.0000 -0.0000  0.0020      0.0000  0.0000  0.0000  0.0000  0.0000  0.0000  0.0000  0.0000  0.0000  0.0000
  o =  0.9475  v =  0.0000  0.0671  0.0000  0.9977 -0.0000  0.0000  0.0000  0.0000  0.0000  0.0000      0.0000  0.0000  0.0000  0.0000  0.0000  0.0000  0.0000  0.0000  0.0000  0.0000
  o =  0.9475  v =  0.0000  0.9977  0.0000 -0.0671  0.0000  0.0000  0.0000  0.0000  0.0000  0.0000      0.0000  0.0000  0.0000  0.0000  0.0000  0.0000  0.0000  0.0000  0.0000  0.0000
  o =  0.9475  v =  1.0000  0.0000  0.0000  0.0000  0.0000  0.0000  0.0000  0.0000  0.0000  0.0000      0.0000  0.0000  0.0000  0.0000  0.0000  0.0000  0.0000  0.0000  0.0000  0.0000
  o =  0.9836  v =  0.0000  0.0000 -1.0000  0.0000  0.0011  0.0000  0.0000  0.0000  0.0000  0.0000      0.0000  0.0000  0.0000  0.0000  0.0000  0.0000  0.0000  0.0000  0.0000  0.0000
  o =  0.9836  v =  0.0000  0.0000 -0.0011 -0.0000 -1.0000  0.0000  0.0000  0.0000  0.0000  0.0000      0.0000  0.0000  0.0000  0.0000  0.0000  0.0000  0.0000  0.0000  0.0000  0.0000
atom =   2  type =  2  l = 0
 
 onsite density matrix
 
spin component  1
 
  0.7959
 
spin component  2
 
  0.7746
 
 occupancies and eigenvectors
 
  o =  0.7746  v =  0.0000  1.0000      0.0000  0.0000
  o =  0.7959  v =  1.0000  0.0000      0.0000  0.0000
     EDDAV:  cpu time    0.1200: real time    0.1187
       DOS:  cpu time    0.0000: real time    0.0005
    CHARGE:  cpu time    0.0040: real time    0.0053
    MIXING:  cpu time    0.0000: real time    0.0003
    --------------------------------------------
      LOOP:  cpu time    0.5720: real time    0.5741

 eigenvalue-minimisations  :  1962
 total energy-change (2. order) : 0.6486843E-04  (-0.1462266E-03)
 number of electron      13.0000027 magnetization       5.0000019
 augmentation part        3.9666262 magnetization       3.2435033

 Broyden mixing:
  rms(total) = 0.15088E-01    rms(broyden)= 0.15087E-01
  rms(prec ) = 0.20608E-01
  weight for this iteration     100.00

 eigenvalues of (default mixing * dielectric matrix)
  average eigenvalue GAMMA=   1.1132
  2.3879  0.9156  0.9156  0.6338  0.7133

 Free energy of the ion-electron system (eV)
  ---------------------------------------------------
  alpha Z        PSCENC =        60.06754336
  Ewald energy   TEWEN  =      -778.04565751
  -Hartree energ DENC   =      -172.21159388
  -exchange      EXHF   =         0.00000000
  -V(xc)+E(xc)   XCENC  =        21.99449180
  PAW double counting   =      1013.70419820     -991.22583969
  entropy T*S    EENTRO =        -0.00000352
  eigenvalues    EBANDS =       -17.34025900
  atomic energy  EATOM  =       847.00783152
  Solvation  Ediel_sol  =         0.00000000
  ---------------------------------------------------
  free energy    TOTEN  =       -16.04928871 eV

  energy without entropy =      -16.04928520  energy(sigma->0) =      -16.04928696


--------------------------------------------------------------------------------------------------------




--------------------------------------- Iteration      1(  11)  ---------------------------------------


    POTLOK:  cpu time    0.0040: real time    0.0045
    SETDIJ:  cpu time    0.4440: real time    0.4447
atom =   1  type =  1  l = 2
 
 onsite density matrix
 
spin component  1
 
  0.9475  0.0000 -0.0000 -0.0000 -0.0000
  0.0000  0.9475  0.0000 -0.0000 -0.0000
 -0.0000  0.0000  0.9849 -0.0000  0.0000
 -0.0000 -0.0000 -0.0000  0.9475  0.0000
 -0.0000 -0.0000  0.0000  0.0000  0.9849
 
spin component  2
 
  0.0165 -0.0000 -0.0000 -0.0000  0.0000
 -0.0000  0.0165 -0.0000  0.0000  0.0000
 -0.0000 -0.0000  0.0634  0.0000 -0.0000
 -0.0000  0.0000  0.0000  0.0165 -0.0000
  0.0000  0.0000 -0.0000 -0.0000  0.0634
 
 occupancies and eigenvectors
 
  o =  0.0165  v =  0.0000  0.0000  0.0000  0.0000  0.0000  0.0024  0.9967  0.0000 -0.0814 -0.0000      0.0000  0.0000  0.0000  0.0000  0.0000  0.0000  0.0000  0.0000  0.0000  0.0000
  o =  0.0165  v =  0.0000  0.0000  0.0000  0.0000  0.0000  0.0021  0.0814  0.0000  0.9967  0.0000      0.0000  0.0000  0.0000  0.0000  0.0000  0.0000  0.0000  0.0000  0.0000  0.0000
  o =  0.0165  v =  0.0000  0.0000  0.0000  0.0000  0.0000  1.0000 -0.0025  0.0000 -0.0019 -0.0000      0.0000  0.0000  0.0000  0.0000  0.0000  0.0000  0.0000  0.0000  0.0000  0.0000
  o =  0.0634  v =  0.0000  0.0000  0.0000  0.0000  0.0000 -0.0000 -0.0000  1.0000 -0.0000  0.0004      0.0000  0.0000  0.0000  0.0000  0.0000  0.0000  0.0000  0.0000  0.0000  0.0000
  o =  0.0634  v =  0.0000  0.0000  0.0000  0.0000  0.0000  0.0000  0.0000 -0.0004 -0.0000  1.0000      0.0000  0.0000  0.0000  0.0000  0.0000  0.0000  0.0000  0.0000  0.0000  0.0000
  o =  0.9475  v =  1.0000  0.0000  0.0000  0.0000  0.0000  0.0000  0.0000  0.0000  0.0000  0.0000      0.0000  0.0000  0.0000  0.0000  0.0000  0.0000  0.0000  0.0000  0.0000  0.0000
  o =  0.9475  v =  0.0000 -0.0565 -0.0000 -0.9984  0.0000  0.0000  0.0000  0.0000  0.0000  0.0000      0.0000  0.0000  0.0000  0.0000  0.0000  0.0000  0.0000  0.0000  0.0000  0.0000
  o =  0.9475  v =  0.0000 -0.9984  0.0000  0.0565  0.0000  0.0000  0.0000  0.0000  0.0000  0.0000      0.0000  0.0000  0.0000  0.0000  0.0000  0.0000  0.0000  0.0000  0.0000  0.0000
  o =  0.9849  v =  0.0000  0.0000 -0.0186  0.0000  0.9998  0.0000  0.0000  0.0000  0.0000  0.0000      0.0000  0.0000  0.0000  0.0000  0.0000  0.0000  0.0000  0.0000  0.0000  0.0000
  o =  0.9849  v =  0.0000 -0.0000 -0.9998  0.0000 -0.0186  0.0000  0.0000  0.0000  0.0000  0.0000      0.0000  0.0000  0.0000  0.0000  0.0000  0.0000  0.0000  0.0000  0.0000  0.0000
atom =   2  type =  2  l = 0
 
 onsite density matrix
 
spin component  1
 
  0.7938
 
spin component  2
 
  0.7735
 
 occupancies and eigenvectors
 
  o =  0.7735  v =  0.0000  1.0000      0.0000  0.0000
  o =  0.7938  v =  1.0000  0.0000      0.0000  0.0000
     EDDAV:  cpu time    0.1160: real time    0.1138
       DOS:  cpu time    0.0000: real time    0.0005
    CHARGE:  cpu time    0.0040: real time    0.0052
    MIXING:  cpu time    0.0000: real time    0.0004
    --------------------------------------------
      LOOP:  cpu time    0.5680: real time    0.5691

 eigenvalue-minimisations  :  1998
 total energy-change (2. order) :-0.4250574E-04  (-0.1371802E-04)
 number of electron      13.0000027 magnetization       5.0000019
 augmentation part        3.9677497 magnetization       3.2443509

 Broyden mixing:
  rms(total) = 0.56422E-02    rms(broyden)= 0.56420E-02
  rms(prec ) = 0.72687E-02
  weight for this iteration     100.00

 eigenvalues of (default mixing * dielectric matrix)
  average eigenvalue GAMMA=   1.1899
  2.4660  1.6226  0.9069  0.8087  0.7172  0.6179

 Free energy of the ion-electron system (eV)
  ---------------------------------------------------
  alpha Z        PSCENC =        60.06754336
  Ewald energy   TEWEN  =      -778.04565751
  -Hartree energ DENC   =      -172.13590235
  -exchange      EXHF   =         0.00000000
  -V(xc)+E(xc)   XCENC  =        21.99596302
  PAW double counting   =      1014.34722925     -991.86912306
  entropy T*S    EENTRO =        -0.00000274
  eigenvalues    EBANDS =       -17.41721270
  atomic energy  EATOM  =       847.00783152
  Solvation  Ediel_sol  =         0.00000000
  ---------------------------------------------------
  free energy    TOTEN  =       -16.04933122 eV

  energy without entropy =      -16.04932848  energy(sigma->0) =      -16.04932985


--------------------------------------------------------------------------------------------------------




--------------------------------------- Iteration      1(  12)  ---------------------------------------


    POTLOK:  cpu time    0.0040: real time    0.0045
    SETDIJ:  cpu time    0.4480: real time    0.4448
atom =   1  type =  1  l = 2
 
 onsite density matrix
 
spin component  1
 
  0.9474 -0.0000  0.0000 -0.0000  0.0000
 -0.0000  0.9474 -0.0000 -0.0000  0.0000
  0.0000 -0.0000  0.9847 -0.0000  0.0000
 -0.0000 -0.0000 -0.0000  0.9474 -0.0000
  0.0000  0.0000  0.0000 -0.0000  0.9847
 
spin component  2
 
  0.0167  0.0000 -0.0000 -0.0000 -0.0000
  0.0000  0.0167 -0.0000  0.0000 -0.0000
 -0.0000 -0.0000  0.0642 -0.0000  0.0000
 -0.0000  0.0000 -0.0000  0.0167  0.0000
 -0.0000 -0.0000  0.0000  0.0000  0.0642
 
 occupancies and eigenvectors
 
  o =  0.0167  v =  0.0000  0.0000  0.0000  0.0000  0.0000 -0.0016  0.8822 -0.0000 -0.4709  0.0000      0.0000  0.0000  0.0000  0.0000  0.0000  0.0000  0.0000  0.0000  0.0000  0.0000
  o =  0.0167  v =  0.0000  0.0000  0.0000  0.0000  0.0000 -0.0022 -0.4709  0.0000 -0.8822 -0.0000      0.0000  0.0000  0.0000  0.0000  0.0000  0.0000  0.0000  0.0000  0.0000  0.0000
  o =  0.0167  v =  0.0000  0.0000  0.0000  0.0000  0.0000  1.0000  0.0003  0.0000 -0.0027  0.0000      0.0000  0.0000  0.0000  0.0000  0.0000  0.0000  0.0000  0.0000  0.0000  0.0000
  o =  0.0642  v =  0.0000  0.0000  0.0000  0.0000  0.0000 -0.0000  0.0000  1.0000  0.0000 -0.0029      0.0000  0.0000  0.0000  0.0000  0.0000  0.0000  0.0000  0.0000  0.0000  0.0000
  o =  0.0642  v =  0.0000  0.0000  0.0000  0.0000  0.0000  0.0000  0.0000 -0.0029 -0.0000 -1.0000      0.0000  0.0000  0.0000  0.0000  0.0000  0.0000  0.0000  0.0000  0.0000  0.0000
  o =  0.9474  v =  0.0000 -0.0233  0.0000 -0.9997 -0.0000  0.0000  0.0000  0.0000  0.0000  0.0000      0.0000  0.0000  0.0000  0.0000  0.0000  0.0000  0.0000  0.0000  0.0000  0.0000
  o =  0.9474  v =  0.0000  0.9997  0.0000 -0.0233  0.0000  0.0000  0.0000  0.0000  0.0000  0.0000      0.0000  0.0000  0.0000  0.0000  0.0000  0.0000  0.0000  0.0000  0.0000  0.0000
  o =  0.9474  v =  1.0000  0.0000  0.0000  0.0000  0.0000  0.0000  0.0000  0.0000  0.0000  0.0000      0.0000  0.0000  0.0000  0.0000  0.0000  0.0000  0.0000  0.0000  0.0000  0.0000
  o =  0.9847  v =  0.0000  0.0000  0.0186  0.0000 -0.9998  0.0000  0.0000  0.0000  0.0000  0.0000      0.0000  0.0000  0.0000  0.0000  0.0000  0.0000  0.0000  0.0000  0.0000  0.0000
  o =  0.9847  v =  0.0000 -0.0000  0.9998  0.0000  0.0186  0.0000  0.0000  0.0000  0.0000  0.0000      0.0000  0.0000  0.0000  0.0000  0.0000  0.0000  0.0000  0.0000  0.0000  0.0000
atom =   2  type =  2  l = 0
 
 onsite density matrix
 
spin component  1
 
  0.7934
 
spin component  2
 
  0.7725
 
 occupancies and eigenvectors
 
  o =  0.7725  v =  0.0000  1.0000      0.0000  0.0000
  o =  0.7934  v =  1.0000  0.0000      0.0000  0.0000
     EDDAV:  cpu time    0.1200: real time    0.1216
       DOS:  cpu time    0.0000: real time    0.0005
    CHARGE:  cpu time    0.0040: real time    0.0052
    MIXING:  cpu time    0.0040: real time    0.0004
    --------------------------------------------
      LOOP:  cpu time    0.5800: real time    0.5770

 eigenvalue-minimisations  :  2124
 total energy-change (2. order) :-0.1935818E-04  (-0.1604733E-05)
 number of electron      13.0000027 magnetization       5.0000019
 augmentation part        3.9680178 magnetization       3.2444812

 Broyden mixing:
  rms(total) = 0.26116E-02    rms(broyden)= 0.26115E-02
  rms(prec ) = 0.35007E-02
  weight for this iteration     100.00

 eigenvalues of (default mixing * dielectric matrix)
  average eigenvalue GAMMA=   1.2498
  2.5634  2.1641  1.0239  0.8522  0.8522  0.6681  0.6249

 Free energy of the ion-electron system (eV)
  ---------------------------------------------------
  alpha Z        PSCENC =        60.06754336
  Ewald energy   TEWEN  =      -778.04565751
  -Hartree energ DENC   =      -172.12338835
  -exchange      EXHF   =         0.00000000
  -V(xc)+E(xc)   XCENC  =        21.99641768
  PAW double counting   =      1014.09179274     -991.62111998
  entropy T*S    EENTRO =        -0.00000267
  eigenvalues    EBANDS =       -17.42276737
  atomic energy  EATOM  =       847.00783152
  Solvation  Ediel_sol  =         0.00000000
  ---------------------------------------------------
  free energy    TOTEN  =       -16.04935058 eV

  energy without entropy =      -16.04934791  energy(sigma->0) =      -16.04934924


--------------------------------------------------------------------------------------------------------




--------------------------------------- Iteration      1(  13)  ---------------------------------------


    POTLOK:  cpu time    0.0040: real time    0.0047
    SETDIJ:  cpu time    0.4440: real time    0.4464
atom =   1  type =  1  l = 2
 
 onsite density matrix
 
spin component  1
 
  0.9476  0.0000  0.0000 -0.0000 -0.0000
  0.0000  0.9476  0.0000  0.0000 -0.0000
  0.0000  0.0000  0.9852 -0.0000  0.0000
 -0.0000  0.0000 -0.0000  0.9476  0.0000
 -0.0000 -0.0000  0.0000  0.0000  0.9852
 
spin component  2
 
  0.0166  0.0000  0.0000  0.0000  0.0000
  0.0000  0.0166 -0.0000 -0.0000  0.0000
  0.0000 -0.0000  0.0644  0.0000  0.0000
  0.0000 -0.0000  0.0000  0.0166  0.0000
  0.0000  0.0000  0.0000  0.0000  0.0644
 
 occupancies and eigenvectors
 
  o =  0.0166  v =  0.0000  0.0000  0.0000  0.0000  0.0000  1.0000 -0.0008 -0.0000 -0.0029 -0.0000      0.0000  0.0000  0.0000  0.0000  0.0000  0.0000  0.0000  0.0000  0.0000  0.0000
  o =  0.0166  v =  0.0000  0.0000  0.0000  0.0000  0.0000 -0.0009 -0.9999 -0.0000 -0.0137 -0.0000      0.0000  0.0000  0.0000  0.0000  0.0000  0.0000  0.0000  0.0000  0.0000  0.0000
  o =  0.0166  v =  0.0000  0.0000  0.0000  0.0000  0.0000 -0.0029  0.0137  0.0000 -0.9999  0.0000      0.0000  0.0000  0.0000  0.0000  0.0000  0.0000  0.0000  0.0000  0.0000  0.0000
  o =  0.0644  v =  0.0000  0.0000  0.0000  0.0000  0.0000 -0.0000 -0.0000  0.0064 -0.0000 -1.0000      0.0000  0.0000  0.0000  0.0000  0.0000  0.0000  0.0000  0.0000  0.0000  0.0000
  o =  0.0644  v =  0.0000  0.0000  0.0000  0.0000  0.0000  0.0000  0.0000  1.0000  0.0000  0.0064      0.0000  0.0000  0.0000  0.0000  0.0000  0.0000  0.0000  0.0000  0.0000  0.0000
[...]
     15      30.9817      0.00000
     16      31.5575      0.00000
     17      33.2700      0.00000
     18      34.1637      0.00000

 k-point    13 :      -0.4286    0.2857    0.0000
  band No.  band energies     occupation 
      1     -12.7734      1.00000
      2      -0.4475      1.00000
      3       0.4724      1.00000
      4       1.4373      1.00000
      5       8.2115      0.00000
      6       9.8529      0.00000
      7      10.2124      0.00000
      8      10.2425      0.00000
      9      10.7063      0.00000
     10      13.7038      0.00000
     11      14.9638      0.00000
     12      16.2389      0.00000
     13      20.0763      0.00000
     14      23.8519      0.00000
     15      28.3745      0.00000
     16      31.2540      0.00000
     17      32.7054      0.00000
     18      34.5579      0.00000

 k-point    14 :      -0.2857    0.2857    0.0000
  band No.  band energies     occupation 
      1     -12.8321      1.00000
      2      -0.5137      1.00000
      3       0.5552      1.00000
      4       1.4223      1.00000
      5       9.2307      0.00000
      6       9.3325      0.00000
      7       9.8335      0.00000
      8       9.9483      0.00000
      9      11.2307      0.00000
     10      13.1741      0.00000
     11      15.6710      0.00000
     12      15.9606      0.00000
     13      20.1699      0.00000
     14      25.9623      0.00000
     15      26.2849      0.00000
     16      29.8016      0.00000
     17      32.3618      0.00000
     18      34.6536      0.00000

 k-point    15 :       0.4286    0.4286    0.0000
  band No.  band energies     occupation 
      1     -12.8441      1.00000
      2      -0.5670      1.00000
      3       1.6107      1.00000
      4       1.6107      1.00000
      5       6.6164      0.00000
      6       9.7451      0.00000
      7       9.7977      0.00000
      8      10.4883      0.00000
      9      10.4883      0.00000
     10      12.7593      0.00000
     11      14.8646      0.00000
     12      19.1468      0.00000
     13      20.7167      0.00000
     14      20.7168      0.00000
     15      31.9276      0.00000
     16      32.7236      0.00000
     17      34.1886      0.00000
     18      34.1886      0.00000

 k-point    16 :      -0.4286    0.4286    0.0000
  band No.  band energies     occupation 
      1     -12.7789      1.00000
      2      -0.4480      1.00000
      3       1.0221      1.00000
      4       1.5213      1.00000
      5       7.0610      0.00000
      6       9.9864      0.00000
      7      10.1010      0.00000
      8      10.3503      0.00000
      9      10.4497      0.00000
     10      13.1849      0.00000
     11      14.6816      0.00000
     12      17.6531      0.00000
     13      20.5823      0.00000
     14      21.9223      0.00000
     15      30.3618      0.00000
     16      32.3244      0.00000
     17      33.2429      0.00000
     18      36.1694      0.00000

 k-point    17 :       0.4286    0.2857    0.1429
  band No.  band energies     occupation 
      1     -13.0377      1.00000
      2      -0.3610      1.00000
      3       1.3599      1.00000
      4       1.5806      1.00000
      5       8.0573      0.00000
      6       9.3429      0.00000
      7       9.9212      0.00000
      8      10.0419      0.00000
      9      10.3841      0.00000
     10      12.0677      0.00000
     11      17.0408      0.00000
     12      17.4381      0.00000
     13      20.6146      0.00000
     14      23.5717      0.00000
     15      29.3780      0.00000
     16      29.8275      0.00000
     17      31.9926      0.00000
     18      34.0940      0.00000

 k-point    18 :      -0.4286    0.2857    0.1429
  band No.  band energies     occupation 
      1     -12.8136      1.00000
      2      -0.6114      1.00000
      3       0.7581      1.00000
      4       1.3371      1.00000
      5       8.6721      0.00000
      6       9.4787      0.00000
      7      10.1222      0.00000
      8      10.2228      0.00000
      9      10.9184      0.00000
     10      13.2164      0.00000
     11      15.2445      0.00000
     12      16.7707      0.00000
     13      19.5411      0.00000
     14      25.1357      0.00000
     15      27.2706      0.00000
     16      31.1103      0.00000
     17      32.5329      0.00000
     18      33.5049      0.00000

 k-point    19 :      -0.4286    0.4286    0.1429
  band No.  band energies     occupation 
      1     -12.7903      1.00000
      2      -0.3807      1.00000
      3       1.0027      1.00000
      4       1.2059      1.00000
      5       7.6005      0.00000
      6       9.7955      0.00000
      7      10.0467      0.00000
      8      10.4353      0.00000
      9      10.4766      0.00000
     10      13.3947      0.00000
     11      15.1216      0.00000
     12      17.2012      0.00000
     13      19.5571      0.00000
     14      23.2453      0.00000
     15      28.8810      0.00000
     16      32.8471      0.00000
     17      33.6621      0.00000
     18      35.0230      0.00000

 k-point    20 :      -0.2857    0.4286    0.1429
  band No.  band energies     occupation 
      1     -12.7424      1.00000
      2       0.0823      1.00000
      3       0.1275      1.00000
      4       1.1342      1.00000
      5       8.5274      0.00000
      6       9.3207      0.00000
      7      10.0039      0.00000
      8      10.4472      0.00000
      9      10.6689      0.00000
     10      14.5687      0.00000
     11      15.4641      0.00000
     12      15.5087      0.00000
     13      18.9952      0.00000
     14      24.9237      0.00000
     15      26.7816      0.00000
     16      32.9642      0.00000
     17      33.4201      0.00000
     18      34.5276      0.00000


--------------------------------------------------------------------------------------------------------


 soft charge-density along one line, spin component           1
         0         1         2         3         4         5         6         7         8         9
 total charge-density along one line
 
 soft charge-density along one line, spin component           2
         0         1         2         3         4         5         6         7         8         9
 total charge-density along one line
 
 pseudopotential strength for first ion, spin component:           1
 -9.059  -0.000   0.000  -0.000  -0.000  -9.656  -0.000   0.000
 -0.000  -9.059  -0.000  -0.000   0.000  -0.000  -9.656  -0.000
  0.000  -0.000  -9.202  -0.000  -0.000   0.000  -0.000  -9.803
 -0.000  -0.000  -0.000  -9.059  -0.000  -0.000  -0.000  -0.000
 -0.000   0.000  -0.000  -0.000  -9.202  -0.000   0.000   0.000
 -9.656  -0.000   0.000  -0.000  -0.000 -10.242  -0.000   0.000
 -0.000  -9.656  -0.000  -0.000   0.000  -0.000 -10.242  -0.000
  0.000  -0.000  -9.803  -0.000   0.000   0.000  -0.000 -10.395
 -0.000  -0.000  -0.000  -9.656  -0.000  -0.000  -0.000  -0.000
 -0.000   0.000   0.000  -0.000  -9.803  -0.000   0.000   0.000
  0.000   0.000   0.000   0.000  -0.000   0.000   0.000   0.000
  0.000   0.000   0.000   0.000  -0.000   0.000   0.000   0.000
  0.000  -0.000   0.000   0.000   0.000   0.000  -0.000   0.000
  0.000  -0.000  -0.000   0.000   0.000   0.000  -0.000  -0.000
 -0.000   0.000  -0.000  -0.000   0.000  -0.000   0.000  -0.000
  0.000  -0.000   0.000   0.000   0.000   0.000  -0.000   0.000
  0.000  -0.000  -0.000   0.000   0.000   0.000  -0.000  -0.000
 -0.000   0.000  -0.000  -0.000   0.000  -0.000   0.000  -0.000
 pseudopotential strength for first ion, spin component:           2
 -2.212   0.000  -0.000   0.000  -0.000  -2.736   0.000  -0.000
  0.000  -2.212   0.000   0.000  -0.000   0.000  -2.736   0.000
 -0.000   0.000  -2.387   0.000   0.000  -0.000   0.000  -2.917
  0.000   0.000   0.000  -2.212   0.000   0.000   0.000   0.000
 -0.000  -0.000   0.000   0.000  -2.387  -0.000  -0.000   0.000
 -2.736   0.000  -0.000   0.000  -0.000  -3.220   0.000  -0.000
  0.000  -2.736   0.000   0.000  -0.000   0.000  -3.220   0.000
 -0.000   0.000  -2.917   0.000   0.000  -0.000   0.000  -3.408
  0.000   0.000   0.000  -2.736   0.000   0.000   0.000   0.000
 -0.000  -0.000   0.000   0.000  -2.917  -0.000  -0.000   0.000
 -0.000  -0.000   0.000  -0.000  -0.000  -0.000  -0.000   0.000
 -0.000  -0.000   0.000  -0.000  -0.000  -0.000  -0.000   0.000
  0.000  -0.000   0.000   0.000   0.000   0.000  -0.000   0.000
  0.000  -0.000  -0.000   0.000   0.000   0.000  -0.000  -0.000
 -0.000   0.000  -0.000  -0.000   0.000  -0.000   0.000  -0.000
  0.000  -0.000   0.000   0.000   0.000   0.000  -0.000   0.000
  0.000  -0.000  -0.000   0.000   0.000   0.000  -0.000  -0.000
 -0.000   0.000  -0.000  -0.000   0.000  -0.000   0.000  -0.000
 total augmentation occupancy for first ion, spin component:           1
  3.658   0.000   0.000   0.000  -0.000  -2.085  -0.000   0.000  -0.000  -0.000   0.000  -0.000   0.000   0.000   0.000   0.000
 -0.000   3.658  -0.000  -0.000   0.000  -0.000  -2.085  -0.000   0.000   0.000   0.000   0.000   0.000   0.000   0.000   0.000
  0.000   0.000   8.953   0.000   0.000  -0.000   0.000  -7.008   0.000   0.000   0.000  -0.000   0.000   0.000   0.000   0.000
  0.000  -0.000  -0.000   3.658  -0.000   0.000  -0.000  -0.000  -2.085  -0.000  -0.000  -0.000   0.000   0.000   0.000   0.000
  0.000  -0.000   0.000   0.000   8.953  -0.000   0.000   0.000   0.000  -7.008   0.000   0.000   0.000   0.000   0.000   0.000
 -2.085  -0.000   0.000   0.000  -0.000   1.627   0.000   0.000   0.000   0.000  -0.000   0.000   0.000   0.000   0.000   0.000
  0.000  -2.085   0.000   0.000   0.000  -0.000   1.627   0.000   0.000   0.000   0.000   0.000   0.000   0.000   0.000   0.000
  0.000  -0.000  -7.008  -0.000   0.000  -0.000   0.000   6.259   0.000   0.000   0.000   0.000   0.000   0.000   0.000   0.000
  0.000   0.000  -0.000  -2.085   0.000   0.000   0.000   0.000   1.627   0.000  -0.000  -0.000   0.000   0.000   0.000   0.000
  0.000   0.000   0.000  -0.000  -7.008   0.000   0.000   0.000   0.000   6.259  -0.000   0.000   0.000   0.000   0.000   0.000
  0.000   0.000   0.000   0.000   0.000   0.000   0.000   0.000  -0.000  -0.000   1.564  -0.223   0.000   0.000   0.000   0.000
 -0.000   0.000  -0.000   0.000  -0.000   0.000   0.000   0.000  -0.000   0.000  -0.223   0.043   0.000   0.000   0.000   0.000
  0.000   0.000   0.000   0.000   0.000   0.000   0.000   0.000   0.000   0.000   0.000   0.000   0.150   0.000   0.000  -0.010
  0.000   0.000   0.000   0.000   0.000   0.000   0.000   0.000   0.000   0.000   0.000   0.000   0.000   0.150  -0.000  -0.000
  0.000   0.000   0.000   0.000   0.000   0.000   0.000   0.000   0.000   0.000   0.000   0.000   0.000  -0.000   0.150  -0.000
  0.000   0.000   0.000   0.000   0.000   0.000   0.000   0.000   0.000   0.000   0.000   0.000  -0.010  -0.000  -0.000   0.001
  0.000   0.000   0.000   0.000   0.000   0.000   0.000   0.000   0.000   0.000   0.000   0.000  -0.000  -0.010   0.000   0.000
  0.000   0.000   0.000   0.000   0.000   0.000   0.000   0.000   0.000   0.000   0.000   0.000   0.000   0.000  -0.010   0.000
 total augmentation occupancy for first ion, spin component:           2
  3.177   0.000  -0.000  -0.000   0.000  -1.496   0.000  -0.000   0.000   0.000   0.000  -0.000   0.000   0.000   0.000   0.000
  0.000   3.177  -0.000   0.000  -0.000   0.000  -1.496  -0.000   0.000  -0.000  -0.000  -0.000   0.000   0.000   0.000   0.000
  0.000   0.000   7.082   0.000   0.000   0.000  -0.000  -4.736  -0.000   0.000   0.000   0.000   0.000   0.000   0.000   0.000
 -0.000   0.000  -0.000   3.177   0.000   0.000   0.000   0.000  -1.496  -0.000  -0.000  -0.000   0.000   0.000   0.000   0.000
 -0.000  -0.000   0.000   0.000   7.082   0.000  -0.000   0.000   0.000  -4.736  -0.000   0.000   0.000   0.000   0.000   0.000
 -1.496   0.000   0.000   0.000   0.000   0.905   0.000  -0.000   0.000  -0.000   0.000   0.000   0.000   0.000   0.000   0.000
 -0.000  -1.496   0.000  -0.000  -0.000  -0.000   0.905   0.000   0.000  -0.000   0.000  -0.000   0.000   0.000   0.000   0.000
 -0.000   0.000  -4.736   0.000   0.000  -0.000   0.000   3.487  -0.000   0.000  -0.000  -0.000   0.000   0.000   0.000   0.000
  0.000   0.000   0.000  -1.496   0.000   0.000   0.000   0.000   0.905   0.000   0.000   0.000   0.000   0.000   0.000   0.000
  0.000  -0.000   0.000   0.000  -4.736   0.000   0.000   0.000  -0.000   3.487   0.000   0.000   0.000   0.000   0.000   0.000
  0.000  -0.000   0.000  -0.000   0.000   0.000  -0.000  -0.000   0.000   0.000  -0.138   0.091   0.000   0.000   0.000   0.000
  0.000   0.000   0.000  -0.000   0.000   0.000   0.000   0.000  -0.000   0.000   0.091  -0.018   0.000   0.000   0.000   0.000
  0.000   0.000   0.000   0.000   0.000   0.000   0.000   0.000   0.000   0.000   0.000   0.000   0.010   0.000   0.000   0.002
  0.000   0.000   0.000   0.000   0.000   0.000   0.000   0.000   0.000   0.000   0.000   0.000   0.000   0.010   0.000   0.000
  0.000   0.000   0.000   0.000   0.000   0.000   0.000   0.000   0.000   0.000   0.000   0.000   0.000   0.000   0.010   0.000
  0.000   0.000   0.000   0.000   0.000   0.000   0.000   0.000   0.000   0.000   0.000   0.000   0.002   0.000   0.000  -0.000
  0.000   0.000   0.000   0.000   0.000   0.000   0.000   0.000   0.000   0.000   0.000   0.000   0.000   0.002   0.000   0.000
  0.000   0.000   0.000   0.000   0.000   0.000   0.000   0.000   0.000   0.000   0.000   0.000   0.000   0.000   0.002   0.000


------------------------ aborting loop because EDIFF is reached ----------------------------------------


 


 total charge     
 
# of ion       s       p       d       tot
------------------------------------------
    1        0.214   0.240   4.971   5.426
    2        1.549   3.435   0.000   4.984
--------------------------------------------------
tot          1.764   3.675   4.971  10.410
 


 magnetization (x)
 
# of ion       s       p       d       tot
------------------------------------------
    1        0.033   0.025   4.621   4.680
    2        0.021   0.109   0.000   0.130
--------------------------------------------------
tot          0.054   0.135   4.621   4.810
 
    CHARGE:  cpu time    0.0080: real time    0.0054
    FORLOC:  cpu time    0.0000: real time    0.0001
    FORNL :  cpu time    0.0040: real time    0.0045
    STRESS:  cpu time    0.0560: real time    0.0572
    FORCOR:  cpu time    0.0040: real time    0.0039
    FORHAR:  cpu time    0.0040: real time    0.0005
    MIXING:  cpu time    0.0000: real time    0.0005
    OFIELD:  cpu time    0.0000: real time    0.0000

  FORCE on cell =-STRESS in cart. coord.  units (eV):
  Direction    XX          YY          ZZ          XY          YZ          ZX
  --------------------------------------------------------------------------------------
  Alpha Z    60.06754    60.06754    60.06754
  Ewald    -259.34864  -259.34864  -259.34864     0.00000     0.00000     0.00000
  Hartree    57.37668    57.37668    57.37668    -0.00000    -0.00000    -0.00000
  E(xc)     -64.31864   -64.31864   -64.31864    -0.00000    -0.00000    -0.00000
  Local      18.14953    18.14953    18.14953     0.00007     0.00007     0.00007
  n-local   -48.45102   -49.42127   -46.43039    -0.70899     0.70555    -0.46583
  augment    37.70468    37.70468    37.70468    -0.00003    -0.00003    -0.00003
  Kinetic   200.53775   200.22059   194.65024     3.92964    -2.95261     1.94122
  Fock        0.00000     0.00000     0.00000     0.00000     0.00000     0.00000
  -------------------------------------------------------------------------------------
  Total      -0.00021    -0.00021    -0.00021     0.00000    -0.00000     0.00000
  in kB      -0.01547    -0.01547    -0.01547     0.00000    -0.00000     0.00000
  external pressure =       -0.02 kB  Pullay stress =        0.00 kB


 VOLUME and BASIS-vectors are now :
 -----------------------------------------------------------------------------
  energy-cutoff  :      520.00
  volume of cell :       22.08
      direct lattice vectors                 reciprocal lattice vectors
     0.000000000  2.226704063  2.226704063    -0.224547127  0.224547127  0.224547127
     2.226704063  0.000000000  2.226704063     0.224547127 -0.224547127  0.224547127
     2.226704063  2.226704063  0.000000000     0.224547127  0.224547127 -0.224547127

  length of vectors
     3.149035085  3.149035085  3.149035085     0.388927033  0.388927033  0.388927033


 FORCES acting on ions
    electron-ion (+dipol)            ewald-force                    non-local-force                 convergence-correction
 -----------------------------------------------------------------------------------------------
   -.451E-14 -.991E-14 -.558E-14   -.129E-14 -.562E-14 -.381E-14   0.000E+00 0.000E+00 -.103E-24   0.221E-14 -.868E-14 -.321E-14
   -.489E-12 0.100E-12 -.961E-13   0.909E-15 0.515E-14 0.350E-14   0.000E+00 0.000E+00 0.258E-25   0.311E-14 -.637E-14 -.307E-14
 -----------------------------------------------------------------------------------------------
   -.493E-12 0.902E-13 -.102E-12   -.383E-15 -.474E-15 -.307E-15   0.000E+00 0.000E+00 -.775E-25   0.532E-14 -.150E-13 -.628E-14
 
 
 POSITION                                       TOTAL-FORCE (eV/Angst)
 -----------------------------------------------------------------------------------
      0.00000      0.00000      0.00000         0.000000      0.000000      0.000000
      2.22670      2.22670      2.22670        -0.000000     -0.000000     -0.000000
 -----------------------------------------------------------------------------------
    total drift:                               -0.000000      0.000000     -0.000000


--------------------------------------------------------------------------------------------------------



  FREE ENERGIE OF THE ION-ELECTRON SYSTEM (eV)
  ---------------------------------------------------
  free  energy   TOTEN  =       -16.04935756 eV

  energy  without entropy=      -16.04935495  energy(sigma->0) =      -16.04935625
 


--------------------------------------------------------------------------------------------------------


    POTLOK:  cpu time    0.4480: real time    0.4480


--------------------------------------------------------------------------------------------------------


     LOOP+:  cpu time    7.7240: real time    7.7720
    4ORBIT:  cpu time    0.0000: real time    0.0000
 


 total charge     
 
# of ion       s       p       d       tot
------------------------------------------
    1        0.214   0.240   4.971   5.426
    2        1.549   3.435   0.000   4.984
--------------------------------------------------
tot          1.764   3.675   4.971  10.410
 


 magnetization (x)
 
# of ion       s       p       d       tot
------------------------------------------
    1        0.033   0.025   4.621   4.680
    2        0.021   0.109   0.000   0.130
--------------------------------------------------
tot          0.054   0.135   4.621   4.810
 

 total amount of memory used by VASP MPI-rank0    34830. kBytes
=======================================================================

   base      :      30000. kBytes
   nonl-proj :       3544. kBytes
   fftplans  :        117. kBytes
   grid      :        693. kBytes
   one-center:         62. kBytes
   wavefun   :        414. kBytes
 
  
  
 General timing and accounting informations for this job:
 ========================================================
  
                  Total CPU time used (sec):        8.680
                            User time (sec):        8.500
                          System time (sec):        0.180
                         Elapsed time (sec):        9.042
  
                   Maximum memory used (kb):       65848.
                   Average memory used (kb):           0.
  
                          Minor page faults:        12065
                          Major page faults:           16
                 Voluntary context switches:         2652
