       N       E                     dE             d eps       ncg     rms          ort
DAV:   1     0.153115904138E+03    0.15312E+03   -0.36441E+03    36   0.240E+02
DAV:   2     0.120716720827E+03   -0.32399E+02   -0.32239E+02    36   0.506E+01
DAV:   3     0.425918672093E+02   -0.78125E+02   -0.78048E+02    36   0.401E+01
DAV:   4     0.179319409585E+01   -0.40799E+02   -0.40777E+02    36   0.521E+01
DAV:   5    -0.232806241334E+01   -0.41213E+01   -0.41194E+01    36   0.147E+01
SDA:   6     0.420893927596E+02    0.44417E+02   -0.70692E+02    36   0.177E+03 0.000E+00
DMP:   7     0.294775637916E+02   -0.12612E+02   -0.50688E+02    36   0.176E+03-0.128E+03
DMP:   8     0.953521141724E+01   -0.19942E+02   -0.20073E+02    36   0.555E+02-0.138E+02
DMP:   9     0.366586227861E+01   -0.58693E+01   -0.70235E+01    36   0.238E+02-0.162E+02
DMP:  10     0.112716664989E+01   -0.25387E+01   -0.14992E+01    36   0.530E+01-0.406E+01
DMP:  11     0.469788324670E+00   -0.65738E+00   -0.82491E+00    36   0.225E+01-0.503E+00
DMP:  12     0.133859393833E+00   -0.33593E+00   -0.32071E+00    36   0.950E+00-0.388E+00
DMP:  13    -0.351498866679E-01   -0.16901E+00   -0.13634E+00    36   0.324E+00 0.454E-01
DMP:  14    -0.112033567822E+00   -0.76884E-01   -0.65092E-01    36   0.147E+00 0.418E-01
DMP:  15    -0.155727364504E+00   -0.43694E-01   -0.37117E-01    36   0.721E-01 0.540E-01
DMP:  16    -0.185080045218E+00   -0.29353E-01   -0.25087E-01    36   0.421E-01 0.539E-01
DMP:  17    -0.208454624359E+00   -0.23375E-01   -0.22560E-01    36   0.346E-01 0.572E-01
DMP:  18    -0.237933647006E+00   -0.29479E-01   -0.40570E-01    36   0.585E-01 0.112E+00
DMP:  19    -0.292675105747E+00   -0.54741E-01   -0.72582E-01    36   0.380E+00-0.519E+00
DMP:  20    -0.333832608969E+00   -0.41158E-01   -0.15885E+00    36   0.382E+00 0.400E-01
DMP:  21    -0.275813797190E+00    0.58019E-01   -0.27885E+00    36   0.863E+00-0.433E+00
DMP:  22     0.164239274436E+01    0.19182E+01   -0.55070E+01    36   0.153E+02-0.403E+01
DMP:  23     0.220174563311E+00   -0.14222E+01   -0.33463E+00    36   0.149E+01-0.171E+01
DMP:  24    -0.375889702020E-01   -0.25776E+00   -0.84409E+00    36   0.146E+01 0.170E+01
DMP:  25     0.171472605503E+02    0.17185E+02   -0.21979E+02    36   0.602E+02-0.138E+02
DMP:  26     0.182409532385E+01   -0.15323E+02   -0.88612E+00    36   0.589E+01-0.962E+01
DMP:  27     0.111656291373E+01   -0.70753E+00   -0.13888E+01    36   0.323E+01 0.624E+00
DMP:  28    -0.248467654234E+00   -0.13650E+01   -0.49980E+00    36   0.463E+00 0.206E+01
DMP:  29     0.260836086987E+01    0.28568E+01   -0.21304E+01    36   0.571E+01-0.996E+00
DMP:  30     0.118099477705E+00   -0.24903E+01   -0.16883E+00    36   0.103E+01-0.158E+01
DMP:  31    -0.268191464486E+00   -0.38629E+00   -0.38514E+01    36   0.468E+01 0.130E+02
DMP:  32     0.168426263344E+01    0.19525E+01   -0.10764E+01    36   0.318E+01-0.127E+01
DMP:  33     0.142718413215E+00   -0.15415E+01   -0.28357E+00    36   0.121E+01-0.131E+01
DMP:  34     0.135190658283E+01    0.12092E+01   -0.75461E+00    36   0.245E+01-0.148E+01
DMP:  35     0.280815996501E+00   -0.10711E+01   -0.40006E+00    36   0.143E+01-0.112E+01
DMP:  36     0.130833823418E+01    0.10275E+01   -0.63463E+00    36   0.222E+01-0.167E+01
DMP:  37     0.270956116105E+00   -0.10374E+01   -0.38885E+00    36   0.134E+01-0.954E+00
DMP:  38     0.129362326799E+01    0.10227E+01   -0.61206E+00    36   0.211E+01-0.151E+01
DMP:  39     0.268437282949E+00   -0.10252E+01   -0.39622E+00    36   0.136E+01-0.977E+00
DMP:  40     0.126733699766E+01    0.99890E+00   -0.57144E+00    36   0.197E+01-0.142E+01
DMP:  41     0.275936137113E+00   -0.99140E+00   -0.39906E+00    36   0.136E+01-0.955E+00
DMP:  42     0.125357256607E+01    0.97764E+00   -0.54619E+00    36   0.189E+01-0.137E+01
DMP:  43     0.267831172093E+00   -0.98574E+00   -0.37904E+00    36   0.131E+01-0.936E+00
DMP:  44     0.124412364233E+01    0.97629E+00   -0.53048E+00    36   0.183E+01-0.131E+01
DMP:  45     0.262766181056E+00   -0.98136E+00   -0.35935E+00    36   0.125E+01-0.915E+00
DMP:  46     0.123677950520E+01    0.97401E+00   -0.51644E+00    36   0.178E+01-0.128E+01
DMP:  47     0.266402844544E+00   -0.97038E+00   -0.37390E+00    36   0.128E+01-0.913E+00
DMP:  48     0.122851256895E+01    0.96211E+00   -0.50451E+00    36   0.174E+01-0.125E+01
DMP:  49     0.266770735943E+00   -0.96174E+00   -0.37552E+00    36   0.129E+01-0.914E+00
DMP:  50     0.122123235236E+01    0.95446E+00   -0.49381E+00    36   0.170E+01-0.123E+01
DMP:  51     0.260368908904E+00   -0.96086E+00   -0.35811E+00    36   0.124E+01-0.894E+00
DMP:  52     0.121668126907E+01    0.95631E+00   -0.48613E+00    36   0.168E+01-0.121E+01
DMP:  53     0.259139770461E+00   -0.95754E+00   -0.35383E+00    36   0.122E+01-0.878E+00
DMP:  54     0.130324353154E+01    0.10441E+01   -0.66528E+00    36   0.224E+01-0.151E+01
DMP:  55     0.269813676230E+00   -0.10334E+01   -0.36280E+00    36   0.126E+01-0.920E+00
DMP:  56     0.123628349583E+01    0.96647E+00   -0.53742E+00    36   0.184E+01-0.129E+01
DMP:  57     0.269978967586E+00   -0.96630E+00   -0.36914E+00    36   0.127E+01-0.897E+00
DMP:  58     0.124057671983E+01    0.97060E+00   -0.52554E+00    36   0.182E+01-0.132E+01
DMP:  59     0.264229593609E+00   -0.97635E+00   -0.35662E+00    36   0.123E+01-0.880E+00
DMP:  60     0.123614208657E+01    0.97191E+00   -0.52116E+00    36   0.179E+01-0.127E+01
DMP:  61     0.265556268379E+00   -0.97059E+00   -0.36322E+00    36   0.125E+01-0.888E+00
DMP:  62     0.135996821864E+01    0.10944E+01   -0.71354E+00    36   0.244E+01-0.173E+01
DMP:  63     0.283385410397E+00   -0.10766E+01   -0.37901E+00    36   0.131E+01-0.938E+00
DMP:  64     0.126996498049E+01    0.98658E+00   -0.60912E+00    36   0.206E+01-0.141E+01
DMP:  65     0.278984875429E+00   -0.99098E+00   -0.36525E+00    36   0.125E+01-0.884E+00
DMP:  66     0.127655787475E+01    0.99757E+00   -0.59887E+00    36   0.208E+01-0.153E+01
DMP:  67     0.275524484794E+00   -0.10010E+01   -0.36746E+00    36   0.126E+01-0.901E+00
DMP:  68     0.125395340572E+01    0.97843E+00   -0.56690E+00    36   0.195E+01-0.140E+01
DMP:  69     0.277158322011E+00   -0.97680E+00   -0.37818E+00    36   0.129E+01-0.900E+00
DMP:  70     0.123917384597E+01    0.96202E+00   -0.54102E+00    36   0.187E+01-0.135E+01
DMP:  71     0.268910777438E+00   -0.97026E+00   -0.35716E+00    36   0.123E+01-0.877E+00
DMP:  72     0.122960687584E+01    0.96070E+00   -0.52303E+00    36   0.181E+01-0.131E+01
DMP:  73     0.264142911067E+00   -0.96546E+00   -0.34653E+00    36   0.120E+01-0.872E+00
DMP:  74     0.122546193745E+01    0.96132E+00   -0.51422E+00    36   0.177E+01-0.128E+01
DMP:  75     0.265369342541E+00   -0.96009E+00   -0.35581E+00    36   0.122E+01-0.878E+00
DMP:  76     0.121934844821E+01    0.95398E+00   -0.50507E+00    36   0.174E+01-0.125E+01
DMP:  77     0.267221125111E+00   -0.95213E+00   -0.36370E+00    36   0.125E+01-0.880E+00
DMP:  78     0.135769746008E+01    0.10905E+01   -0.71898E+00    36   0.247E+01-0.175E+01
DMP:  79     0.279759502654E+00   -0.10779E+01   -0.35776E+00    36   0.125E+01-0.920E+00
DMP:  80     0.126907499676E+01    0.98932E+00   -0.61630E+00    36   0.208E+01-0.142E+01
DMP:  81     0.282972635589E+00   -0.98610E+00   -0.37102E+00    36   0.127E+01-0.890E+00
DMP:  82     0.126196180661E+01    0.97899E+00   -0.58139E+00    36   0.203E+01-0.150E+01
DMP:  83     0.279247820691E+00   -0.98271E+00   -0.37411E+00    36   0.128E+01-0.896E+00
DMP:  84     0.124895903804E+01    0.96971E+00   -0.56157E+00    36   0.194E+01-0.139E+01
DMP:  85     0.271646686544E+00   -0.97731E+00   -0.35257E+00    36   0.122E+01-0.879E+00
DMP:  86     0.123767865909E+01    0.96603E+00   -0.54146E+00    36   0.187E+01-0.135E+01
DMP:  87     0.272534242651E+00   -0.96514E+00   -0.36355E+00    36   0.125E+01-0.886E+00
DMP:  88     0.122625223305E+01    0.95372E+00   -0.52258E+00    36   0.180E+01-0.130E+01
DMP:  89     0.273700725990E+00   -0.95255E+00   -0.37285E+00    36   0.127E+01-0.890E+00
DMP:  90     0.128162075862E+01    0.10079E+01   -0.61187E+00    36   0.210E+01-0.149E+01
DMP:  91     0.273135629665E+00   -0.10085E+01   -0.35323E+00    36   0.123E+01-0.898E+00
DMP:  92     0.123497512463E+01    0.96184E+00   -0.54743E+00    36   0.187E+01-0.132E+01
DMP:  93     0.276456928360E+00   -0.95852E+00   -0.36834E+00    36   0.126E+01-0.881E+00
DMP:  94     0.131615932361E+01    0.10397E+01   -0.65307E+00    36   0.226E+01-0.164E+01
DMP:  95     0.285819998771E+00   -0.10303E+01   -0.37983E+00    36   0.130E+01-0.919E+00
DMP:  96     0.125834420085E+01    0.97252E+00   -0.59276E+00    36   0.202E+01-0.140E+01
DMP:  97     0.279458319376E+00   -0.97889E+00   -0.36043E+00    36   0.124E+01-0.879E+00
DMP:  98     0.126903471536E+01    0.98958E+00   -0.59479E+00    36   0.206E+01-0.151E+01
DMP:  99     0.278939858252E+00   -0.99009E+00   -0.36667E+00    36   0.126E+01-0.896E+00
DMP: 100     0.124459840806E+01    0.96566E+00   -0.56056E+00    36   0.193E+01-0.138E+01
DMP: 101     0.279884012740E+00   -0.96471E+00   -0.37641E+00    36   0.128E+01-0.895E+00
DMP: 102     0.124276395524E+01    0.96288E+00   -0.55150E+00    36   0.191E+01-0.138E+01
DMP: 103     0.272403754248E+00   -0.97036E+00   -0.35439E+00    36   0.122E+01-0.880E+00
DMP: 104     0.122896053816E+01    0.95656E+00   -0.53027E+00    36   0.183E+01-0.131E+01
DMP: 105     0.272735801025E+00   -0.95622E+00   -0.36256E+00    36   0.124E+01-0.883E+00
DMP: 106     0.130726779635E+01    0.10345E+01   -0.66334E+00    36   0.227E+01-0.160E+01
DMP: 107     0.283608387286E+00   -0.10237E+01   -0.37643E+00    36   0.129E+01-0.921E+00
DMP: 108     0.124208033920E+01    0.95847E+00   -0.56718E+00    36   0.193E+01-0.135E+01
DMP: 109     0.277930761341E+00   -0.96415E+00   -0.36017E+00    36   0.123E+01-0.873E+00
DMP: 110     0.132200627983E+01    0.10441E+01   -0.67239E+00    36   0.232E+01-0.168E+01
DMP: 111     0.284975980037E+00   -0.10370E+01   -0.36913E+00    36   0.127E+01-0.911E+00
DMP: 112     0.125954641889E+01    0.97457E+00   -0.59545E+00    36   0.203E+01-0.142E+01
DMP: 113     0.285337825912E+00   -0.97421E+00   -0.37848E+00    36   0.129E+01-0.902E+00
DMP: 114     0.124363877720E+01    0.95830E+00   -0.55800E+00    36   0.194E+01-0.141E+01
DMP: 115     0.275667044799E+00   -0.96797E+00   -0.35689E+00    36   0.123E+01-0.877E+00
DMP: 116     0.123479857279E+01    0.95913E+00   -0.53989E+00    36   0.187E+01-0.135E+01
DMP: 117     0.274709284147E+00   -0.96009E+00   -0.36204E+00    36   0.124E+01-0.885E+00
DMP: 118     0.125021049896E+01    0.97550E+00   -0.55996E+00    36   0.193E+01-0.139E+01
DMP: 119     0.280576871414E+00   -0.96963E+00   -0.37754E+00    36   0.129E+01-0.897E+00
DMP: 120     0.123047469431E+01    0.94990E+00   -0.53753E+00    36   0.184E+01-0.131E+01
DMP: 121     0.272155569040E+00   -0.95832E+00   -0.35399E+00    36   0.122E+01-0.873E+00
DMP: 122     0.133688664381E+01    0.10647E+01   -0.70841E+00    36   0.243E+01-0.173E+01
DMP: 123     0.284278858424E+00   -0.10526E+01   -0.36527E+00    36   0.127E+01-0.923E+00
DMP: 124     0.126392821613E+01    0.97965E+00   -0.60781E+00    36   0.207E+01-0.143E+01
DMP: 125     0.289592039183E+00   -0.97434E+00   -0.38353E+00    36   0.130E+01-0.896E+00
DMP: 126     0.127374043552E+01    0.98415E+00   -0.60068E+00    36   0.209E+01-0.154E+01
DMP: 127     0.281000070922E+00   -0.99274E+00   -0.36015E+00    36   0.124E+01-0.885E+00
DMP: 128     0.125209429831E+01    0.97109E+00   -0.57277E+00    36   0.197E+01-0.141E+01
DMP: 129     0.278668237279E+00   -0.97343E+00   -0.36268E+00    36   0.125E+01-0.891E+00
DMP: 130     0.128256586358E+01    0.10039E+01   -0.62234E+00    36   0.214E+01-0.153E+01
DMP: 131     0.285167528618E+00   -0.99740E+00   -0.37763E+00    36   0.129E+01-0.907E+00
DMP: 132     0.124092241207E+01    0.95575E+00   -0.56156E+00    36   0.193E+01-0.137E+01
DMP: 133     0.276404978412E+00   -0.96452E+00   -0.35463E+00    36   0.122E+01-0.877E+00
DMP: 134     0.128171484240E+01    0.10053E+01   -0.60893E+00    36   0.211E+01-0.153E+01
DMP: 135     0.279842109960E+00   -0.10019E+01   -0.36264E+00    36   0.125E+01-0.903E+00
DMP: 136     0.124729691573E+01    0.96745E+00   -0.56986E+00    36   0.195E+01-0.137E+01
DMP: 137     0.282938276504E+00   -0.96436E+00   -0.37676E+00    36   0.128E+01-0.895E+00
DMP: 138     0.131444265511E+01    0.10315E+01   -0.66303E+00    36   0.229E+01-0.166E+01
DMP: 139     0.282273435085E+00   -0.10322E+01   -0.35612E+00    36   0.124E+01-0.907E+00
DMP: 140     0.126068846542E+01    0.97842E+00   -0.59848E+00    36   0.204E+01-0.143E+01
DMP: 141     0.284436928399E+00   -0.97625E+00   -0.36899E+00    36   0.126E+01-0.889E+00
DMP: 142     0.126605168186E+01    0.98161E+00   -0.59268E+00    36   0.206E+01-0.150E+01
DMP: 143     0.285895340577E+00   -0.98016E+00   -0.37888E+00    36   0.129E+01-0.896E+00
DMP: 144     0.124322004940E+01    0.95732E+00   -0.56044E+00    36   0.193E+01-0.138E+01
DMP: 145     0.275420813116E+00   -0.96780E+00   -0.35170E+00    36   0.122E+01-0.880E+00
DMP: 146     0.125477207135E+01    0.97935E+00   -0.57307E+00    36   0.198E+01-0.143E+01
DMP: 147     0.278078179744E+00   -0.97669E+00   -0.36358E+00    36   0.125E+01-0.892E+00
DMP: 148     0.123176109688E+01    0.95368E+00   -0.53966E+00    36   0.186E+01-0.133E+01
DMP: 149     0.279827521814E+00   -0.95193E+00   -0.37561E+00    36   0.128E+01-0.888E+00
DMP: 150     0.132672552500E+01    0.10469E+01   -0.67385E+00    36   0.233E+01-0.168E+01
DMP: 151     0.282023206049E+00   -0.10447E+01   -0.35425E+00    36   0.123E+01-0.914E+00
DMP: 152     0.126406839051E+01    0.98205E+00   -0.60696E+00    36   0.206E+01-0.142E+01
DMP: 153     0.286350555859E+00   -0.97772E+00   -0.37102E+00    36   0.127E+01-0.889E+00
DMP: 154     0.128802884560E+01    0.10017E+01   -0.62596E+00    36   0.217E+01-0.159E+01
DMP: 155     0.287143509704E+00   -0.10009E+01   -0.37647E+00    36   0.129E+01-0.909E+00
DMP: 156     0.125509960219E+01    0.96796E+00   -0.58383E+00    36   0.200E+01-0.142E+01
DMP: 157     0.280740527627E+00   -0.97436E+00   -0.35812E+00    36   0.123E+01-0.878E+00
DMP: 158     0.125586097594E+01    0.97512E+00   -0.57484E+00    36   0.199E+01-0.145E+01
DMP: 159     0.282018270731E+00   -0.97384E+00   -0.36828E+00    36   0.126E+01-0.886E+00
DMP: 160     0.123722361359E+01    0.95521E+00   -0.54865E+00    36   0.189E+01-0.136E+01
DMP: 161     0.280241642726E+00   -0.95698E+00   -0.37294E+00    36   0.127E+01-0.893E+00
DMP: 162     0.129488889291E+01    0.10146E+01   -0.64119E+00    36   0.220E+01-0.157E+01
DMP: 163     0.280135309738E+00   -0.10148E+01   -0.35528E+00    36   0.123E+01-0.898E+00
DMP: 164     0.125222822491E+01    0.97209E+00   -0.58033E+00    36   0.199E+01-0.140E+01
DMP: 165     0.282191138218E+00   -0.97004E+00   -0.36675E+00    36   0.126E+01-0.888E+00
DMP: 166     0.129018648614E+01    0.10080E+01   -0.64614E+00    36   0.222E+01-0.158E+01
DMP: 167     0.285552557984E+00   -0.10046E+01   -0.37434E+00    36   0.128E+01-0.912E+00
DMP: 168     0.124723647054E+01    0.96168E+00   -0.57138E+00    36   0.196E+01-0.140E+01
DMP: 169     0.280213153904E+00   -0.96702E+00   -0.35903E+00    36   0.123E+01-0.873E+00
DMP: 170     0.130812553647E+01    0.10279E+01   -0.65571E+00    36   0.226E+01-0.163E+01
DMP: 171     0.284832118077E+00   -0.10233E+01   -0.36504E+00    36   0.126E+01-0.910E+00
DMP: 172     0.125395742016E+01    0.96913E+00   -0.58571E+00    36   0.200E+01-0.141E+01
DMP: 173     0.285337911513E+00   -0.96862E+00   -0.37517E+00    36   0.128E+01-0.900E+00
DMP: 174     0.128722125387E+01    0.10019E+01   -0.62342E+00    36   0.216E+01-0.157E+01
DMP: 175     0.283803480653E+00   -0.10034E+01   -0.36115E+00    36   0.124E+01-0.888E+00
DMP: 176     0.125038953963E+01    0.96659E+00   -0.57709E+00    36   0.198E+01-0.140E+01
DMP: 177     0.280937287504E+00   -0.96945E+00   -0.36289E+00    36   0.125E+01-0.891E+00
DMP: 178     0.128356976382E+01    0.10026E+01   -0.62143E+00    36   0.215E+01-0.155E+01
DMP: 179     0.286724090034E+00   -0.99685E+00   -0.37626E+00    36   0.129E+01-0.907E+00
DMP: 180     0.124500135353E+01    0.95828E+00   -0.56806E+00    36   0.195E+01-0.138E+01
DMP: 181     0.280088089669E+00   -0.96491E+00   -0.36421E+00    36   0.125E+01-0.883E+00
DMP: 182     0.128603124980E+01    0.10059E+01   -0.62592E+00    36   0.216E+01-0.156E+01
DMP: 183     0.281855645331E+00   -0.10042E+01   -0.36254E+00    36   0.125E+01-0.903E+00
DMP: 184     0.127060024219E+01    0.98874E+00   -0.61032E+00    36   0.209E+01-0.148E+01
DMP: 185     0.286566743990E+00   -0.98403E+00   -0.37768E+00    36   0.129E+01-0.903E+00
DMP: 186     0.128356249644E+01    0.99700E+00   -0.62572E+00    36   0.215E+01-0.154E+01
DMP: 187     0.282512890468E+00   -0.10010E+01   -0.35656E+00    36   0.123E+01-0.891E+00
DMP: 188     0.124895499976E+01    0.96644E+00   -0.57288E+00    36   0.197E+01-0.141E+01
DMP: 189     0.280971083473E+00   -0.96798E+00   -0.36278E+00    36   0.125E+01-0.890E+00
DMP: 190     0.124570666994E+01    0.96474E+00   -0.55937E+00    36   0.193E+01-0.140E+01
DMP: 191     0.283630871973E+00   -0.96208E+00   -0.37551E+00    36   0.128E+01-0.888E+00
DMP: 192     0.128270735115E+01    0.99908E+00   -0.62745E+00    36   0.215E+01-0.151E+01
DMP: 193     0.280737052591E+00   -0.10020E+01   -0.35383E+00    36   0.123E+01-0.893E+00
DMP: 194     0.126703443683E+01    0.98630E+00   -0.60366E+00    36   0.207E+01-0.147E+01
DMP: 195     0.283160419327E+00   -0.98387E+00   -0.36300E+00    36   0.125E+01-0.897E+00
DMP: 196     0.126538196627E+01    0.98222E+00   -0.59900E+00    36   0.206E+01-0.147E+01
DMP: 197     0.287807640181E+00   -0.97757E+00   -0.37755E+00    36   0.128E+01-0.892E+00
DMP: 198     0.128558899326E+01    0.99778E+00   -0.63266E+00    36   0.217E+01-0.154E+01
DMP: 199     0.282297552137E+00   -0.10033E+01   -0.35356E+00    36   0.123E+01-0.893E+00
DMP: 200     0.131015209966E+01    0.10279E+01   -0.66850E+00    36   0.229E+01-0.162E+01
DMP: 201     0.288087284455E+00   -0.10221E+01   -0.36397E+00    36   0.126E+01-0.909E+00
DMP: 202     0.126067806697E+01    0.97259E+00   -0.59660E+00    36   0.205E+01-0.146E+01
DMP: 203     0.289601953605E+00   -0.97108E+00   -0.37739E+00    36   0.128E+01-0.893E+00
DMP: 204     0.125146528591E+01    0.96186E+00   -0.57264E+00    36   0.198E+01-0.144E+01
DMP: 205     0.279328656681E+00   -0.97214E+00   -0.35207E+00    36   0.122E+01-0.880E+00
DMP: 206     0.124031129972E+01    0.96098E+00   -0.55240E+00    36   0.191E+01-0.138E+01
DMP: 207     0.278829066478E+00   -0.96148E+00   -0.35993E+00    36   0.124E+01-0.885E+00
DMP: 208     0.127556126811E+01    0.99673E+00   -0.62145E+00    36   0.213E+01-0.150E+01
DMP: 209     0.285884002732E+00   -0.98968E+00   -0.37350E+00    36   0.128E+01-0.901E+00
DMP: 210     0.129946099202E+01    0.10136E+01   -0.66283E+00    36   0.226E+01-0.157E+01
DMP: 211     0.284476838926E+00   -0.10150E+01   -0.35357E+00    36   0.123E+01-0.901E+00
DMP: 212     0.127597021870E+01    0.99149E+00   -0.61359E+00    36   0.211E+01-0.150E+01
DMP: 213     0.289654927639E+00   -0.98632E+00   -0.37070E+00    36   0.127E+01-0.887E+00
DMP: 214     0.126352535758E+01    0.97387E+00   -0.59352E+00    36   0.205E+01-0.147E+01
DMP: 215     0.287532818641E+00   -0.97599E+00   -0.37408E+00    36   0.128E+01-0.897E+00
DMP: 216     0.129694251647E+01    0.10094E+01   -0.64889E+00    36   0.223E+01-0.159E+01
DMP: 217     0.284393388870E+00   -0.10125E+01   -0.35324E+00    36   0.123E+01-0.898E+00
DMP: 218     0.125773212990E+01    0.97334E+00   -0.59181E+00    36   0.203E+01-0.144E+01
DMP: 219     0.285944670532E+00   -0.97179E+00   -0.36607E+00    36   0.125E+01-0.886E+00
DMP: 220     0.124122384450E+01    0.95528E+00   -0.55624E+00    36   0.192E+01-0.140E+01
DMP: 221     0.283810660718E+00   -0.95741E+00   -0.37229E+00    36   0.127E+01-0.889E+00
DMP: 222     0.129522430997E+01    0.10114E+01   -0.63412E+00    36   0.219E+01-0.157E+01
DMP: 223     0.282596968360E+00   -0.10126E+01   -0.35160E+00    36   0.122E+01-0.899E+00
DMP: 224     0.125589830613E+01    0.97330E+00   -0.58707E+00    36   0.201E+01-0.141E+01
DMP: 225     0.287101286586E+00   -0.96880E+00   -0.36895E+00    36   0.126E+01-0.883E+00
DMP: 226     0.127779618848E+01    0.99069E+00   -0.62278E+00    36   0.214E+01-0.153E+01
DMP: 227     0.287470442511E+00   -0.99033E+00   -0.37232E+00    36   0.128E+01-0.904E+00
DMP: 228     0.128942987437E+01    0.10020E+01   -0.63959E+00    36   0.219E+01-0.155E+01
DMP: 229     0.284509399873E+00   -0.10049E+01   -0.35337E+00    36   0.123E+01-0.895E+00
DMP: 230     0.126022884960E+01    0.97572E+00   -0.59229E+00    36   0.204E+01-0.146E+01
DMP: 231     0.286289798187E+00   -0.97394E+00   -0.36574E+00    36   0.125E+01-0.889E+00
DMP: 232     0.127584649054E+01    0.98956E+00   -0.61266E+00    36   0.211E+01-0.152E+01
DMP: 233     0.288117659602E+00   -0.98773E+00   -0.37701E+00    36   0.129E+01-0.910E+00
DMP: 234     0.124426409540E+01    0.95615E+00   -0.56774E+00    36   0.195E+01-0.139E+01
DMP: 235     0.283583877995E+00   -0.96068E+00   -0.36110E+00    36   0.123E+01-0.867E+00
DMP: 236     0.132212258040E+01    0.10385E+01   -0.67697E+00    36   0.234E+01-0.169E+01
DMP: 237     0.289393784356E+00   -0.10327E+01   -0.36578E+00    36   0.126E+01-0.914E+00
DMP: 238     0.126141910289E+01    0.97203E+00   -0.60290E+00    36   0.205E+01-0.143E+01
DMP: 239     0.290011143844E+00   -0.97141E+00   -0.37461E+00    36   0.128E+01-0.900E+00
DMP: 240     0.127300074828E+01    0.98299E+00   -0.60567E+00    36   0.210E+01-0.153E+01
DMP: 241     0.286550209395E+00   -0.98645E+00   -0.36157E+00    36   0.124E+01-0.879E+00
DMP: 242     0.124695285354E+01    0.96040E+00   -0.56930E+00    36   0.196E+01-0.140E+01
DMP: 243     0.282675715413E+00   -0.96428E+00   -0.36116E+00    36   0.124E+01-0.886E+00
DMP: 244     0.126669824560E+01    0.98402E+00   -0.59909E+00    36   0.206E+01-0.148E+01
DMP: 245     0.285635276155E+00   -0.98106E+00   -0.37183E+00    36   0.127E+01-0.902E+00
DMP: 246     0.123615417497E+01    0.95052E+00   -0.55151E+00    36   0.190E+01-0.135E+01
DMP: 247     0.280054537299E+00   -0.95610E+00   -0.35733E+00    36   0.122E+01-0.868E+00
DMP: 248     0.131740009964E+01    0.10373E+01   -0.66714E+00    36   0.230E+01-0.166E+01
DMP: 249     0.287199278818E+00   -0.10302E+01   -0.36220E+00    36   0.125E+01-0.913E+00
DMP: 250     0.126218681537E+01    0.97499E+00   -0.60285E+00    36   0.205E+01-0.142E+01
DMP: 251     0.289395463584E+00   -0.97279E+00   -0.37458E+00    36   0.128E+01-0.899E+00
DMP: 252     0.133746326745E+01    0.10481E+01   -0.70321E+00    36   0.244E+01-0.177E+01
DMP: 253     0.291146442576E+00   -0.10463E+01   -0.35932E+00    36   0.124E+01-0.906E+00
DMP: 254     0.127322457099E+01    0.98208E+00   -0.62524E+00    36   0.213E+01-0.149E+01
DMP: 255     0.289694423184E+00   -0.98353E+00   -0.36439E+00    36   0.125E+01-0.897E+00
DMP: 256     0.125565661081E+01    0.96596E+00   -0.58193E+00    36   0.202E+01-0.148E+01
DMP: 257     0.291820371246E+00   -0.96384E+00   -0.37876E+00    36   0.129E+01-0.886E+00
DMP: 258     0.124278551693E+01    0.95097E+00   -0.55921E+00    36   0.193E+01-0.139E+01
DMP: 259     0.281852346870E+00   -0.96093E+00   -0.36673E+00    36   0.126E+01-0.890E+00
DMP: 260     0.123092504788E+01    0.94907E+00   -0.53829E+00    36   0.186E+01-0.134E+01
DMP: 261     0.278886278926E+00   -0.95204E+00   -0.36092E+00    36   0.124E+01-0.881E+00
DMP: 262     0.128830255437E+01    0.10094E+01   -0.62936E+00    36   0.216E+01-0.154E+01
DMP: 263     0.289024818415E+00   -0.99928E+00   -0.37710E+00    36   0.129E+01-0.907E+00
DMP: 264     0.124286291309E+01    0.95384E+00   -0.56700E+00    36   0.194E+01-0.137E+01
DMP: 265     0.280891983481E+00   -0.96197E+00   -0.35420E+00    36   0.122E+01-0.876E+00
DMP: 266     0.132465528073E+01    0.10438E+01   -0.68390E+00    36   0.236E+01-0.171E+01
DMP: 267     0.288793103435E+00   -0.10359E+01   -0.36278E+00    36   0.126E+01-0.915E+00
DMP: 268     0.126250784683E+01    0.97371E+00   -0.60616E+00    36   0.206E+01-0.144E+01
DMP: 269     0.291966465462E+00   -0.97054E+00   -0.37758E+00    36   0.129E+01-0.894E+00
DMP: 270     0.128163578132E+01    0.98967E+00   -0.62040E+00    36   0.215E+01-0.157E+01
DMP: 271     0.284713921973E+00   -0.99692E+00   -0.35457E+00    36   0.123E+01-0.890E+00
DMP: 272     0.126543670279E+01    0.98072E+00   -0.59870E+00    36   0.206E+01-0.147E+01
DMP: 273     0.284555864699E+00   -0.98088E+00   -0.35887E+00    36   0.124E+01-0.890E+00
DMP: 274     0.127374588667E+01    0.98919E+00   -0.60639E+00    36   0.209E+01-0.151E+01
DMP: 275     0.289297501015E+00   -0.98445E+00   -0.37311E+00    36   0.128E+01-0.905E+00
DMP: 276     0.124645928707E+01    0.95716E+00   -0.56814E+00    36   0.195E+01-0.140E+01
DMP: 277     0.282887959796E+00   -0.96357E+00   -0.36602E+00    36   0.126E+01-0.894E+00
DMP: 278     0.123345726433E+01    0.95057E+00   -0.54892E+00    36   0.189E+01-0.136E+01
DMP: 279     0.284201910549E+00   -0.94926E+00   -0.37172E+00    36   0.126E+01-0.870E+00
DMP: 280     0.131202184835E+01    0.10278E+01   -0.67066E+00    36   0.229E+01-0.161E+01
DMP: 281     0.289397943153E+00   -0.10226E+01   -0.37402E+00    36   0.128E+01-0.914E+00
DMP: 282     0.126348347121E+01    0.97409E+00   -0.60604E+00    36   0.207E+01-0.145E+01
DMP: 283     0.283360486521E+00   -0.98012E+00   -0.35495E+00    36   0.122E+01-0.883E+00
DMP: 284     0.127031314904E+01    0.98695E+00   -0.58397E+00    36   0.203E+01-0.148E+01
DMP: 285     0.285771684610E+00   -0.98454E+00   -0.36506E+00    36   0.125E+01-0.884E+00
DMP: 286     0.126302156789E+01    0.97725E+00   -0.57683E+00    36   0.199E+01-0.142E+01
DMP: 287     0.285658872360E+00   -0.97736E+00   -0.37016E+00    36   0.127E+01-0.896E+00
DMP: 288     0.131905063833E+01    0.10334E+01   -0.67951E+00    36   0.232E+01-0.164E+01
DMP: 289     0.286512094114E+00   -0.10325E+01   -0.35484E+00    36   0.123E+01-0.903E+00
DMP: 290     0.127004811856E+01    0.98354E+00   -0.60720E+00    36   0.208E+01-0.147E+01
DMP: 291     0.288721892462E+00   -0.98133E+00   -0.36598E+00    36   0.125E+01-0.887E+00
DMP: 292     0.130625190231E+01    0.10175E+01   -0.65923E+00    36   0.227E+01-0.164E+01
DMP: 293     0.291345524138E+00   -0.10149E+01   -0.37059E+00    36   0.128E+01-0.917E+00
DMP: 294     0.126048239635E+01    0.96914E+00   -0.59910E+00    36   0.205E+01-0.145E+01
DMP: 295     0.291181167329E+00   -0.96930E+00   -0.37086E+00    36   0.126E+01-0.873E+00
DMP: 296     0.126918114084E+01    0.97800E+00   -0.60725E+00    36   0.209E+01-0.151E+01
DMP: 297     0.285670376096E+00   -0.98351E+00   -0.36188E+00    36   0.125E+01-0.892E+00
DMP: 298     0.128016245532E+01    0.99449E+00   -0.63279E+00    36   0.217E+01-0.153E+01
DMP: 299     0.288764448741E+00   -0.99140E+00   -0.37171E+00    36   0.127E+01-0.904E+00
DMP: 300     0.127620826752E+01    0.98744E+00   -0.62841E+00    36   0.215E+01-0.150E+01
   1 F= 0.12762083E+01 E0= 0.12911209E+01  d E =0.127621E+01  mag=     0.9978
