<?xml version="1.0" encoding="ISO-8859-1"?>
<modeling>
 <generator>
  <i name="program" type="string">vasp </i>
  <i name="version" type="string">5.4.4.18Apr17-6-g9f103f2a35  </i>
  <i name="subversion" type="string">(build Nov 08 2019 15:19:53) gamma-only         parallel </i>
  <i name="platform" type="string">LinuxIFC </i>
  <i name="date" type="string">2020 11 30 </i>
  <i name="time" type="string">09:31:07 </i>
 </generator>
 <incar>
  <i type="string" name="PREC">accurate</i>
  <i type="string" name="ALGO"> D</i>
  <i type="int" name="ISPIN">     2</i>
  <i type="int" name="NELM">   300</i>
  <i type="int" name="IBRION">     2</i>
  <i name="EDIFF">      0.00005000</i>
  <i type="int" name="NSW">    99</i>
  <i type="int" name="ISIF">     2</i>
  <i name="ENCUT">    520.00000000</i>
  <v name="MAGMOM">      0.60000000</v>
  <i type="string" name="LREAL"> Auto</i>
  <i type="int" name="ISMEAR">     0</i>
  <i name="SIGMA">      0.05000000</i>
  <i type="logical" name="LWAVE"> F  </i>
  <i type="int" name="LORBIT">    11</i>
  <i type="logical" name="LASPH"> T  </i>
  <v type="int" name="KPOINT_BSE">    -1     0     0     0</v>
  <i type="int" name="NELM">   300</i>
  <i type="logical" name="LASPH"> T  </i>
 </incar>
 <structure name="primitive_cell" >
  <crystal>
   <varray name="basis" >
    <v>      10.00000000       0.00000000       0.00000000 </v>
    <v>       0.00000000      10.00000000       0.00000000 </v>
    <v>       0.00000000       0.00000000      10.00000000 </v>
   </varray>
   <i name="volume">   1000.00000000 </i>
   <varray name="rec_basis" >
    <v>       0.10000000       0.00000000       0.00000000 </v>
    <v>       0.00000000       0.10000000       0.00000000 </v>
    <v>       0.00000000       0.00000000       0.10000000 </v>
   </varray>
  </crystal>
  <varray name="positions" >
   <v>      -0.50000000      -0.50000000      -0.50000000 </v>
  </varray>
 </structure>
 <varray name="primitive_index" >
  <v type="int" >        1 </v>
 </varray>
 <kpoints>
  <generation param="Gamma">
   <v type="int" name="divisions">       1        1        1 </v>
   <v name="usershift">      0.00000000       0.00000000       0.00000000 </v>
   <v name="genvec1">      1.00000000       0.00000000       0.00000000 </v>
   <v name="genvec2">      0.00000000       1.00000000       0.00000000 </v>
   <v name="genvec3">      0.00000000       0.00000000       1.00000000 </v>
   <v name="shift">      0.00000000       0.00000000       0.00000000 </v>
  </generation>
  <varray name="kpointlist" >
   <v>       0.00000000       0.00000000       0.00000000 </v>
  </varray>
  <varray name="weights" >
   <v>       1.00000000 </v>
  </varray>
 </kpoints>
 <parameters>
  <separator name="general" >
   <i type="string" name="SYSTEM">unknown system</i>
   <i type="logical" name="LCOMPAT"> F  </i>
  </separator>
  <separator name="electronic" >
   <i type="string" name="PREC">accura</i>
   <i name="ENMAX">    520.00000000</i>
   <i name="ENAUG">    583.57500000</i>
   <i name="EDIFF">      0.00005000</i>
   <i type="int" name="IALGO">    53</i>
   <i type="int" name="IWAVPR">    11</i>
   <i type="int" name="NBANDS">    36</i>
   <i name="NELECT">     11.00000000</i>
   <i type="int" name="TURBO">     0</i>
   <i type="int" name="IRESTART">     0</i>
   <i type="int" name="NREBOOT">     0</i>
   <i type="int" name="NMIN">     0</i>
   <i name="EREF">      0.00000000</i>
   <separator name="electronic smearing" >
    <i type="int" name="ISMEAR">     0</i>
    <i name="SIGMA">      0.05000000</i>
    <i name="KSPACING">      0.50000000</i>
    <i type="logical" name="KGAMMA"> T  </i>
   </separator>
   <separator name="electronic projectors" >
    <i type="logical" name="LREAL"> T  </i>
    <v name="ROPT">     -0.00025000</v>
    <i type="int" name="LMAXPAW">  -100</i>
    <i type="int" name="LMAXMIX">     2</i>
    <i type="logical" name="NLSPLINE"> F  </i>
   </separator>
   <separator name="electronic startup" >
    <i type="int" name="ISTART">     0</i>
    <i type="int" name="ICHARG">     2</i>
    <i type="int" name="INIWAV">     1</i>
   </separator>
   <separator name="electronic spin" >
    <i type="int" name="ISPIN">     2</i>
    <i type="logical" name="LNONCOLLINEAR"> F  </i>
    <v name="MAGMOM">      0.60000000</v>
    <i name="NUPDOWN">     -1.00000000</i>
    <i type="logical" name="LSORBIT"> F  </i>
    <v name="SAXIS">      0.00000000      0.00000000      1.00000000</v>
    <i type="logical" name="LSPIRAL"> F  </i>
    <v name="QSPIRAL">      0.00000000      0.00000000      0.00000000</v>
    <i type="logical" name="LZEROZ"> F  </i>
   </separator>
   <separator name="electronic exchange-correlation" >
    <i type="logical" name="LASPH"> T  </i>
    <i type="logical" name="LMETAGGA"> F  </i>
   </separator>
   <separator name="electronic convergence" >
    <i type="int" name="NELM">   300</i>
    <i type="int" name="NELMDL">    -5</i>
    <i type="int" name="NELMIN">     2</i>
    <i name="ENINI">    520.00000000</i>
    <separator name="electronic convergence detail" >
     <i type="logical" name="LDIAG"> T  </i>
     <i type="logical" name="LSUBROT"> F  </i>
     <i name="WEIMIN">      0.00100000</i>
     <i name="EBREAK">      0.00000035</i>
     <i name="DEPER">      0.30000000</i>
     <i type="int" name="NRMM">     4</i>
     <i name="TIME">      0.40000000</i>
    </separator>
   </separator>
   <separator name="electronic mixer" >
    <i name="AMIX">      0.40000000</i>
    <i name="BMIX">      1.00000000</i>
    <i name="AMIN">      0.10000000</i>
    <i name="AMIX_MAG">      1.60000000</i>
    <i name="BMIX_MAG">      1.00000000</i>
    <separator name="electronic mixer details" >
     <i type="int" name="IMIX">     4</i>
     <i type="logical" name="MIXFIRST"> F  </i>
     <i type="int" name="MAXMIX">   -45</i>
     <i name="WC">    100.00000000</i>
     <i type="int" name="INIMIX">     1</i>
     <i type="int" name="MIXPRE">     1</i>
     <i type="int" name="MREMOVE">     5</i>
    </separator>
   </separator>
   <separator name="electronic dipolcorrection" >
    <i type="logical" name="LDIPOL"> F  </i>
    <i type="logical" name="LMONO"> F  </i>
    <i type="int" name="IDIPOL">     0</i>
    <i name="EPSILON">      1.00000000</i>
    <v name="DIPOL">   -100.00000000   -100.00000000   -100.00000000</v>
    <i name="EFIELD">      0.00000000</i>
   </separator>
  </separator>
  <separator name="grids" >
   <i type="int" name="NGX">    80</i>
   <i type="int" name="NGY">    80</i>
   <i type="int" name="NGZ">    80</i>
   <i type="int" name="NGXF">   160</i>
   <i type="int" name="NGYF">   160</i>
   <i type="int" name="NGZF">   160</i>
   <i type="logical" name="ADDGRID"> F  </i>
  </separator>
  <separator name="ionic" >
   <i type="int" name="NSW">    99</i>
   <i type="int" name="IBRION">     2</i>
   <i type="int" name="MDALGO">     0</i>
   <i type="int" name="ISIF">     2</i>
   <i name="PSTRESS">      0.00000000</i>
   <i name="EDIFFG">      0.00050000</i>
   <i type="int" name="NFREE">     1</i>
   <i name="POTIM">      0.50000000</i>
   <i name="SMASS">     -3.00000000</i>
   <i name="SCALEE">      1.00000000</i>
  </separator>
  <separator name="ionic md" >
   <i name="TEBEG">      0.00010000</i>
   <i name="TEEND">      0.00010000</i>
   <i type="int" name="NBLOCK">     1</i>
   <i type="int" name="KBLOCK">    99</i>
   <i type="int" name="NPACO">   256</i>
   <i name="APACO">     16.00000000</i>
  </separator>
  <separator name="symmetry" >
   <i type="int" name="ISYM">     2</i>
   <i name="SYMPREC">      0.00001000</i>
  </separator>
  <separator name="dos" >
   <i type="int" name="LORBIT">    11</i>
   <v name="RWIGS">     -1.00000000</v>
   <i type="int" name="NEDOS">   301</i>
   <i name="EMIN">     10.00000000</i>
   <i name="EMAX">    -10.00000000</i>
   <i name="EFERMI">      0.00000000</i>
  </separator>
  <separator name="writing" >
   <i type="int" name="NWRITE">     2</i>
   <i type="logical" name="LWAVE"> F  </i>
   <i type="logical" name="LDOWNSAMPLE"> F  </i>
   <i type="logical" name="LCHARG"> T  </i>
   <i type="logical" name="LPARD"> F  </i>
   <i type="logical" name="LVTOT"> F  </i>
   <i type="logical" name="LVHAR"> F  </i>
   <i type="logical" name="LELF"> F  </i>
   <i type="logical" name="LOPTICS"> F  </i>
   <v name="STM">      0.00000000      0.00000000      0.00000000      0.00000000      0.00000000      0.00000000      0.00000000</v>
  </separator>
  <separator name="performance" >
   <i type="int" name="NPAR">    36</i>
   <i type="int" name="NSIM">     4</i>
   <i type="int" name="NBLK">    -1</i>
   <i type="logical" name="LPLANE"> T  </i>
   <i type="logical" name="LSCALAPACK"> T  </i>
   <i type="logical" name="LSCAAWARE"> F  </i>
   <i type="logical" name="LSCALU"> F  </i>
   <i type="logical" name="LASYNC"> F  </i>
   <i type="logical" name="LORBITALREAL"> F  </i>
  </separator>
  <separator name="miscellaneous" >
   <i type="int" name="IDIOT">     3</i>
   <i type="int" name="ISPECIAL">     0</i>
   <i type="logical" name="LMUSIC"> F  </i>
   <v name="POMASS">    138.90000000</v>
   <v name="DARWINR">      0.00000000</v>
   <v name="DARWINV">      1.00000000</v>
   <i type="logical" name="LCORR"> T  </i>
  </separator>
  <i type="logical" name="GGA_COMPAT"> T  </i>
  <i type="logical" name="LBERRY"> F  </i>
  <i type="int" name="ICORELEVEL">     0</i>
  <i type="logical" name="LDAU"> F  </i>
  <i type="int" name="I_CONSTRAINED_M">     0</i>
  <separator name="electronic exchange-correlation" >
   <i type="string" name="GGA">--</i>
   <i type="int" name="VOSKOWN">     0</i>
   <i type="logical" name="LHFCALC"> F  </i>
   <i type="string" name="PRECFOCK"></i>
   <i type="logical" name="LSYMGRAD"> F  </i>
   <i type="logical" name="LHFONE"> F  </i>
   <i type="logical" name="LRHFCALC"> F  </i>
   <i type="logical" name="LTHOMAS"> F  </i>
   <i type="logical" name="LMODELHF"> F  </i>
   <i name="ENCUT4O">     -1.00000000</i>
   <i type="int" name="EXXOEP">     0</i>
   <i type="int" name="FOURORBIT">     0</i>
   <i name="AEXX">      0.00000000</i>
   <i name="HFALPHA">      0.00000000</i>
   <i name="MCALPHA">      0.00000000</i>
   <i name="ALDAX">      1.00000000</i>
   <i name="AGGAX">      1.00000000</i>
   <i name="ALDAC">      1.00000000</i>
   <i name="AGGAC">      1.00000000</i>
   <i type="int" name="NKREDX">     1</i>
   <i type="int" name="NKREDY">     1</i>
   <i type="int" name="NKREDZ">     1</i>
   <i type="logical" name="SHIFTRED"> F  </i>
   <i type="logical" name="ODDONLY"> F  </i>
   <i type="logical" name="EVENONLY"> F  </i>
   <i type="int" name="LMAXFOCK">     0</i>
   <i type="int" name="NMAXFOCKAE">     0</i>
   <i type="logical" name="LFOCKAEDFT"> F  </i>
   <i name="HFSCREEN">      0.00000000</i>
   <i name="HFSCREENC">      0.00000000</i>
   <i type="int" name="NBANDSGWLOW">     0</i>
  </separator>
  <separator name="vdW DFT" >
   <i type="logical" name="LUSE_VDW"> F  </i>
   <i name="Zab_VDW">     -0.84910000</i>
   <i name="PARAM1">      0.12340000</i>
   <i name="PARAM2">      1.00000000</i>
   <i name="PARAM3">      0.00000000</i>
  </separator>
  <separator name="model GW" >
   <i type="int" name="MODEL_GW">     0</i>
   <i name="MODEL_EPS0">    600.00000000</i>
   <i name="MODEL_ALPHA">      1.00000000</i>
  </separator>
  <separator name="linear response parameters" >
   <i type="logical" name="LEPSILON"> F  </i>
   <i type="logical" name="LRPA"> F  </i>
   <i type="logical" name="LNABLA"> F  </i>
   <i type="logical" name="LVEL"> F  </i>
   <i type="int" name="KINTER">     0</i>
   <i name="CSHIFT">      0.10000000</i>
   <i name="OMEGAMAX">     -1.00000000</i>
   <i name="DEG_THRESHOLD">      0.00200000</i>
   <i name="RTIME">     -0.10000000</i>
   <i name="WPLASMAI">      0.00000000</i>
   <v name="DFIELD">      0.00000000      0.00000000      0.00000000</v>
   <v name="WPLASMA">      0.00000000      0.00000000      0.00000000      0.00000000      0.00000000      0.00000000      0.00000000      0.00000000      0.00000000</v>
  </separator>
  <separator name="orbital magnetization" >
   <i type="logical" name="NUCIND"> F  </i>
   <v name="MAGPOS">      0.00000000      0.00000000      0.00000000</v>
   <i type="logical" name="LNICSALL"> T  </i>
   <i type="logical" name="ORBITALMAG"> F  </i>
   <i type="logical" name="LMAGBLOCH"> F  </i>
   <i type="logical" name="LCHIMAG"> F  </i>
   <i type="logical" name="LGAUGE"> T  </i>
   <i type="int" name="MAGATOM">     0</i>
   <v name="MAGDIPOL">      0.00000000      0.00000000      0.00000000</v>
   <v name="AVECCONST">      0.00000000      0.00000000      0.00000000</v>
  </separator>
  <separator name="response functions" >
   <i type="logical" name="LADDER"> F  </i>
   <i type="logical" name="LRPAFORCE"> F  </i>
   <i type="logical" name="LFXC"> F  </i>
   <i type="logical" name="LHARTREE"> T  </i>
   <i type="int" name="IBSE">     0</i>
   <v type="int" name="KPOINT">    -1     0     0     0</v>
   <i type="logical" name="LTCTE"> F  </i>
   <i type="logical" name="LTETE"> F  </i>
   <i type="logical" name="LTRIPLET"> F  </i>
   <i type="logical" name="LFXCEPS"> F  </i>
   <i type="logical" name="LFXHEG"> F  </i>
   <i type="int" name="NATURALO">     2</i>
   <i type="logical" name="L2ORDER"> F  </i>
   <i type="logical" name="LMP2LT"> F  </i>
   <i type="logical" name="LUSEW"> F  </i>
   <i name="ENCUTGW">     -2.00000000</i>
   <i name="ENCUTGWSOFT">     -2.00000000</i>
   <i name="ENCUTLF">     -1.00000000</i>
   <i type="int" name="LMAXMP2">    -1</i>
   <i name="SCISSOR">      0.00000000</i>
   <i type="int" name="NOMEGA">     0</i>
   <i type="int" name="NOMEGAR">     0</i>
   <i type="int" name="NBANDSGW">    -1</i>
   <i type="int" name="NBANDSO">    -1</i>
   <i type="int" name="NBANDSV">    -1</i>
   <i type="int" name="NELM">   300</i>
   <i type="int" name="NELMHF">     1</i>
   <i type="int" name="DIM">     3</i>
   <i type="int" name="ANTIRES">     0</i>
   <i name="OMEGAMAX">    -30.00000000</i>
   <i name="OMEGAMIN">    -30.00000000</i>
   <i name="OMEGATL">   -200.00000000</i>
   <i type="int" name="OMEGAGRID">   140</i>
   <i name="CSHIFT">     -0.10000000</i>
   <i type="logical" name="SELFENERGY"> F  </i>
   <i type="logical" name="LSPECTRAL"> F  </i>
   <i type="logical" name="LSPECTRALGW"> F  </i>
   <i type="logical" name="LSINGLES"> F  </i>
   <i type="logical" name="LFERMIGW"> F  </i>
   <i type="logical" name="ODDONLYGW"> F  </i>
   <i type="logical" name="EVENONLYGW"> F  </i>
   <i type="int" name="NKREDLFX">     1</i>
   <i type="int" name="NKREDLFY">     1</i>
   <i type="int" name="NKREDLFZ">     1</i>
   <i type="int" name="MAXMEM">  2800</i>
   <i type="int" name="TELESCOPE">     0</i>
   <i type="int" name="TAUPAR">     1</i>
   <i type="int" name="OMEGAPAR">    -1</i>
   <i name="LAMBDA">      1.00000000</i>
  </separator>
  <separator name="External order field" >
   <i name="OFIELD_KAPPA">      0.00000000</i>
   <v name="OFIELD_K">      0.00000000      0.00000000      0.00000000</v>
   <i name="OFIELD_Q6_NEAR">      0.00000000</i>
   <i name="OFIELD_Q6_FAR">      0.00000000</i>
   <i name="OFIELD_A">      0.00000000</i>
  </separator>
 </parameters>
 <atominfo>
  <atoms>       1 </atoms>
  <types>       1 </types>
  <array name="atoms" >
   <dimension dim="1">ion</dimension>
   <field type="string">element</field>
   <field type="int">atomtype</field>
   <set>
    <rc><c>La</c><c>   1</c></rc>
   </set>
  </array>
  <array name="atomtypes" >
   <dimension dim="1">type</dimension>
   <field type="int">atomspertype</field>
   <field type="string">element</field>
   <field>mass</field>
   <field>valence</field>
   <field type="string">pseudopotential</field>
   <set>
    <rc><c>   1</c><c>La</c><c>    138.90000000</c><c>     11.00000000</c><c>  PAW_PBE La 06Sep2000                  </c></rc>
   </set>
  </array>
 </atominfo>
 <structure name="initialpos" >
  <crystal>
   <varray name="basis" >
    <v>      10.00000000       0.00000000       0.00000000 </v>
    <v>       0.00000000      10.00000000       0.00000000 </v>
    <v>       0.00000000       0.00000000      10.00000000 </v>
   </varray>
   <i name="volume">   1000.00000000 </i>
   <varray name="rec_basis" >
    <v>       0.10000000       0.00000000       0.00000000 </v>
    <v>       0.00000000       0.10000000       0.00000000 </v>
    <v>       0.00000000       0.00000000       0.10000000 </v>
   </varray>
  </crystal>
  <varray name="positions" >
   <v>       0.50000000       0.50000000       0.50000000 </v>
  </varray>
 </structure>
 <calculation>
  <scstep>
   <time name="total">    1.34    1.35</time>
   <energy>
    <i name="alphaZ">      1.33529066 </i>
    <i name="ewald">   -247.18170407 </i>
    <i name="hartreedc">   -432.22558194 </i>
    <i name="XCdc">     27.74931211 </i>
    <i name="pawpsdc">    643.89481631 </i>
    <i name="pawaedc">   -643.22520187 </i>
    <i name="eentropy">     -0.00292525 </i>
    <i name="bandstr">    -63.20345846 </i>
    <i name="atom">    865.97535665 </i>
    <i name="e_fr_energy">    153.11590414 </i>
    <i name="e_wo_entrp">    153.11882939 </i>
    <i name="e_0_energy">    153.11736676 </i>
   </energy>
  </scstep>
  <scstep>
   <time name="total">    0.40    0.40</time>
   <energy>
    <i name="e_fr_energy">    120.71672083 </i>
    <i name="e_wo_entrp">    120.74949619 </i>
    <i name="e_0_energy">    120.73310851 </i>
   </energy>
  </scstep>
  <scstep>
   <time name="total">    0.41    0.41</time>
   <energy>
    <i name="e_fr_energy">     42.59186721 </i>
    <i name="e_wo_entrp">     42.65138971 </i>
    <i name="e_0_energy">     42.62162846 </i>
   </energy>
  </scstep>
  <scstep>
   <time name="total">    0.40    0.40</time>
   <energy>
    <i name="e_fr_energy">      1.79319410 </i>
    <i name="e_wo_entrp">      1.88696836 </i>
    <i name="e_0_energy">      1.84008123 </i>
   </energy>
  </scstep>
  <scstep>
   <time name="total">    0.62    0.62</time>
   <energy>
    <i name="e_fr_energy">     -2.32806241 </i>
    <i name="e_wo_entrp">     -2.23116718 </i>
    <i name="e_0_energy">     -2.27961480 </i>
   </energy>
  </scstep>
  <scstep>
   <time name="total">    1.39    1.40</time>
   <energy>
    <i name="e_fr_energy">     42.08939276 </i>
    <i name="e_wo_entrp">     42.10533682 </i>
    <i name="e_0_energy">     42.09736479 </i>
   </energy>
  </scstep>
  <scstep>
   <time name="total">    1.39    1.39</time>
   <energy>
    <i name="e_fr_energy">     29.47756379 </i>
    <i name="e_wo_entrp">     29.50624946 </i>
    <i name="e_0_energy">     29.49190662 </i>
   </energy>
  </scstep>
  <scstep>
   <time name="total">    1.23    1.23</time>
   <energy>
    <i name="e_fr_energy">      9.53521142 </i>
    <i name="e_wo_entrp">      9.54360152 </i>
    <i name="e_0_energy">      9.53940647 </i>
   </energy>
  </scstep>
  <scstep>
   <time name="total">    1.36    1.36</time>
   <energy>
    <i name="e_fr_energy">      3.66586228 </i>
    <i name="e_wo_entrp">      3.66966465 </i>
    <i name="e_0_energy">      3.66776346 </i>
   </energy>
  </scstep>
  <scstep>
   <time name="total">    1.36    1.36</time>
   <energy>
    <i name="e_fr_energy">      1.12716665 </i>
    <i name="e_wo_entrp">      1.13022515 </i>
    <i name="e_0_energy">      1.12869590 </i>
   </energy>
  </scstep>
  <scstep>
   <time name="total">    1.36    1.36</time>
   <energy>
    <i name="e_fr_energy">      0.46978832 </i>
    <i name="e_wo_entrp">      0.47384834 </i>
    <i name="e_0_energy">      0.47181833 </i>
   </energy>
  </scstep>
  <scstep>
   <time name="total">    1.39    1.39</time>
   <energy>
    <i name="e_fr_energy">      0.13385939 </i>
    <i name="e_wo_entrp">      0.14014080 </i>
    <i name="e_0_energy">      0.13700010 </i>
   </energy>
  </scstep>
  <scstep>
   <time name="total">    1.37    1.37</time>
   <energy>
    <i name="e_fr_energy">     -0.03514989 </i>
    <i name="e_wo_entrp">     -0.02821295 </i>
    <i name="e_0_energy">     -0.03168142 </i>
   </energy>
  </scstep>
  <scstep>
   <time name="total">    1.35    1.36</time>
   <energy>
    <i name="e_fr_energy">     -0.11203357 </i>
    <i name="e_wo_entrp">     -0.10499061 </i>
    <i name="e_0_energy">     -0.10851209 </i>
   </energy>
  </scstep>
  <scstep>
   <time name="total">    1.37    1.37</time>
   <energy>
    <i name="e_fr_energy">     -0.15572736 </i>
    <i name="e_wo_entrp">     -0.14816772 </i>
    <i name="e_0_energy">     -0.15194754 </i>
   </energy>
  </scstep>
  <scstep>
   <time name="total">    1.37    1.37</time>
   <energy>
    <i name="e_fr_energy">     -0.18508005 </i>
    <i name="e_wo_entrp">     -0.17657970 </i>
    <i name="e_0_energy">     -0.18082987 </i>
   </energy>
  </scstep>
  <scstep>
   <time name="total">    1.36    1.36</time>
   <energy>
    <i name="e_fr_energy">     -0.20845462 </i>
    <i name="e_wo_entrp">     -0.19815195 </i>
    <i name="e_0_energy">     -0.20330329 </i>
   </energy>
  </scstep>
  <scstep>
   <time name="total">    1.37    1.37</time>
   <energy>
    <i name="e_fr_energy">     -0.23793365 </i>
    <i name="e_wo_entrp">     -0.21744354 </i>
    <i name="e_0_energy">     -0.22768860 </i>
   </energy>
  </scstep>
  <scstep>
   <time name="total">    1.36    1.36</time>
   <energy>
    <i name="e_fr_energy">     -0.29267511 </i>
    <i name="e_wo_entrp">     -0.26705980 </i>
    <i name="e_0_energy">     -0.27986746 </i>
   </energy>
  </scstep>
  <scstep>
   <time name="total">    1.36    1.36</time>
   <energy>
    <i name="e_fr_energy">     -0.33383261 </i>
    <i name="e_wo_entrp">     -0.31252961 </i>
    <i name="e_0_energy">     -0.32318111 </i>
   </energy>
  </scstep>
  <scstep>
   <time name="total">    1.37    1.37</time>
   <energy>
    <i name="e_fr_energy">     -0.27581380 </i>
    <i name="e_wo_entrp">     -0.22326968 </i>
    <i name="e_0_energy">     -0.24954174 </i>
   </energy>
  </scstep>
  <scstep>
   <time name="total">    1.36    1.36</time>
   <energy>
    <i name="e_fr_energy">      1.64239274 </i>
    <i name="e_wo_entrp">      1.66659936 </i>
    <i name="e_0_energy">      1.65449605 </i>
   </energy>
  </scstep>
  <scstep>
   <time name="total">    1.37    1.37</time>
   <energy>
    <i name="e_fr_energy">      0.22017456 </i>
    <i name="e_wo_entrp">      0.25605281 </i>
    <i name="e_0_energy">      0.23811369 </i>
   </energy>
  </scstep>
  <scstep>
   <time name="total">    1.38    1.38</time>
   <energy>
    <i name="e_fr_energy">     -0.03758897 </i>
    <i name="e_wo_entrp">      0.02726613 </i>
    <i name="e_0_energy">     -0.00516142 </i>
   </energy>
  </scstep>
  <scstep>
   <time name="total">    1.39    1.40</time>
   <energy>
    <i name="e_fr_energy">     17.14726055 </i>
    <i name="e_wo_entrp">     17.19017178 </i>
    <i name="e_0_energy">     17.16871617 </i>
   </energy>
  </scstep>
  <scstep>
   <time name="total">    1.36    1.36</time>
   <energy>
    <i name="e_fr_energy">      1.82409532 </i>
    <i name="e_wo_entrp">      1.87570849 </i>
    <i name="e_0_energy">      1.84990191 </i>
   </energy>
  </scstep>
  <scstep>
   <time name="total">    1.37    1.37</time>
   <energy>
    <i name="e_fr_energy">      1.11656291 </i>
    <i name="e_wo_entrp">      1.15929588 </i>
    <i name="e_0_energy">      1.13792940 </i>
   </energy>
  </scstep>
  <scstep>
   <time name="total">    1.36    1.36</time>
   <energy>
    <i name="e_fr_energy">     -0.24846765 </i>
    <i name="e_wo_entrp">     -0.20383896 </i>
    <i name="e_0_energy">     -0.22615331 </i>
   </energy>
  </scstep>
  <scstep>
   <time name="total">    1.35    1.35</time>
   <energy>
    <i name="e_fr_energy">      2.60836087 </i>
    <i name="e_wo_entrp">      2.63655082 </i>
    <i name="e_0_energy">      2.62245584 </i>
   </energy>
  </scstep>
  <scstep>
   <time name="total">    1.38    1.38</time>
   <energy>
    <i name="e_fr_energy">      0.11809948 </i>
    <i name="e_wo_entrp">      0.15752316 </i>
    <i name="e_0_energy">      0.13781132 </i>
   </energy>
  </scstep>
  <scstep>
   <time name="total">    1.37    1.37</time>
   <energy>
    <i name="e_fr_energy">     -0.26819146 </i>
    <i name="e_wo_entrp">     -0.22556610 </i>
    <i name="e_0_energy">     -0.24687878 </i>
   </energy>
  </scstep>
  <scstep>
   <time name="total">    1.37    1.37</time>
   <energy>
    <i name="e_fr_energy">      1.68426263 </i>
    <i name="e_wo_entrp">      1.71446993 </i>
    <i name="e_0_energy">      1.69936628 </i>
   </energy>
  </scstep>
  <scstep>
   <time name="total">    1.36    1.37</time>
   <energy>
    <i name="e_fr_energy">      0.14271841 </i>
    <i name="e_wo_entrp">      0.18272474 </i>
    <i name="e_0_energy">      0.16272158 </i>
   </energy>
  </scstep>
  <scstep>
   <time name="total">    1.38    1.38</time>
   <energy>
    <i name="e_fr_energy">      1.35190658 </i>
    <i name="e_wo_entrp">      1.38042319 </i>
    <i name="e_0_energy">      1.36616489 </i>
   </energy>
  </scstep>
  <scstep>
   <time name="total">    1.36    1.36</time>
   <energy>
    <i name="e_fr_energy">      0.28081600 </i>
    <i name="e_wo_entrp">      0.31865337 </i>
    <i name="e_0_energy">      0.29973469 </i>
   </energy>
  </scstep>
  <scstep>
   <time name="total">    1.35    1.35</time>
   <energy>
    <i name="e_fr_energy">      1.30833823 </i>
    <i name="e_wo_entrp">      1.33763308 </i>
    <i name="e_0_energy">      1.32298566 </i>
   </energy>
  </scstep>
  <scstep>
   <time name="total">    1.37    1.37</time>
   <energy>
    <i name="e_fr_energy">      0.27095612 </i>
    <i name="e_wo_entrp">      0.30795086 </i>
    <i name="e_0_energy">      0.28945349 </i>
   </energy>
  </scstep>
  <scstep>
   <time name="total">    1.36    1.36</time>
   <energy>
    <i name="e_fr_energy">      1.29362327 </i>
    <i name="e_wo_entrp">      1.32327213 </i>
    <i name="e_0_energy">      1.30844770 </i>
   </energy>
  </scstep>
  <scstep>
   <time name="total">    1.38    1.38</time>
   <energy>
    <i name="e_fr_energy">      0.26843728 </i>
    <i name="e_wo_entrp">      0.30525005 </i>
    <i name="e_0_energy">      0.28684367 </i>
   </energy>
  </scstep>
  <scstep>
   <time name="total">    1.37    1.37</time>
   <energy>
    <i name="e_fr_energy">      1.26733700 </i>
    <i name="e_wo_entrp">      1.29947692 </i>
    <i name="e_0_energy">      1.28340696 </i>
   </energy>
  </scstep>
  <scstep>
   <time name="total">    1.37    1.38</time>
   <energy>
    <i name="e_fr_energy">      0.27593614 </i>
    <i name="e_wo_entrp">      0.31290809 </i>
    <i name="e_0_energy">      0.29442211 </i>
   </energy>
  </scstep>
  <scstep>
   <time name="total">    1.36    1.37</time>
   <energy>
    <i name="e_fr_energy">      1.25357257 </i>
    <i name="e_wo_entrp">      1.28293995 </i>
    <i name="e_0_energy">      1.26825626 </i>
   </energy>
  </scstep>
  <scstep>
   <time name="total">    1.37    1.37</time>
   <energy>
    <i name="e_fr_energy">      0.26783117 </i>
    <i name="e_wo_entrp">      0.30504625 </i>
    <i name="e_0_energy">      0.28643871 </i>
   </energy>
  </scstep>
  <scstep>
   <time name="total">    1.36    1.36</time>
   <energy>
    <i name="e_fr_energy">      1.24412364 </i>
    <i name="e_wo_entrp">      1.27242608 </i>
    <i name="e_0_energy">      1.25827486 </i>
   </energy>
  </scstep>
  <scstep>
   <time name="total">    1.36    1.36</time>
   <energy>
    <i name="e_fr_energy">      0.26276618 </i>
    <i name="e_wo_entrp">      0.30020995 </i>
    <i name="e_0_energy">      0.28148807 </i>
   </energy>
  </scstep>
  <scstep>
   <time name="total">    1.37    1.37</time>
   <energy>
    <i name="e_fr_energy">      1.23677951 </i>
    <i name="e_wo_entrp">      1.26696177 </i>
    <i name="e_0_energy">      1.25187064 </i>
   </energy>
  </scstep>
  <scstep>
   <time name="total">    1.37    1.38</time>
   <energy>
    <i name="e_fr_energy">      0.26640284 </i>
    <i name="e_wo_entrp">      0.30407668 </i>
    <i name="e_0_energy">      0.28523976 </i>
   </energy>
  </scstep>
  <scstep>
   <time name="total">    1.37    1.37</time>
   <energy>
    <i name="e_fr_energy">      1.22851257 </i>
    <i name="e_wo_entrp">      1.25868000 </i>
    <i name="e_0_energy">      1.24359628 </i>
   </energy>
  </scstep>
  <scstep>
   <time name="total">    1.37    1.37</time>
   <energy>
    <i name="e_fr_energy">      0.26677074 </i>
    <i name="e_wo_entrp">      0.30463689 </i>
    <i name="e_0_energy">      0.28570381 </i>
   </energy>
  </scstep>
  <scstep>
   <time name="total">    1.35    1.35</time>
   <energy>
    <i name="e_fr_energy">      1.22123235 </i>
    <i name="e_wo_entrp">      1.24979952 </i>
    <i name="e_0_energy">      1.23551594 </i>
   </energy>
  </scstep>
  <scstep>
   <time name="total">    1.37    1.37</time>
   <energy>
    <i name="e_fr_energy">      0.26036891 </i>
    <i name="e_wo_entrp">      0.29840146 </i>
    <i name="e_0_energy">      0.27938518 </i>
   </energy>
  </scstep>
  <scstep>
   <time name="total">    1.36    1.36</time>
   <energy>
    <i name="e_fr_energy">      1.21668127 </i>
    <i name="e_wo_entrp">      1.24577312 </i>
    <i name="e_0_energy">      1.23122720 </i>
   </energy>
  </scstep>
  <scstep>
   <time name="total">    1.36    1.36</time>
   <energy>
    <i name="e_fr_energy">      0.25913977 </i>
    <i name="e_wo_entrp">      0.29733837 </i>
    <i name="e_0_energy">      0.27823907 </i>
   </energy>
  </scstep>
  <scstep>
   <time name="total">    1.36    1.36</time>
   <energy>
    <i name="e_fr_energy">      1.30324353 </i>
    <i name="e_wo_entrp">      1.33251856 </i>
    <i name="e_0_energy">      1.31788105 </i>
   </energy>
  </scstep>
  <scstep>
   <time name="total">    1.36    1.36</time>
   <energy>
    <i name="e_fr_energy">      0.26981368 </i>
    <i name="e_wo_entrp">      0.30753824 </i>
    <i name="e_0_energy">      0.28867596 </i>
   </energy>
  </scstep>
  <scstep>
   <time name="total">    1.36    1.36</time>
   <energy>
    <i name="e_fr_energy">      1.23628350 </i>
    <i name="e_wo_entrp">      1.26576882 </i>
    <i name="e_0_energy">      1.25102616 </i>
   </energy>
  </scstep>
  <scstep>
   <time name="total">    1.37    1.37</time>
   <energy>
    <i name="e_fr_energy">      0.26997897 </i>
    <i name="e_wo_entrp">      0.30623066 </i>
    <i name="e_0_energy">      0.28810481 </i>
   </energy>
  </scstep>
  <scstep>
   <time name="total">    1.36    1.36</time>
   <energy>
    <i name="e_fr_energy">      1.24057672 </i>
    <i name="e_wo_entrp">      1.26976743 </i>
    <i name="e_0_energy">      1.25517208 </i>
   </energy>
  </scstep>
  <scstep>
   <time name="total">    1.36    1.36</time>
   <energy>
    <i name="e_fr_energy">      0.26422959 </i>
    <i name="e_wo_entrp">      0.29987054 </i>
    <i name="e_0_energy">      0.28205007 </i>
   </energy>
  </scstep>
  <scstep>
   <time name="total">    1.36    1.36</time>
   <energy>
    <i name="e_fr_energy">      1.23614209 </i>
    <i name="e_wo_entrp">      1.26568612 </i>
    <i name="e_0_energy">      1.25091410 </i>
   </energy>
  </scstep>
  <scstep>
   <time name="total">    1.37    1.37</time>
   <energy>
    <i name="e_fr_energy">      0.26555627 </i>
    <i name="e_wo_entrp">      0.30118869 </i>
    <i name="e_0_energy">      0.28337248 </i>
   </energy>
  </scstep>
  <scstep>
   <time name="total">    1.36    1.36</time>
   <energy>
    <i name="e_fr_energy">      1.35996822 </i>
    <i name="e_wo_entrp">      1.39083187 </i>
    <i name="e_0_energy">      1.37540004 </i>
   </energy>
  </scstep>
  <scstep>
   <time name="total">    1.37    1.37</time>
   <energy>
    <i name="e_fr_energy">      0.28338541 </i>
    <i name="e_wo_entrp">      0.32096284 </i>
    <i name="e_0_energy">      0.30217413 </i>
   </energy>
  </scstep>
  <scstep>
   <time name="total">    1.37    1.37</time>
   <energy>
    <i name="e_fr_energy">      1.26996498 </i>
    <i name="e_wo_entrp">      1.29999427 </i>
    <i name="e_0_energy">      1.28497963 </i>
   </energy>
  </scstep>
  <scstep>
   <time name="total">    1.37    1.37</time>
   <energy>
    <i name="e_fr_energy">      0.27898488 </i>
    <i name="e_wo_entrp">      0.31710415 </i>
    <i name="e_0_energy">      0.29804451 </i>
   </energy>
  </scstep>
  <scstep>
   <time name="total">    1.36    1.36</time>
   <energy>
    <i name="e_fr_energy">      1.27655787 </i>
    <i name="e_wo_entrp">      1.30588106 </i>
    <i name="e_0_energy">      1.29121947 </i>
   </energy>
  </scstep>
  <scstep>
   <time name="total">    1.36    1.36</time>
   <energy>
    <i name="e_fr_energy">      0.27552448 </i>
    <i name="e_wo_entrp">      0.31404621 </i>
    <i name="e_0_energy">      0.29478535 </i>
   </energy>
  </scstep>
  <scstep>
   <time name="total">    1.35    1.35</time>
   <energy>
    <i name="e_fr_energy">      1.25395341 </i>
    <i name="e_wo_entrp">      1.28462965 </i>
    <i name="e_0_energy">      1.26929153 </i>
   </energy>
  </scstep>
  <scstep>
   <time name="total">    1.37    1.38</time>
   <energy>
    <i name="e_fr_energy">      0.27715832 </i>
    <i name="e_wo_entrp">      0.31571673 </i>
    <i name="e_0_energy">      0.29643752 </i>
   </energy>
  </scstep>
  <scstep>
   <time name="total">    1.35    1.35</time>
   <energy>
    <i name="e_fr_energy">      1.23917385 </i>
    <i name="e_wo_entrp">      1.26863832 </i>
    <i name="e_0_energy">      1.25390608 </i>
   </energy>
  </scstep>
  <scstep>
   <time name="total">    1.36    1.36</time>
   <energy>
    <i name="e_fr_energy">      0.26891078 </i>
    <i name="e_wo_entrp">      0.30746656 </i>
    <i name="e_0_energy">      0.28818867 </i>
   </energy>
  </scstep>
  <scstep>
   <time name="total">    1.37    1.37</time>
   <energy>
    <i name="e_fr_energy">      1.22960688 </i>
    <i name="e_wo_entrp">      1.25790269 </i>
    <i name="e_0_energy">      1.24375478 </i>
   </energy>
  </scstep>
  <scstep>
   <time name="total">    1.37    1.37</time>
   <energy>
    <i name="e_fr_energy">      0.26414291 </i>
    <i name="e_wo_entrp">      0.30269615 </i>
    <i name="e_0_energy">      0.28341953 </i>
   </energy>
  </scstep>
  <scstep>
   <time name="total">    1.37    1.37</time>
   <energy>
    <i name="e_fr_energy">      1.22546194 </i>
    <i name="e_wo_entrp">      1.25463020 </i>
    <i name="e_0_energy">      1.24004607 </i>
   </energy>
  </scstep>
  <scstep>
   <time name="total">    1.37    1.37</time>
   <energy>
    <i name="e_fr_energy">      0.26536934 </i>
    <i name="e_wo_entrp">      0.30391190 </i>
    <i name="e_0_energy">      0.28464062 </i>
   </energy>
  </scstep>
  <scstep>
   <time name="total">    1.36    1.36</time>
   <energy>
    <i name="e_fr_energy">      1.21934845 </i>
    <i name="e_wo_entrp">      1.24941767 </i>
    <i name="e_0_energy">      1.23438306 </i>
   </energy>
  </scstep>
  <scstep>
   <time name="total">    1.37    1.37</time>
   <energy>
    <i name="e_fr_energy">      0.26722113 </i>
    <i name="e_wo_entrp">      0.30576243 </i>
    <i name="e_0_energy">      0.28649178 </i>
   </energy>
  </scstep>
  <scstep>
   <time name="total">    1.36    1.36</time>
   <energy>
    <i name="e_fr_energy">      1.35769746 </i>
    <i name="e_wo_entrp">      1.38711155 </i>
    <i name="e_0_energy">      1.37240451 </i>
   </energy>
  </scstep>
  <scstep>
   <time name="total">    1.37    1.37</time>
   <energy>
    <i name="e_fr_energy">      0.27975950 </i>
    <i name="e_wo_entrp">      0.31778427 </i>
    <i name="e_0_energy">      0.29877189 </i>
   </energy>
  </scstep>
  <scstep>
   <time name="total">    1.36    1.36</time>
   <energy>
    <i name="e_fr_energy">      1.26907500 </i>
    <i name="e_wo_entrp">      1.29924700 </i>
    <i name="e_0_energy">      1.28416100 </i>
   </energy>
  </scstep>
  <scstep>
   <time name="total">    1.38    1.38</time>
   <energy>
    <i name="e_fr_energy">      0.28297264 </i>
    <i name="e_wo_entrp">      0.32090502 </i>
    <i name="e_0_energy">      0.30193883 </i>
   </energy>
  </scstep>
  <scstep>
   <time name="total">    1.37    1.37</time>
   <energy>
    <i name="e_fr_energy">      1.26196181 </i>
    <i name="e_wo_entrp">      1.29215912 </i>
    <i name="e_0_energy">      1.27706047 </i>
   </energy>
  </scstep>
  <scstep>
   <time name="total">    1.36    1.36</time>
   <energy>
    <i name="e_fr_energy">      0.27924782 </i>
    <i name="e_wo_entrp">      0.31737657 </i>
    <i name="e_0_energy">      0.29831219 </i>
   </energy>
  </scstep>
  <scstep>
   <time name="total">    1.36    1.36</time>
   <energy>
    <i name="e_fr_energy">      1.24895904 </i>
    <i name="e_wo_entrp">      1.27786177 </i>
    <i name="e_0_energy">      1.26341040 </i>
   </energy>
  </scstep>
  <scstep>
   <time name="total">    1.37    1.37</time>
   <energy>
    <i name="e_fr_energy">      0.27164669 </i>
    <i name="e_wo_entrp">      0.30992655 </i>
    <i name="e_0_energy">      0.29078662 </i>
   </energy>
  </scstep>
  <scstep>
   <time name="total">    1.35    1.35</time>
   <energy>
    <i name="e_fr_energy">      1.23767866 </i>
    <i name="e_wo_entrp">      1.26736714 </i>
    <i name="e_0_energy">      1.25252290 </i>
   </energy>
  </scstep>
  <scstep>
   <time name="total">    1.37    1.37</time>
   <energy>
    <i name="e_fr_energy">      0.27253424 </i>
    <i name="e_wo_entrp">      0.31095002 </i>
    <i name="e_0_energy">      0.29174213 </i>
   </energy>
  </scstep>
  <scstep>
   <time name="total">    1.36    1.36</time>
   <energy>
    <i name="e_fr_energy">      1.22625223 </i>
    <i name="e_wo_entrp">      1.25666817 </i>
    <i name="e_0_energy">      1.24146020 </i>
   </energy>
  </scstep>
  <scstep>
   <time name="total">    1.36    1.36</time>
   <energy>
    <i name="e_fr_energy">      0.27370073 </i>
    <i name="e_wo_entrp">      0.31218531 </i>
    <i name="e_0_energy">      0.29294302 </i>
   </energy>
  </scstep>
  <scstep>
   <time name="total">    1.42    1.42</time>
   <energy>
    <i name="e_fr_energy">      1.28162076 </i>
    <i name="e_wo_entrp">      1.31048116 </i>
    <i name="e_0_energy">      1.29605096 </i>
   </energy>
  </scstep>
  <scstep>
   <time name="total">    1.40    1.41</time>
   <energy>
    <i name="e_fr_energy">      0.27313563 </i>
    <i name="e_wo_entrp">      0.31144709 </i>
    <i name="e_0_energy">      0.29229136 </i>
   </energy>
  </scstep>
  <scstep>
   <time name="total">    1.36    1.36</time>
   <energy>
    <i name="e_fr_energy">      1.23497512 </i>
    <i name="e_wo_entrp">      1.26552666 </i>
    <i name="e_0_energy">      1.25025089 </i>
   </energy>
  </scstep>
  <scstep>
   <time name="total">    1.40    1.40</time>
   <energy>
    <i name="e_fr_energy">      0.27645693 </i>
    <i name="e_wo_entrp">      0.31431932 </i>
    <i name="e_0_energy">      0.29538812 </i>
   </energy>
  </scstep>
  <scstep>
   <time name="total">    1.37    1.37</time>
   <energy>
    <i name="e_fr_energy">      1.31615932 </i>
    <i name="e_wo_entrp">      1.34722059 </i>
    <i name="e_0_energy">      1.33168996 </i>
   </energy>
  </scstep>
  <scstep>
   <time name="total">    1.37    1.37</time>
   <energy>
    <i name="e_fr_energy">      0.28582000 </i>
    <i name="e_wo_entrp">      0.32400331 </i>
    <i name="e_0_energy">      0.30491165 </i>
   </energy>
  </scstep>
  <scstep>
   <time name="total">    1.37    1.37</time>
   <energy>
    <i name="e_fr_energy">      1.25834420 </i>
    <i name="e_wo_entrp">      1.28797144 </i>
    <i name="e_0_energy">      1.27315782 </i>
   </energy>
  </scstep>
  <scstep>
   <time name="total">    1.37    1.37</time>
   <energy>
    <i name="e_fr_energy">      0.27945832 </i>
    <i name="e_wo_entrp">      0.31780494 </i>
    <i name="e_0_energy">      0.29863163 </i>
   </energy>
  </scstep>
  <scstep>
   <time name="total">    1.35    1.35</time>
   <energy>
    <i name="e_fr_energy">      1.26903472 </i>
    <i name="e_wo_entrp">      1.29877452 </i>
    <i name="e_0_energy">      1.28390462 </i>
   </energy>
  </scstep>
  <scstep>
   <time name="total">    1.37    1.37</time>
   <energy>
    <i name="e_fr_energy">      0.27893986 </i>
    <i name="e_wo_entrp">      0.31741486 </i>
    <i name="e_0_energy">      0.29817736 </i>
   </energy>
  </scstep>
  <scstep>
   <time name="total">    1.37    1.37</time>
   <energy>
    <i name="e_fr_energy">      1.24459841 </i>
    <i name="e_wo_entrp">      1.27518163 </i>
    <i name="e_0_energy">      1.25989002 </i>
   </energy>
  </scstep>
  <scstep>
   <time name="total">    1.37    1.37</time>
   <energy>
    <i name="e_fr_energy">      0.27988401 </i>
    <i name="e_wo_entrp">      0.31833796 </i>
    <i name="e_0_energy">      0.29911099 </i>
   </energy>
  </scstep>
  <scstep>
   <time name="total">    1.36    1.36</time>
   <energy>
    <i name="e_fr_energy">      1.24276396 </i>
    <i name="e_wo_entrp">      1.27178358 </i>
    <i name="e_0_energy">      1.25727377 </i>
   </energy>
  </scstep>
  <scstep>
   <time name="total">    1.37    1.37</time>
   <energy>
    <i name="e_fr_energy">      0.27240375 </i>
    <i name="e_wo_entrp">      0.31083454 </i>
    <i name="e_0_energy">      0.29161915 </i>
   </energy>
  </scstep>
  <scstep>
   <time name="total">    1.36    1.36</time>
   <energy>
    <i name="e_fr_energy">      1.22896054 </i>
    <i name="e_wo_entrp">      1.25852504 </i>
    <i name="e_0_energy">      1.24374279 </i>
   </energy>
  </scstep>
  <scstep>
   <time name="total">    1.36    1.36</time>
   <energy>
    <i name="e_fr_energy">      0.27273580 </i>
    <i name="e_wo_entrp">      0.31114119 </i>
    <i name="e_0_energy">      0.29193850 </i>
   </energy>
  </scstep>
  <scstep>
   <time name="total">    1.37    1.37</time>
   <energy>
    <i name="e_fr_energy">      1.30726780 </i>
    <i name="e_wo_entrp">      1.33769154 </i>
    <i name="e_0_energy">      1.32247967 </i>
   </energy>
  </scstep>
  <scstep>
   <time name="total">    1.36    1.36</time>
   <energy>
    <i name="e_fr_energy">      0.28360839 </i>
    <i name="e_wo_entrp">      0.32062271 </i>
    <i name="e_0_energy">      0.30211555 </i>
   </energy>
  </scstep>
  <scstep>
   <time name="total">    1.37    1.37</time>
   <energy>
    <i name="e_fr_energy">      1.24208034 </i>
    <i name="e_wo_entrp">      1.27195736 </i>
    <i name="e_0_energy">      1.25701885 </i>
   </energy>
  </scstep>
  <scstep>
   <time name="total">    1.37    1.37</time>
   <energy>
    <i name="e_fr_energy">      0.27793076 </i>
    <i name="e_wo_entrp">      0.31413976 </i>
    <i name="e_0_energy">      0.29603526 </i>
   </energy>
  </scstep>
  <scstep>
   <time name="total">    1.36    1.36</time>
   <energy>
    <i name="e_fr_energy">      1.32200628 </i>
    <i name="e_wo_entrp">      1.35216145 </i>
    <i name="e_0_energy">      1.33708386 </i>
   </energy>
  </scstep>
  <scstep>
   <time name="total">    1.37    1.37</time>
   <energy>
    <i name="e_fr_energy">      0.28497598 </i>
    <i name="e_wo_entrp">      0.32298193 </i>
    <i name="e_0_energy">      0.30397896 </i>
   </energy>
  </scstep>
  <scstep>
   <time name="total">    1.36    1.36</time>
   <energy>
    <i name="e_fr_energy">      1.25954642 </i>
    <i name="e_wo_entrp">      1.28966618 </i>
    <i name="e_0_energy">      1.27460630 </i>
   </energy>
  </scstep>
  <scstep>
   <time name="total">    1.41    1.41</time>
   <energy>
    <i name="e_fr_energy">      0.28533783 </i>
    <i name="e_wo_entrp">      0.32375672 </i>
    <i name="e_0_energy">      0.30454727 </i>
   </energy>
  </scstep>
  <scstep>
   <time name="total">    1.36    1.36</time>
   <energy>
    <i name="e_fr_energy">      1.24363878 </i>
    <i name="e_wo_entrp">      1.27296102 </i>
    <i name="e_0_energy">      1.25829990 </i>
   </energy>
  </scstep>
  <scstep>
   <time name="total">    1.37    1.37</time>
   <energy>
    <i name="e_fr_energy">      0.27566704 </i>
    <i name="e_wo_entrp">      0.31418176 </i>
    <i name="e_0_energy">      0.29492440 </i>
   </energy>
  </scstep>
  <scstep>
   <time name="total">    1.35    1.35</time>
   <energy>
    <i name="e_fr_energy">      1.23479857 </i>
    <i name="e_wo_entrp">      1.26440368 </i>
    <i name="e_0_energy">      1.24960113 </i>
   </energy>
  </scstep>
  <scstep>
   <time name="total">    1.37    1.37</time>
   <energy>
    <i name="e_fr_energy">      0.27470928 </i>
    <i name="e_wo_entrp">      0.31325116 </i>
    <i name="e_0_energy">      0.29398022 </i>
   </energy>
  </scstep>
  <scstep>
   <time name="total">    1.36    1.36</time>
   <energy>
    <i name="e_fr_energy">      1.25021050 </i>
    <i name="e_wo_entrp">      1.28121848 </i>
    <i name="e_0_energy">      1.26571449 </i>
   </energy>
  </scstep>
  <scstep>
   <time name="total">    1.36    1.36</time>
   <energy>
    <i name="e_fr_energy">      0.28057687 </i>
    <i name="e_wo_entrp">      0.31906160 </i>
    <i name="e_0_energy">      0.29981924 </i>
   </energy>
  </scstep>
  <scstep>
   <time name="total">    1.37    1.37</time>
   <energy>
    <i name="e_fr_energy">      1.23047469 </i>
    <i name="e_wo_entrp">      1.25933997 </i>
    <i name="e_0_energy">      1.24490733 </i>
   </energy>
  </scstep>
  <scstep>
   <time name="total">    1.36    1.36</time>
   <energy>
    <i name="e_fr_energy">      0.27215557 </i>
    <i name="e_wo_entrp">      0.31057074 </i>
    <i name="e_0_energy">      0.29136315 </i>
   </energy>
  </scstep>
  <scstep>
   <time name="total">    1.35    1.35</time>
   <energy>
    <i name="e_fr_energy">      1.33688664 </i>
    <i name="e_wo_entrp">      1.36636261 </i>
    <i name="e_0_energy">      1.35162463 </i>
   </energy>
  </scstep>
  <scstep>
   <time name="total">    1.37    1.37</time>
   <energy>
    <i name="e_fr_energy">      0.28427886 </i>
    <i name="e_wo_entrp">      0.32159144 </i>
    <i name="e_0_energy">      0.30293515 </i>
   </energy>
  </scstep>
  <scstep>
   <time name="total">    1.37    1.37</time>
   <energy>
    <i name="e_fr_energy">      1.26392822 </i>
    <i name="e_wo_entrp">      1.29542352 </i>
    <i name="e_0_energy">      1.27967587 </i>
   </energy>
  </scstep>
  <scstep>
   <time name="total">    1.37    1.37</time>
   <energy>
    <i name="e_fr_energy">      0.28959204 </i>
    <i name="e_wo_entrp">      0.32679597 </i>
    <i name="e_0_energy">      0.30819401 </i>
   </energy>
  </scstep>
  <scstep>
   <time name="total">    1.36    1.36</time>
   <energy>
    <i name="e_fr_energy">      1.27374044 </i>
    <i name="e_wo_entrp">      1.30330850 </i>
    <i name="e_0_energy">      1.28852447 </i>
   </energy>
  </scstep>
  <scstep>
   <time name="total">    1.36    1.36</time>
   <energy>
    <i name="e_fr_energy">      0.28100007 </i>
    <i name="e_wo_entrp">      0.31871481 </i>
    <i name="e_0_energy">      0.29985744 </i>
   </energy>
  </scstep>
  <scstep>
   <time name="total">    1.36    1.36</time>
   <energy>
    <i name="e_fr_energy">      1.25209430 </i>
    <i name="e_wo_entrp">      1.28123745 </i>
    <i name="e_0_energy">      1.26666587 </i>
   </energy>
  </scstep>
  <scstep>
   <time name="total">    1.37    1.37</time>
   <energy>
    <i name="e_fr_energy">      0.27866824 </i>
    <i name="e_wo_entrp">      0.31673138 </i>
    <i name="e_0_energy">      0.29769981 </i>
   </energy>
  </scstep>
  <scstep>
   <time name="total">    1.37    1.37</time>
   <energy>
    <i name="e_fr_energy">      1.28256586 </i>
    <i name="e_wo_entrp">      1.31335811 </i>
    <i name="e_0_energy">      1.29796199 </i>
   </energy>
  </scstep>
  <scstep>
   <time name="total">    1.36    1.36</time>
   <energy>
    <i name="e_fr_energy">      0.28516753 </i>
    <i name="e_wo_entrp">      0.32369656 </i>
    <i name="e_0_energy">      0.30443204 </i>
   </energy>
  </scstep>
  <scstep>
   <time name="total">    1.36    1.36</time>
   <energy>
    <i name="e_fr_energy">      1.24092241 </i>
    <i name="e_wo_entrp">      1.26986747 </i>
    <i name="e_0_energy">      1.25539494 </i>
   </energy>
  </scstep>
  <scstep>
   <time name="total">    1.36    1.36</time>
   <energy>
    <i name="e_fr_energy">      0.27640498 </i>
    <i name="e_wo_entrp">      0.31479238 </i>
    <i name="e_0_energy">      0.29559868 </i>
   </energy>
  </scstep>
  <scstep>
   <time name="total">    1.36    1.36</time>
   <energy>
    <i name="e_fr_energy">      1.28171484 </i>
    <i name="e_wo_entrp">      1.31083226 </i>
    <i name="e_0_energy">      1.29627355 </i>
   </energy>
  </scstep>
  <scstep>
   <time name="total">    1.37    1.37</time>
   <energy>
    <i name="e_fr_energy">      0.27984211 </i>
    <i name="e_wo_entrp">      0.31811597 </i>
    <i name="e_0_energy">      0.29897904 </i>
   </energy>
  </scstep>
  <scstep>
   <time name="total">    1.36    1.36</time>
   <energy>
    <i name="e_fr_energy">      1.24729692 </i>
    <i name="e_wo_entrp">      1.27793992 </i>
    <i name="e_0_energy">      1.26261842 </i>
   </energy>
  </scstep>
  <scstep>
   <time name="total">    1.36    1.36</time>
   <energy>
    <i name="e_fr_energy">      0.28293828 </i>
    <i name="e_wo_entrp">      0.32125211 </i>
    <i name="e_0_energy">      0.30209519 </i>
   </energy>
  </scstep>
  <scstep>
   <time name="total">    1.36    1.36</time>
   <energy>
    <i name="e_fr_energy">      1.31444266 </i>
    <i name="e_wo_entrp">      1.34327818 </i>
    <i name="e_0_energy">      1.32886042 </i>
   </energy>
  </scstep>
  <scstep>
   <time name="total">    1.37    1.37</time>
   <energy>
    <i name="e_fr_energy">      0.28227344 </i>
    <i name="e_wo_entrp">      0.32067470 </i>
    <i name="e_0_energy">      0.30147407 </i>
   </energy>
  </scstep>
  <scstep>
   <time name="total">    1.35    1.35</time>
   <energy>
    <i name="e_fr_energy">      1.26068847 </i>
    <i name="e_wo_entrp">      1.29076942 </i>
    <i name="e_0_energy">      1.27572894 </i>
   </energy>
  </scstep>
  <scstep>
   <time name="total">    1.36    1.36</time>
   <energy>
    <i name="e_fr_energy">      0.28443693 </i>
    <i name="e_wo_entrp">      0.32287592 </i>
    <i name="e_0_energy">      0.30365642 </i>
   </energy>
  </scstep>
  <scstep>
   <time name="total">    1.36    1.36</time>
   <energy>
    <i name="e_fr_energy">      1.26605168 </i>
    <i name="e_wo_entrp">      1.29723558 </i>
    <i name="e_0_energy">      1.28164363 </i>
   </energy>
  </scstep>
  <scstep>
   <time name="total">    1.36    1.36</time>
   <energy>
    <i name="e_fr_energy">      0.28589534 </i>
    <i name="e_wo_entrp">      0.32443262 </i>
    <i name="e_0_energy">      0.30516398 </i>
   </energy>
  </scstep>
  <scstep>
   <time name="total">    1.37    1.37</time>
   <energy>
    <i name="e_fr_energy">      1.24322005 </i>
    <i name="e_wo_entrp">      1.27168150 </i>
    <i name="e_0_energy">      1.25745078 </i>
   </energy>
  </scstep>
  <scstep>
   <time name="total">    1.36    1.36</time>
   <energy>
    <i name="e_fr_energy">      0.27542081 </i>
    <i name="e_wo_entrp">      0.31393102 </i>
    <i name="e_0_energy">      0.29467592 </i>
   </energy>
  </scstep>
  <scstep>
   <time name="total">    1.35    1.35</time>
   <energy>
    <i name="e_fr_energy">      1.25477207 </i>
    <i name="e_wo_entrp">      1.28433569 </i>
    <i name="e_0_energy">      1.26955388 </i>
   </energy>
  </scstep>
  <scstep>
   <time name="total">    1.37    1.37</time>
   <energy>
    <i name="e_fr_energy">      0.27807818 </i>
    <i name="e_wo_entrp">      0.31635744 </i>
    <i name="e_0_energy">      0.29721781 </i>
   </energy>
  </scstep>
  <scstep>
   <time name="total">    1.36    1.36</time>
   <energy>
    <i name="e_fr_energy">      1.23176110 </i>
    <i name="e_wo_entrp">      1.26246301 </i>
    <i name="e_0_energy">      1.24711205 </i>
   </energy>
  </scstep>
  <scstep>
   <time name="total">    1.36    1.36</time>
   <energy>
    <i name="e_fr_energy">      0.27982752 </i>
    <i name="e_wo_entrp">      0.31798023 </i>
    <i name="e_0_energy">      0.29890388 </i>
   </energy>
  </scstep>
  <scstep>
   <time name="total">    1.37    1.37</time>
   <energy>
    <i name="e_fr_energy">      1.32672553 </i>
    <i name="e_wo_entrp">      1.35520547 </i>
    <i name="e_0_energy">      1.34096550 </i>
   </energy>
  </scstep>
  <scstep>
   <time name="total">    1.36    1.37</time>
   <energy>
    <i name="e_fr_energy">      0.28202321 </i>
    <i name="e_wo_entrp">      0.32000931 </i>
    <i name="e_0_energy">      0.30101626 </i>
   </energy>
  </scstep>
  <scstep>
   <time name="total">    1.36    1.36</time>
   <energy>
    <i name="e_fr_energy">      1.26406839 </i>
    <i name="e_wo_entrp">      1.29447858 </i>
    <i name="e_0_energy">      1.27927349 </i>
   </energy>
  </scstep>
  <scstep>
   <time name="total">    1.37    1.37</time>
   <energy>
    <i name="e_fr_energy">      0.28635056 </i>
    <i name="e_wo_entrp">      0.32446738 </i>
    <i name="e_0_energy">      0.30540897 </i>
   </energy>
  </scstep>
  <scstep>
   <time name="total">    1.36    1.36</time>
   <energy>
    <i name="e_fr_energy">      1.28802885 </i>
    <i name="e_wo_entrp">      1.31829216 </i>
    <i name="e_0_energy">      1.30316050 </i>
   </energy>
  </scstep>
  <scstep>
   <time name="total">    1.35    1.35</time>
   <energy>
    <i name="e_fr_energy">      0.28714351 </i>
    <i name="e_wo_entrp">      0.32558708 </i>
    <i name="e_0_energy">      0.30636530 </i>
   </energy>
  </scstep>
  <scstep>
   <time name="total">    1.37    1.37</time>
   <energy>
    <i name="e_fr_energy">      1.25509960 </i>
    <i name="e_wo_entrp">      1.28457853 </i>
    <i name="e_0_energy">      1.26983906 </i>
   </energy>
  </scstep>
  <scstep>
   <time name="total">    1.36    1.37</time>
   <energy>
    <i name="e_fr_energy">      0.28074053 </i>
    <i name="e_wo_entrp">      0.31926662 </i>
    <i name="e_0_energy">      0.30000357 </i>
   </energy>
  </scstep>
  <scstep>
   <time name="total">    1.39    1.39</time>
   <energy>
    <i name="e_fr_energy">      1.25586098 </i>
    <i name="e_wo_entrp">      1.28642165 </i>
    <i name="e_0_energy">      1.27114132 </i>
   </energy>
  </scstep>
  <scstep>
   <time name="total">    1.37    1.37</time>
   <energy>
    <i name="e_fr_energy">      0.28201827 </i>
    <i name="e_wo_entrp">      0.32057198 </i>
    <i name="e_0_energy">      0.30129512 </i>
   </energy>
  </scstep>
  <scstep>
   <time name="total">    1.36    1.36</time>
   <energy>
    <i name="e_fr_energy">      1.23722361 </i>
    <i name="e_wo_entrp">      1.26719207 </i>
    <i name="e_0_energy">      1.25220784 </i>
   </energy>
  </scstep>
  <scstep>
   <time name="total">    1.36    1.36</time>
   <energy>
    <i name="e_fr_energy">      0.28024164 </i>
    <i name="e_wo_entrp">      0.31879555 </i>
    <i name="e_0_energy">      0.29951860 </i>
   </energy>
  </scstep>
  <scstep>
   <time name="total">    1.36    1.36</time>
   <energy>
    <i name="e_fr_energy">      1.29488889 </i>
    <i name="e_wo_entrp">      1.32381885 </i>
    <i name="e_0_energy">      1.30935387 </i>
   </energy>
  </scstep>
  <scstep>
   <time name="total">    1.37    1.37</time>
   <energy>
    <i name="e_fr_energy">      0.28013531 </i>
    <i name="e_wo_entrp">      0.31853544 </i>
    <i name="e_0_energy">      0.29933537 </i>
   </energy>
  </scstep>
  <scstep>
   <time name="total">    1.36    1.36</time>
   <energy>
    <i name="e_fr_energy">      1.25222822 </i>
    <i name="e_wo_entrp">      1.28216431 </i>
    <i name="e_0_energy">      1.26719627 </i>
   </energy>
  </scstep>
  <scstep>
   <time name="total">    1.36    1.36</time>
   <energy>
    <i name="e_fr_energy">      0.28219114 </i>
    <i name="e_wo_entrp">      0.32063462 </i>
    <i name="e_0_energy">      0.30141288 </i>
   </energy>
  </scstep>
  <scstep>
   <time name="total">    1.36    1.36</time>
   <energy>
    <i name="e_fr_energy">      1.29018649 </i>
    <i name="e_wo_entrp">      1.32007884 </i>
    <i name="e_0_energy">      1.30513267 </i>
   </energy>
  </scstep>
  <scstep>
   <time name="total">    1.36    1.36</time>
   <energy>
    <i name="e_fr_energy">      0.28555256 </i>
    <i name="e_wo_entrp">      0.32350521 </i>
    <i name="e_0_energy">      0.30452888 </i>
   </energy>
  </scstep>
  <scstep>
   <time name="total">    1.36    1.36</time>
   <energy>
    <i name="e_fr_energy">      1.24723647 </i>
    <i name="e_wo_entrp">      1.27702744 </i>
    <i name="e_0_energy">      1.26213196 </i>
   </energy>
  </scstep>
  <scstep>
   <time name="total">    1.37    1.37</time>
   <energy>
    <i name="e_fr_energy">      0.28021315 </i>
    <i name="e_wo_entrp">      0.31789841 </i>
    <i name="e_0_energy">      0.29905578 </i>
   </energy>
  </scstep>
  <scstep>
   <time name="total">    1.36    1.36</time>
   <energy>
    <i name="e_fr_energy">      1.30812554 </i>
    <i name="e_wo_entrp">      1.33759273 </i>
    <i name="e_0_energy">      1.32285914 </i>
   </energy>
  </scstep>
  <scstep>
   <time name="total">    1.36    1.36</time>
   <energy>
    <i name="e_fr_energy">      0.28483212 </i>
    <i name="e_wo_entrp">      0.32331973 </i>
    <i name="e_0_energy">      0.30407592 </i>
   </energy>
  </scstep>
  <scstep>
   <time name="total">    1.36    1.36</time>
   <energy>
    <i name="e_fr_energy">      1.25395742 </i>
    <i name="e_wo_entrp">      1.28384826 </i>
    <i name="e_0_energy">      1.26890284 </i>
   </energy>
  </scstep>
  <scstep>
   <time name="total">    1.36    1.36</time>
   <energy>
    <i name="e_fr_energy">      0.28533791 </i>
    <i name="e_wo_entrp">      0.32386550 </i>
    <i name="e_0_energy">      0.30460171 </i>
   </energy>
  </scstep>
  <scstep>
   <time name="total">    1.36    1.36</time>
   <energy>
    <i name="e_fr_energy">      1.28722125 </i>
    <i name="e_wo_entrp">      1.31737894 </i>
    <i name="e_0_energy">      1.30230010 </i>
   </energy>
  </scstep>
  <scstep>
   <time name="total">    1.37    1.37</time>
   <energy>
    <i name="e_fr_energy">      0.28380348 </i>
    <i name="e_wo_entrp">      0.32231910 </i>
    <i name="e_0_energy">      0.30306129 </i>
   </energy>
  </scstep>
  <scstep>
   <time name="total">    1.36    1.36</time>
   <energy>
    <i name="e_fr_energy">      1.25038954 </i>
    <i name="e_wo_entrp">      1.27951055 </i>
    <i name="e_0_energy">      1.26495005 </i>
   </energy>
  </scstep>
  <scstep>
   <time name="total">    1.37    1.37</time>
   <energy>
    <i name="e_fr_energy">      0.28093729 </i>
    <i name="e_wo_entrp">      0.31941489 </i>
    <i name="e_0_energy">      0.30017609 </i>
   </energy>
  </scstep>
  <scstep>
   <time name="total">    1.36    1.36</time>
   <energy>
    <i name="e_fr_energy">      1.28356976 </i>
    <i name="e_wo_entrp">      1.31430005 </i>
    <i name="e_0_energy">      1.29893491 </i>
   </energy>
  </scstep>
  <scstep>
   <time name="total">    1.39    1.39</time>
   <energy>
    <i name="e_fr_energy">      0.28672409 </i>
    <i name="e_wo_entrp">      0.32471791 </i>
    <i name="e_0_energy">      0.30572100 </i>
   </energy>
  </scstep>
  <scstep>
   <time name="total">    1.39    1.40</time>
   <energy>
    <i name="e_fr_energy">      1.24500135 </i>
    <i name="e_wo_entrp">      1.27452893 </i>
    <i name="e_0_energy">      1.25976514 </i>
   </energy>
  </scstep>
  <scstep>
   <time name="total">    1.37    1.37</time>
   <energy>
    <i name="e_fr_energy">      0.28008809 </i>
    <i name="e_wo_entrp">      0.31770650 </i>
    <i name="e_0_energy">      0.29889729 </i>
   </energy>
  </scstep>
  <scstep>
   <time name="total">    1.36    1.37</time>
   <energy>
    <i name="e_fr_energy">      1.28603125 </i>
    <i name="e_wo_entrp">      1.31511194 </i>
    <i name="e_0_energy">      1.30057160 </i>
   </energy>
  </scstep>
  <scstep>
   <time name="total">    1.36    1.36</time>
   <energy>
    <i name="e_fr_energy">      0.28185565 </i>
    <i name="e_wo_entrp">      0.31992054 </i>
    <i name="e_0_energy">      0.30088809 </i>
   </energy>
  </scstep>
  <scstep>
   <time name="total">    1.37    1.37</time>
   <energy>
    <i name="e_fr_energy">      1.27060024 </i>
    <i name="e_wo_entrp">      1.30094542 </i>
    <i name="e_0_energy">      1.28577283 </i>
   </energy>
  </scstep>
  <scstep>
   <time name="total">    1.36    1.36</time>
   <energy>
    <i name="e_fr_energy">      0.28656674 </i>
    <i name="e_wo_entrp">      0.32438873 </i>
    <i name="e_0_energy">      0.30547774 </i>
   </energy>
  </scstep>
  <scstep>
   <time name="total">    1.38    1.38</time>
   <energy>
    <i name="e_fr_energy">      1.28356250 </i>
    <i name="e_wo_entrp">      1.31270195 </i>
    <i name="e_0_energy">      1.29813222 </i>
   </energy>
  </scstep>
  <scstep>
   <time name="total">    1.37    1.37</time>
   <energy>
    <i name="e_fr_energy">      0.28251289 </i>
    <i name="e_wo_entrp">      0.32076847 </i>
    <i name="e_0_energy">      0.30164068 </i>
   </energy>
  </scstep>
  <scstep>
   <time name="total">    1.36    1.36</time>
   <energy>
    <i name="e_fr_energy">      1.24895500 </i>
    <i name="e_wo_entrp">      1.27803448 </i>
    <i name="e_0_energy">      1.26349474 </i>
   </energy>
  </scstep>
  <scstep>
   <time name="total">    1.37    1.37</time>
   <energy>
    <i name="e_fr_energy">      0.28097108 </i>
    <i name="e_wo_entrp">      0.31924095 </i>
    <i name="e_0_energy">      0.30010602 </i>
   </energy>
  </scstep>
  <scstep>
   <time name="total">    1.36    1.36</time>
   <energy>
    <i name="e_fr_energy">      1.24570667 </i>
    <i name="e_wo_entrp">      1.27670982 </i>
    <i name="e_0_energy">      1.26120824 </i>
   </energy>
  </scstep>
  <scstep>
   <time name="total">    1.36    1.36</time>
   <energy>
    <i name="e_fr_energy">      0.28363087 </i>
    <i name="e_wo_entrp">      0.32191029 </i>
    <i name="e_0_energy">      0.30277058 </i>
   </energy>
  </scstep>
  <scstep>
   <time name="total">    1.37    1.37</time>
   <energy>
    <i name="e_fr_energy">      1.28270735 </i>
    <i name="e_wo_entrp">      1.31151717 </i>
    <i name="e_0_energy">      1.29711226 </i>
   </energy>
  </scstep>
  <scstep>
   <time name="total">    1.36    1.36</time>
   <energy>
    <i name="e_fr_energy">      0.28073705 </i>
    <i name="e_wo_entrp">      0.31916787 </i>
    <i name="e_0_energy">      0.29995246 </i>
   </energy>
  </scstep>
  <scstep>
   <time name="total">    1.36    1.36</time>
   <energy>
    <i name="e_fr_energy">      1.26703444 </i>
    <i name="e_wo_entrp">      1.29608993 </i>
    <i name="e_0_energy">      1.28156218 </i>
   </energy>
  </scstep>
  <scstep>
   <time name="total">    1.36    1.36</time>
   <energy>
    <i name="e_fr_energy">      0.28316042 </i>
    <i name="e_wo_entrp">      0.32098336 </i>
    <i name="e_0_energy">      0.30207189 </i>
   </energy>
  </scstep>
  <scstep>
   <time name="total">    1.36    1.36</time>
   <energy>
    <i name="e_fr_energy">      1.26538197 </i>
    <i name="e_wo_entrp">      1.29672404 </i>
    <i name="e_0_energy">      1.28105300 </i>
   </energy>
  </scstep>
  <scstep>
   <time name="total">    1.36    1.36</time>
   <energy>
    <i name="e_fr_energy">      0.28780764 </i>
    <i name="e_wo_entrp">      0.32482870 </i>
    <i name="e_0_energy">      0.30631817 </i>
   </energy>
  </scstep>
  <scstep>
   <time name="total">    1.36    1.36</time>
   <energy>
    <i name="e_fr_energy">      1.28558899 </i>
    <i name="e_wo_entrp">      1.31406224 </i>
    <i name="e_0_energy">      1.29982562 </i>
   </energy>
  </scstep>
  <scstep>
   <time name="total">    1.36    1.36</time>
   <energy>
    <i name="e_fr_energy">      0.28229755 </i>
    <i name="e_wo_entrp">      0.31919153 </i>
    <i name="e_0_energy">      0.30074454 </i>
   </energy>
  </scstep>
  <scstep>
   <time name="total">    1.36    1.36</time>
   <energy>
    <i name="e_fr_energy">      1.31015210 </i>
    <i name="e_wo_entrp">      1.33914873 </i>
    <i name="e_0_energy">      1.32465042 </i>
   </energy>
  </scstep>
  <scstep>
   <time name="total">    1.37    1.38</time>
   <energy>
    <i name="e_fr_energy">      0.28808728 </i>
    <i name="e_wo_entrp">      0.32630459 </i>
    <i name="e_0_energy">      0.30719594 </i>
   </energy>
  </scstep>
  <scstep>
   <time name="total">    1.37    1.37</time>
   <energy>
    <i name="e_fr_energy">      1.26067807 </i>
    <i name="e_wo_entrp">      1.29150471 </i>
    <i name="e_0_energy">      1.27609139 </i>
   </energy>
  </scstep>
  <scstep>
   <time name="total">    1.36    1.37</time>
   <energy>
    <i name="e_fr_energy">      0.28960195 </i>
    <i name="e_wo_entrp">      0.32808232 </i>
    <i name="e_0_energy">      0.30884214 </i>
   </energy>
  </scstep>
  <scstep>
   <time name="total">    1.36    1.36</time>
   <energy>
    <i name="e_fr_energy">      1.25146529 </i>
    <i name="e_wo_entrp">      1.27991305 </i>
    <i name="e_0_energy">      1.26568917 </i>
   </energy>
  </scstep>
  <scstep>
   <time name="total">    1.36    1.36</time>
   <energy>
    <i name="e_fr_energy">      0.27932866 </i>
    <i name="e_wo_entrp">      0.31789327 </i>
    <i name="e_0_energy">      0.29861096 </i>
   </energy>
  </scstep>
  <scstep>
   <time name="total">    1.36    1.36</time>
   <energy>
    <i name="e_fr_energy">      1.24031130 </i>
    <i name="e_wo_entrp">      1.26931705 </i>
    <i name="e_0_energy">      1.25481418 </i>
   </energy>
  </scstep>
  <scstep>
   <time name="total">    1.36    1.36</time>
   <energy>
    <i name="e_fr_energy">      0.27882907 </i>
    <i name="e_wo_entrp">      0.31739015 </i>
    <i name="e_0_energy">      0.29810961 </i>
   </energy>
  </scstep>
  <scstep>
   <time name="total">    1.36    1.37</time>
   <energy>
    <i name="e_fr_energy">      1.27556127 </i>
    <i name="e_wo_entrp">      1.30620604 </i>
    <i name="e_0_energy">      1.29088366 </i>
   </energy>
  </scstep>
  <scstep>
   <time name="total">    1.36    1.36</time>
   <energy>
    <i name="e_fr_energy">      0.28588400 </i>
    <i name="e_wo_entrp">      0.32372502 </i>
    <i name="e_0_energy">      0.30480451 </i>
   </energy>
  </scstep>
  <scstep>
   <time name="total">    1.36    1.36</time>
   <energy>
    <i name="e_fr_energy">      1.29946099 </i>
    <i name="e_wo_entrp">      1.32788879 </i>
    <i name="e_0_energy">      1.31367489 </i>
   </energy>
  </scstep>
  <scstep>
   <time name="total">    1.37    1.37</time>
   <energy>
    <i name="e_fr_energy">      0.28447684 </i>
    <i name="e_wo_entrp">      0.32178178 </i>
    <i name="e_0_energy">      0.30312931 </i>
   </energy>
  </scstep>
  <scstep>
   <time name="total">    1.36    1.36</time>
   <energy>
    <i name="e_fr_energy">      1.27597022 </i>
    <i name="e_wo_entrp">      1.30677453 </i>
    <i name="e_0_energy">      1.29137237 </i>
   </energy>
  </scstep>
  <scstep>
   <time name="total">    1.37    1.37</time>
   <energy>
    <i name="e_fr_energy">      0.28965493 </i>
    <i name="e_wo_entrp">      0.32748369 </i>
    <i name="e_0_energy">      0.30856931 </i>
   </energy>
  </scstep>
  <scstep>
   <time name="total">    1.36    1.36</time>
   <energy>
    <i name="e_fr_energy">      1.26352536 </i>
    <i name="e_wo_entrp">      1.29367177 </i>
    <i name="e_0_energy">      1.27859856 </i>
   </energy>
  </scstep>
  <scstep>
   <time name="total">    1.36    1.36</time>
   <energy>
    <i name="e_fr_energy">      0.28753282 </i>
    <i name="e_wo_entrp">      0.32556348 </i>
    <i name="e_0_energy">      0.30654815 </i>
   </energy>
  </scstep>
  <scstep>
   <time name="total">    1.36    1.36</time>
   <energy>
    <i name="e_fr_energy">      1.29694252 </i>
    <i name="e_wo_entrp">      1.32534700 </i>
    <i name="e_0_energy">      1.31114476 </i>
   </energy>
  </scstep>
  <scstep>
   <time name="total">    1.37    1.37</time>
   <energy>
    <i name="e_fr_energy">      0.28439339 </i>
    <i name="e_wo_entrp">      0.32286170 </i>
    <i name="e_0_energy">      0.30362754 </i>
   </energy>
  </scstep>
  <scstep>
   <time name="total">    1.35    1.35</time>
   <energy>
    <i name="e_fr_energy">      1.25773213 </i>
    <i name="e_wo_entrp">      1.28764562 </i>
    <i name="e_0_energy">      1.27268888 </i>
   </energy>
  </scstep>
  <scstep>
   <time name="total">    1.36    1.36</time>
   <energy>
    <i name="e_fr_energy">      0.28594467 </i>
    <i name="e_wo_entrp">      0.32417330 </i>
    <i name="e_0_energy">      0.30505899 </i>
   </energy>
  </scstep>
  <scstep>
   <time name="total">    1.36    1.36</time>
   <energy>
    <i name="e_fr_energy">      1.24122384 </i>
    <i name="e_wo_entrp">      1.27131287 </i>
    <i name="e_0_energy">      1.25626836 </i>
   </energy>
  </scstep>
  <scstep>
   <time name="total">    1.35    1.35</time>
   <energy>
    <i name="e_fr_energy">      0.28381066 </i>
    <i name="e_wo_entrp">      0.32187550 </i>
    <i name="e_0_energy">      0.30284308 </i>
   </energy>
  </scstep>
  <scstep>
   <time name="total">    1.36    1.36</time>
   <energy>
    <i name="e_fr_energy">      1.29522431 </i>
    <i name="e_wo_entrp">      1.32362639 </i>
    <i name="e_0_energy">      1.30942535 </i>
   </energy>
  </scstep>
  <scstep>
   <time name="total">    1.37    1.37</time>
   <energy>
    <i name="e_fr_energy">      0.28259697 </i>
    <i name="e_wo_entrp">      0.32105129 </i>
    <i name="e_0_energy">      0.30182413 </i>
   </energy>
  </scstep>
  <scstep>
   <time name="total">    1.35    1.35</time>
   <energy>
    <i name="e_fr_energy">      1.25589831 </i>
    <i name="e_wo_entrp">      1.28652289 </i>
    <i name="e_0_energy">      1.27121060 </i>
   </energy>
  </scstep>
  <scstep>
   <time name="total">    1.39    1.39</time>
   <energy>
    <i name="e_fr_energy">      0.28710129 </i>
    <i name="e_wo_entrp">      0.32563355 </i>
    <i name="e_0_energy">      0.30636742 </i>
   </energy>
  </scstep>
  <scstep>
   <time name="total">    1.37    1.37</time>
   <energy>
    <i name="e_fr_energy">      1.27779619 </i>
    <i name="e_wo_entrp">      1.30758378 </i>
    <i name="e_0_energy">      1.29268999 </i>
   </energy>
  </scstep>
  <scstep>
   <time name="total">    1.36    1.36</time>
   <energy>
    <i name="e_fr_energy">      0.28747044 </i>
    <i name="e_wo_entrp">      0.32568430 </i>
    <i name="e_0_energy">      0.30657737 </i>
   </energy>
  </scstep>
  <scstep>
   <time name="total">    1.36    1.36</time>
   <energy>
    <i name="e_fr_energy">      1.28942987 </i>
    <i name="e_wo_entrp">      1.31781131 </i>
    <i name="e_0_energy">      1.30362059 </i>
   </energy>
  </scstep>
  <scstep>
   <time name="total">    1.36    1.36</time>
   <energy>
    <i name="e_fr_energy">      0.28450940 </i>
    <i name="e_wo_entrp">      0.32264478 </i>
    <i name="e_0_energy">      0.30357709 </i>
   </energy>
  </scstep>
  <scstep>
   <time name="total">    1.36    1.36</time>
   <energy>
    <i name="e_fr_energy">      1.26022885 </i>
    <i name="e_wo_entrp">      1.29030657 </i>
    <i name="e_0_energy">      1.27526771 </i>
   </energy>
  </scstep>
  <scstep>
   <time name="total">    1.36    1.36</time>
   <energy>
    <i name="e_fr_energy">      0.28628980 </i>
    <i name="e_wo_entrp">      0.32440712 </i>
    <i name="e_0_energy">      0.30534846 </i>
   </energy>
  </scstep>
  <scstep>
   <time name="total">    1.37    1.37</time>
   <energy>
    <i name="e_fr_energy">      1.27584649 </i>
    <i name="e_wo_entrp">      1.30575163 </i>
    <i name="e_0_energy">      1.29079906 </i>
   </energy>
  </scstep>
  <scstep>
   <time name="total">    1.36    1.36</time>
   <energy>
    <i name="e_fr_energy">      0.28811766 </i>
    <i name="e_wo_entrp">      0.32592145 </i>
    <i name="e_0_energy">      0.30701955 </i>
   </energy>
  </scstep>
  <scstep>
   <time name="total">    1.37    1.37</time>
   <energy>
    <i name="e_fr_energy">      1.24426410 </i>
    <i name="e_wo_entrp">      1.27458024 </i>
    <i name="e_0_energy">      1.25942217 </i>
   </energy>
  </scstep>
  <scstep>
   <time name="total">    1.37    1.37</time>
   <energy>
    <i name="e_fr_energy">      0.28358388 </i>
    <i name="e_wo_entrp">      0.32140689 </i>
    <i name="e_0_energy">      0.30249538 </i>
   </energy>
  </scstep>
  <scstep>
   <time name="total">    1.35    1.35</time>
   <energy>
    <i name="e_fr_energy">      1.32212258 </i>
    <i name="e_wo_entrp">      1.35159969 </i>
    <i name="e_0_energy">      1.33686113 </i>
   </energy>
  </scstep>
  <scstep>
   <time name="total">    1.36    1.36</time>
   <energy>
    <i name="e_fr_energy">      0.28939378 </i>
    <i name="e_wo_entrp">      0.32775231 </i>
    <i name="e_0_energy">      0.30857305 </i>
   </energy>
  </scstep>
  <scstep>
   <time name="total">    1.36    1.36</time>
   <energy>
    <i name="e_fr_energy">      1.26141910 </i>
    <i name="e_wo_entrp">      1.29119547 </i>
    <i name="e_0_energy">      1.27630729 </i>
   </energy>
  </scstep>
  <scstep>
   <time name="total">    1.36    1.36</time>
   <energy>
    <i name="e_fr_energy">      0.29001114 </i>
    <i name="e_wo_entrp">      0.32846884 </i>
    <i name="e_0_energy">      0.30923999 </i>
   </energy>
  </scstep>
  <scstep>
   <time name="total">    1.37    1.37</time>
   <energy>
    <i name="e_fr_energy">      1.27300075 </i>
    <i name="e_wo_entrp">      1.30330094 </i>
    <i name="e_0_energy">      1.28815085 </i>
   </energy>
  </scstep>
  <scstep>
   <time name="total">    1.37    1.37</time>
   <energy>
    <i name="e_fr_energy">      0.28655021 </i>
    <i name="e_wo_entrp">      0.32508832 </i>
    <i name="e_0_energy">      0.30581927 </i>
   </energy>
  </scstep>
  <scstep>
   <time name="total">    1.36    1.36</time>
   <energy>
    <i name="e_fr_energy">      1.24695285 </i>
    <i name="e_wo_entrp">      1.27601594 </i>
    <i name="e_0_energy">      1.26148439 </i>
   </energy>
  </scstep>
  <scstep>
   <time name="total">    1.36    1.36</time>
   <energy>
    <i name="e_fr_energy">      0.28267572 </i>
    <i name="e_wo_entrp">      0.32115835 </i>
    <i name="e_0_energy">      0.30191703 </i>
   </energy>
  </scstep>
  <scstep>
   <time name="total">    1.36    1.36</time>
   <energy>
    <i name="e_fr_energy">      1.26669825 </i>
    <i name="e_wo_entrp">      1.29645786 </i>
    <i name="e_0_energy">      1.28157805 </i>
   </energy>
  </scstep>
  <scstep>
   <time name="total">    1.37    1.39</time>
   <energy>
    <i name="e_fr_energy">      0.28563528 </i>
    <i name="e_wo_entrp">      0.32350056 </i>
    <i name="e_0_energy">      0.30456792 </i>
   </energy>
  </scstep>
  <scstep>
   <time name="total">    1.37    1.37</time>
   <energy>
    <i name="e_fr_energy">      1.23615417 </i>
    <i name="e_wo_entrp">      1.26571789 </i>
    <i name="e_0_energy">      1.25093603 </i>
   </energy>
  </scstep>
  <scstep>
   <time name="total">    1.40    1.40</time>
   <energy>
    <i name="e_fr_energy">      0.28005454 </i>
    <i name="e_wo_entrp">      0.31759799 </i>
    <i name="e_0_energy">      0.29882626 </i>
   </energy>
  </scstep>
  <scstep>
   <time name="total">    1.36    1.36</time>
   <energy>
    <i name="e_fr_energy">      1.31740010 </i>
    <i name="e_wo_entrp">      1.34643066 </i>
    <i name="e_0_energy">      1.33191538 </i>
   </energy>
  </scstep>
  <scstep>
   <time name="total">    1.36    1.36</time>
   <energy>
    <i name="e_fr_energy">      0.28719928 </i>
    <i name="e_wo_entrp">      0.32416641 </i>
    <i name="e_0_energy">      0.30568285 </i>
   </energy>
  </scstep>
  <scstep>
   <time name="total">    1.36    1.36</time>
   <energy>
    <i name="e_fr_energy">      1.26218682 </i>
    <i name="e_wo_entrp">      1.29194711 </i>
    <i name="e_0_energy">      1.27706696 </i>
   </energy>
  </scstep>
  <scstep>
   <time name="total">    1.36    1.36</time>
   <energy>
    <i name="e_fr_energy">      0.28939546 </i>
    <i name="e_wo_entrp">      0.32649445 </i>
    <i name="e_0_energy">      0.30794496 </i>
   </energy>
  </scstep>
  <scstep>
   <time name="total">    1.36    1.36</time>
   <energy>
    <i name="e_fr_energy">      1.33746327 </i>
    <i name="e_wo_entrp">      1.36684525 </i>
    <i name="e_0_energy">      1.35215426 </i>
   </energy>
  </scstep>
  <scstep>
   <time name="total">    1.37    1.37</time>
   <energy>
    <i name="e_fr_energy">      0.29114644 </i>
    <i name="e_wo_entrp">      0.32938821 </i>
    <i name="e_0_energy">      0.31026733 </i>
   </energy>
  </scstep>
  <scstep>
   <time name="total">    1.36    1.36</time>
   <energy>
    <i name="e_fr_energy">      1.27322457 </i>
    <i name="e_wo_entrp">      1.30222591 </i>
    <i name="e_0_energy">      1.28772524 </i>
   </energy>
  </scstep>
  <scstep>
   <time name="total">    1.37    1.37</time>
   <energy>
    <i name="e_fr_energy">      0.28969442 </i>
    <i name="e_wo_entrp">      0.32819752 </i>
    <i name="e_0_energy">      0.30894597 </i>
   </energy>
  </scstep>
  <scstep>
   <time name="total">    1.37    1.37</time>
   <energy>
    <i name="e_fr_energy">      1.25565661 </i>
    <i name="e_wo_entrp">      1.28786113 </i>
    <i name="e_0_energy">      1.27175887 </i>
   </energy>
  </scstep>
  <scstep>
   <time name="total">    1.36    1.36</time>
   <energy>
    <i name="e_fr_energy">      0.29182037 </i>
    <i name="e_wo_entrp">      0.33037666 </i>
    <i name="e_0_energy">      0.31109852 </i>
   </energy>
  </scstep>
  <scstep>
   <time name="total">    1.36    1.36</time>
   <energy>
    <i name="e_fr_energy">      1.24278552 </i>
    <i name="e_wo_entrp">      1.27171877 </i>
    <i name="e_0_energy">      1.25725214 </i>
   </energy>
  </scstep>
  <scstep>
   <time name="total">    1.36    1.36</time>
   <energy>
    <i name="e_fr_energy">      0.28185235 </i>
    <i name="e_wo_entrp">      0.32041211 </i>
    <i name="e_0_energy">      0.30113223 </i>
   </energy>
  </scstep>
  <scstep>
   <time name="total">    1.36    1.36</time>
   <energy>
    <i name="e_fr_energy">      1.23092505 </i>
    <i name="e_wo_entrp">      1.25993685 </i>
    <i name="e_0_energy">      1.24543095 </i>
   </energy>
  </scstep>
  <scstep>
   <time name="total">    1.36    1.36</time>
   <energy>
    <i name="e_fr_energy">      0.27888628 </i>
    <i name="e_wo_entrp">      0.31744179 </i>
    <i name="e_0_energy">      0.29816403 </i>
   </energy>
  </scstep>
  <scstep>
   <time name="total">    1.36    1.36</time>
   <energy>
    <i name="e_fr_energy">      1.28830255 </i>
    <i name="e_wo_entrp">      1.31935364 </i>
    <i name="e_0_energy">      1.30382810 </i>
   </energy>
  </scstep>
  <scstep>
   <time name="total">    1.36    1.36</time>
   <energy>
    <i name="e_fr_energy">      0.28902482 </i>
    <i name="e_wo_entrp">      0.32717883 </i>
    <i name="e_0_energy">      0.30810182 </i>
   </energy>
  </scstep>
  <scstep>
   <time name="total">    1.36    1.36</time>
   <energy>
    <i name="e_fr_energy">      1.24286291 </i>
    <i name="e_wo_entrp">      1.27129730 </i>
    <i name="e_0_energy">      1.25708011 </i>
   </energy>
  </scstep>
  <scstep>
   <time name="total">    1.36    1.36</time>
   <energy>
    <i name="e_fr_energy">      0.28089198 </i>
    <i name="e_wo_entrp">      0.31894048 </i>
    <i name="e_0_energy">      0.29991623 </i>
   </energy>
  </scstep>
  <scstep>
   <time name="total">    1.36    1.36</time>
   <energy>
    <i name="e_fr_energy">      1.32465528 </i>
    <i name="e_wo_entrp">      1.35362115 </i>
    <i name="e_0_energy">      1.33913821 </i>
   </energy>
  </scstep>
  <scstep>
   <time name="total">    1.36    1.37</time>
   <energy>
    <i name="e_fr_energy">      0.28879310 </i>
    <i name="e_wo_entrp">      0.32733127 </i>
    <i name="e_0_energy">      0.30806218 </i>
   </energy>
[...]
        <r>     5.7787     0.0000     0.0000     0.0000     0.0000     0.0000     0.0000     0.0000     0.0000     0.0000     0.0000     0.0000     0.0000     0.0000     0.0000     0.0000     0.0000 </r>
        <r>     5.9181     0.0000     0.0000     0.0000     0.0000     0.0000     0.0000     0.0000     0.0000     0.0000     0.0000     0.0000     0.0000     0.0000     0.0000     0.0000     0.0000 </r>
        <r>     6.0575     0.0000     0.0000     0.0000     0.0000     0.0000     0.0000     0.0000     0.0000     0.0000     0.0000     0.0000     0.0000     0.0000     0.0000     0.0000     0.0000 </r>
        <r>     6.1968     0.0000     0.0000     0.0000     0.0000     0.0000     0.0000     0.0000     0.0000     0.0000     0.0000     0.0000     0.0000     0.0000     0.0000     0.0000     0.0000 </r>
        <r>     6.3362     0.0000     0.0000     0.0000     0.0000     0.0000     0.0000     0.0000     0.0000     0.0000     0.0000     0.0000     0.0000     0.0000     0.0000     0.0000     0.0000 </r>
        <r>     6.4756     0.0000     0.0000     0.0000     0.0000     0.0000     0.0000     0.0000     0.0000     0.0000     0.0000     0.0000     0.0000     0.0000     0.0000     0.0000     0.0000 </r>
        <r>     6.6150     0.0000     0.0000     0.0000     0.0000     0.0000     0.0000     0.0000     0.0000     0.0000     0.0000     0.0000     0.0000     0.0000     0.0000     0.0000     0.0000 </r>
        <r>     6.7544     0.0000     0.0000     0.0000     0.0000     0.0000     0.0000     0.0000     0.0000     0.0000     0.0000     0.0000     0.0000     0.0000     0.0000     0.0000     0.0000 </r>
       </set>
      </set>
     </set>
    </array>
   </partial>
  </dos>
  <projected>
   <eigenvalues>
    <array>
     <dimension dim="1">band</dimension>
     <dimension dim="2">kpoint</dimension>
     <dimension dim="3">spin</dimension>
     <field>eigene</field>
     <field>occ</field>
     <set>
      <set comment="spin 1">
       <set comment="kpoint 1">
        <r>  -32.7458    1.0000 </r>
        <r>  -17.3171    1.0000 </r>
        <r>  -17.3171    1.0000 </r>
        <r>  -17.3171    1.0000 </r>
        <r>   -2.5249    1.0000 </r>
        <r>   -0.7843    0.1090 </r>
        <r>   -0.7843    0.1090 </r>
        <r>   -0.6502    0.0000 </r>
        <r>   -0.6502    0.0000 </r>
        <r>   -0.6502    0.0000 </r>
        <r>   -0.3456    0.0000 </r>
        <r>   -0.3456    0.0000 </r>
        <r>   -0.3456    0.0000 </r>
        <r>    0.1525    0.0000 </r>
        <r>    1.0984    0.0000 </r>
        <r>    1.0984    0.0000 </r>
        <r>    1.8343    0.0000 </r>
        <r>    1.8343    0.0000 </r>
        <r>    1.8343    0.0000 </r>
        <r>    2.1320    0.0000 </r>
        <r>    2.2755    0.0000 </r>
        <r>    2.2755    0.0000 </r>
        <r>    2.2755    0.0000 </r>
        <r>    2.4762    0.0000 </r>
        <r>    2.4762    0.0000 </r>
        <r>    2.4762    0.0000 </r>
        <r>    2.5193    0.0000 </r>
        <r>    2.5193    0.0000 </r>
        <r>    3.3879    0.0000 </r>
        <r>    4.6572    0.0000 </r>
        <r>    4.6572    0.0000 </r>
        <r>    4.6572    0.0000 </r>
        <r>    4.7130    0.0000 </r>
        <r>    4.8537    0.0000 </r>
        <r>    4.8537    0.0000 </r>
        <r>    4.8537    0.0000 </r>
       </set>
      </set>
      <set comment="spin 2">
       <set comment="kpoint 1">
        <r>  -33.1603    1.0000 </r>
        <r>  -17.6009    1.0000 </r>
        <r>  -17.6008    1.0000 </r>
        <r>  -17.6008    1.0000 </r>
        <r>   -2.5342    1.0000 </r>
        <r>   -0.8184    0.3940 </r>
        <r>   -0.7993    0.2093 </r>
        <r>   -0.7830    0.1022 </r>
        <r>   -0.7774    0.0767 </r>
        <r>   -0.3568    0.0000 </r>
        <r>   -0.3540    0.0000 </r>
        <r>   -0.3101    0.0000 </r>
        <r>    0.1050    0.0000 </r>
        <r>    0.1440    0.0000 </r>
        <r>    1.0695    0.0000 </r>
        <r>    1.0731    0.0000 </r>
        <r>    1.8061    0.0000 </r>
        <r>    1.8062    0.0000 </r>
        <r>    1.8063    0.0000 </r>
        <r>    2.1302    0.0000 </r>
        <r>    2.1916    0.0000 </r>
        <r>    2.1917    0.0000 </r>
        <r>    2.1921    0.0000 </r>
        <r>    2.4359    0.0000 </r>
        <r>    2.4395    0.0000 </r>
        <r>    2.4405    0.0000 </r>
        <r>    2.5167    0.0000 </r>
        <r>    2.5173    0.0000 </r>
        <r>    3.0544    0.0000 </r>
        <r>    3.3407    0.0000 </r>
        <r>    3.9283    0.0000 </r>
        <r>    4.0345    0.0000 </r>
        <r>    4.2583    0.0000 </r>
        <r>    4.2596    0.0000 </r>
        <r>    4.2725    0.0000 </r>
        <r>    4.3072    0.0000 </r>
       </set>
      </set>
     </set>
    </array>
   </eigenvalues>
   <array>
    <dimension dim="1">ion</dimension>
    <dimension dim="2">band</dimension>
    <dimension dim="3">kpoint</dimension>
    <dimension dim="4">spin</dimension>
    <field>    s</field>
    <field>   py</field>
    <field>   pz</field>
    <field>   px</field>
    <field>  dxy</field>
    <field>  dyz</field>
    <field>  dz2</field>
    <field>  dxz</field>
    <field>x2-y2</field>
    <field>fy3x2</field>
    <field> fxyz</field>
    <field> fyz2</field>
    <field>  fz3</field>
    <field> fxz2</field>
    <field> fzx2</field>
    <field>  fx3</field>
    <set>
     <set comment="spin1">
      <set comment="kpoint 1">
       <set comment="band 1">
        <r>  0.9584  0.0000  0.0000  0.0000  0.0000  0.0000  0.0000  0.0000  0.0000  0.0000  0.0000  0.0000  0.0000  0.0000  0.0000  0.0000 </r>
       </set>
       <set comment="band 2">
        <r>  0.0000  0.0000  0.9271  0.0000  0.0000  0.0000  0.0000  0.0000  0.0000  0.0000  0.0000  0.0000  0.0000  0.0000  0.0000  0.0000 </r>
       </set>
       <set comment="band 3">
        <r>  0.0000  0.8589  0.0000  0.0682  0.0000  0.0000  0.0000  0.0000  0.0000  0.0000  0.0000  0.0000  0.0000  0.0000  0.0000  0.0000 </r>
       </set>
       <set comment="band 4">
        <r>  0.0000  0.0682  0.0000  0.8589  0.0000  0.0000  0.0000  0.0000  0.0000  0.0000  0.0000  0.0000  0.0000  0.0000  0.0000  0.0000 </r>
       </set>
       <set comment="band 5">
        <r>  0.0857  0.0000  0.0000  0.0000  0.0000  0.0000  0.0000  0.0000  0.0000  0.0000  0.0000  0.0000  0.0000  0.0000  0.0000  0.0000 </r>
       </set>
       <set comment="band 6">
        <r>  0.0000  0.0000  0.0000  0.0000  0.0000  0.0000  0.0000  0.0000  0.4453  0.0000  0.0000  0.0000  0.0000  0.0000  0.0000  0.0000 </r>
       </set>
       <set comment="band 7">
        <r>  0.0000  0.0000  0.0000  0.0000  0.0000  0.0000  0.4453  0.0000  0.0000  0.0000  0.0000  0.0000  0.0000  0.0000  0.0000  0.0000 </r>
       </set>
       <set comment="band 8">
        <r>  0.0000  0.0000  0.0000  0.0000  0.0007  0.0937  0.0000  0.3709  0.0000  0.0000  0.0000  0.0000  0.0000  0.0000  0.0000  0.0000 </r>
       </set>
       <set comment="band 9">
        <r>  0.0000  0.0000  0.0000  0.0000  0.0036  0.3673  0.0000  0.0944  0.0000  0.0000  0.0000  0.0000  0.0000  0.0000  0.0000  0.0000 </r>
       </set>
       <set comment="band 10">
        <r>  0.0000  0.0000  0.0000  0.0000  0.4610  0.0043  0.0000  0.0000  0.0000  0.0000  0.0000  0.0000  0.0000  0.0000  0.0000  0.0000 </r>
       </set>
       <set comment="band 11">
        <r>  0.0000  0.0001  0.0321  0.0014  0.0000  0.0000  0.0000  0.0000  0.0000  0.0000  0.0000  0.0000  0.0002  0.0000  0.0000  0.0000 </r>
       </set>
       <set comment="band 12">
        <r>  0.0000  0.0310  0.0000  0.0025  0.0000  0.0000  0.0000  0.0000  0.0000  0.0001  0.0000  0.0001  0.0000  0.0000  0.0000  0.0000 </r>
       </set>
       <set comment="band 13">
        <r>  0.0000  0.0024  0.0015  0.0297  0.0000  0.0000  0.0000  0.0000  0.0000  0.0000  0.0000  0.0000  0.0000  0.0001  0.0000  0.0001 </r>
       </set>
       <set comment="band 14">
        <r>  0.0232  0.0000  0.0000  0.0000  0.0000  0.0000  0.0000  0.0000  0.0000  0.0000  0.0000  0.0000  0.0000  0.0000  0.0000  0.0000 </r>
       </set>
       <set comment="band 15">
        <r>  0.0000  0.0000  0.0000  0.0000  0.0000  0.0000  0.0000  0.0000  0.0789  0.0000  0.0000  0.0000  0.0000  0.0000  0.0000  0.0000 </r>
       </set>
       <set comment="band 16">
        <r>  0.0000  0.0000  0.0000  0.0000  0.0000  0.0000  0.0789  0.0000  0.0000  0.0000  0.0000  0.0000  0.0000  0.0000  0.0000  0.0000 </r>
       </set>
       <set comment="band 17">
        <r>  0.0000  0.0011  0.0000  0.0085  0.0000  0.0000  0.0000  0.0000  0.0000  0.0005  0.0000  0.0003  0.0000  0.0023  0.0000  0.0038 </r>
       </set>
       <set comment="band 18">
        <r>  0.0000  0.0086  0.0000  0.0011  0.0000  0.0000  0.0000  0.0000  0.0000  0.0038  0.0000  0.0023  0.0000  0.0003  0.0000  0.0005 </r>
       </set>
       <set comment="band 19">
        <r>  0.0000  0.0000  0.0096  0.0000  0.0000  0.0000  0.0000  0.0000  0.0000  0.0000  0.0000  0.0000  0.0069  0.0000  0.0000  0.0000 </r>
       </set>
       <set comment="band 20">
        <r>  0.0201  0.0000  0.0000  0.0000  0.0000  0.0000  0.0000  0.0000  0.0000  0.0000  0.0000  0.0000  0.0000  0.0000  0.0000  0.0000 </r>
       </set>
       <set comment="band 21">
        <r>  0.0000  0.0000  0.0000  0.0000  0.0000  0.0000  0.0000  0.0000  0.0000  0.0062  0.0000  0.0104  0.0000  0.0000  0.0000  0.0000 </r>
       </set>
       <set comment="band 22">
        <r>  0.0000  0.0000  0.0000  0.0000  0.0000  0.0000  0.0000  0.0000  0.0000  0.0000  0.0000  0.0000  0.0000  0.0104  0.0000  0.0062 </r>
       </set>
       <set comment="band 23">
        <r>  0.0000  0.0000  0.0000  0.0000  0.0000  0.0000  0.0000  0.0000  0.0000  0.0000  0.0000  0.0000  0.0000  0.0000  0.0166  0.0000 </r>
       </set>
       <set comment="band 24">
        <r>  0.0000  0.0000  0.0000  0.0000  0.0132  0.0086  0.0000  0.0750  0.0000  0.0000  0.0000  0.0000  0.0000  0.0000  0.0000  0.0000 </r>
       </set>
       <set comment="band 25">
        <r>  0.0000  0.0000  0.0000  0.0000  0.0014  0.0882  0.0000  0.0072  0.0000  0.0000  0.0000  0.0000  0.0000  0.0000  0.0000  0.0000 </r>
       </set>
       <set comment="band 26">
        <r>  0.0000  0.0000  0.0000  0.0000  0.0822  0.0000  0.0000  0.0146  0.0000  0.0000  0.0000  0.0000  0.0000  0.0000  0.0000  0.0000 </r>
       </set>
       <set comment="band 27">
        <r>  0.0000  0.0000  0.0000  0.0000  0.0000  0.0000  0.0000  0.0000  0.0232  0.0000  0.0000  0.0000  0.0000  0.0000  0.0000  0.0000 </r>
       </set>
       <set comment="band 28">
        <r>  0.0000  0.0000  0.0000  0.0000  0.0000  0.0000  0.0232  0.0000  0.0000  0.0000  0.0000  0.0000  0.0000  0.0000  0.0000  0.0000 </r>
       </set>
       <set comment="band 29">
        <r>  0.0000  0.0000  0.0000  0.0000  0.0000  0.0000  0.0000  0.0000  0.0000  0.0000  0.0221  0.0000  0.0000  0.0000  0.0000  0.0000 </r>
       </set>
       <set comment="band 30">
        <r>  0.0000  0.0000  0.0000  0.0000  0.0000  0.0000  0.0000  0.0000  0.0000  0.0428  0.0000  0.0257  0.0003  0.3270  0.0000  0.5449 </r>
       </set>
       <set comment="band 31">
        <r>  0.0000  0.0000  0.0000  0.0000  0.0000  0.0000  0.0000  0.0000  0.0000  0.5451  0.0000  0.3271  0.0000  0.0257  0.0000  0.0428 </r>
       </set>
       <set comment="band 32">
        <r>  0.0000  0.0000  0.0000  0.0000  0.0000  0.0000  0.0000  0.0000  0.0000  0.0000  0.0000  0.0000  0.9404  0.0001  0.0000  0.0002 </r>
       </set>
       <set comment="band 33">
        <r>  0.0000  0.0000  0.0000  0.0000  0.0000  0.0000  0.0000  0.0000  0.0000  0.0000  0.9409  0.0000  0.0000  0.0000  0.0000  0.0000 </r>
       </set>
       <set comment="band 34">
        <r>  0.0000  0.0000  0.0000  0.0000  0.0000  0.0000  0.0000  0.0000  0.0000  0.2471  0.0000  0.4117  0.0000  0.1733  0.0000  0.1040 </r>
       </set>
       <set comment="band 35">
        <r>  0.0000  0.0000  0.0000  0.0000  0.0000  0.0000  0.0000  0.0000  0.0000  0.1040  0.0000  0.1733  0.0000  0.4117  0.0000  0.2471 </r>
       </set>
       <set comment="band 36">
        <r>  0.0000  0.0000  0.0000  0.0000  0.0000  0.0000  0.0000  0.0000  0.0000  0.0000  0.0000  0.0000  0.0000  0.0000  0.9361  0.0000 </r>
       </set>
      </set>
     </set>
     <set comment="spin2">
      <set comment="kpoint 1">
       <set comment="band 1">
        <r>  0.9747  0.0000  0.0000  0.0000  0.0000  0.0000  0.0000  0.0000  0.0000  0.0000  0.0000  0.0000  0.0000  0.0000  0.0000  0.0000 </r>
       </set>
       <set comment="band 2">
        <r>  0.0000  0.1887  0.7347  0.0003  0.0000  0.0000  0.0000  0.0000  0.0000  0.0000  0.0000  0.0000  0.0000  0.0000  0.0000  0.0000 </r>
       </set>
       <set comment="band 3">
        <r>  0.0000  0.3029  0.0865  0.5343  0.0000  0.0000  0.0000  0.0000  0.0000  0.0000  0.0000  0.0000  0.0000  0.0000  0.0000  0.0000 </r>
       </set>
       <set comment="band 4">
        <r>  0.0000  0.4321  0.1025  0.3891  0.0000  0.0000  0.0000  0.0000  0.0000  0.0000  0.0000  0.0000  0.0000  0.0000  0.0000  0.0000 </r>
       </set>
       <set comment="band 5">
        <r>  0.1008  0.0000  0.0000  0.0000  0.0000  0.0000  0.0000  0.0000  0.0000  0.0000  0.0000  0.0000  0.0000  0.0000  0.0000  0.0000 </r>
       </set>
       <set comment="band 6">
        <r>  0.0000  0.0000  0.0000  0.0000  0.0005  0.0001  0.4509  0.0010  0.0000  0.0001  0.0000  0.0001  0.0000  0.0000  0.0000  0.0000 </r>
       </set>
       <set comment="band 7">
        <r>  0.0000  0.0000  0.0000  0.0000  0.2822  0.0269  0.0000  0.1562  0.0000  0.0000  0.0000  0.0001  0.0000  0.0000  0.0000  0.0000 </r>
       </set>
       <set comment="band 8">
        <r>  0.0000  0.0000  0.0000  0.0000  0.0560  0.4053  0.0000  0.0028  0.0000  0.0008  0.0000  0.0013  0.0000  0.0004  0.0006  0.0002 </r>
       </set>
       <set comment="band 9">
        <r>  0.0000  0.0000  0.0000  0.0000  0.1263  0.0320  0.0016  0.3052  0.0000  0.0000  0.0000  0.0000  0.0000  0.0003  0.0034  0.0002 </r>
       </set>
       <set comment="band 10">
        <r>  0.0000  0.0137  0.0021  0.0159  0.0000  0.0000  0.0000  0.0000  0.0000  0.0017  0.0000  0.0010  0.0004  0.0012  0.0000  0.0020 </r>
       </set>
       <set comment="band 11">
        <r>  0.0000  0.0129  0.0031  0.0159  0.0000  0.0000  0.0000  0.0000  0.0000  0.0017  0.0000  0.0010  0.0006  0.0012  0.0000  0.0021 </r>
       </set>
       <set comment="band 12">
        <r>  0.0000  0.0052  0.0267  0.0001  0.0000  0.0000  0.0000  0.0000  0.0000  0.0009  0.0069  0.0005  0.0069  0.0000  0.0000  0.0000 </r>
       </set>
       <set comment="band 13">
        <r>  0.0000  0.0000  0.0000  0.0000  0.0001  0.0001  0.0000  0.0001  0.3640  0.0058  0.0000  0.0097  0.0000  0.0014  0.1667  0.0008 </r>
       </set>
       <set comment="band 14">
        <r>  0.0267  0.0000  0.0000  0.0000  0.0000  0.0000  0.0000  0.0000  0.0000  0.0000  0.0000  0.0000  0.0000  0.0000  0.0000  0.0000 </r>
       </set>
       <set comment="band 15">
        <r>  0.0000  0.0000  0.0000  0.0000  0.0000  0.0000  0.0708  0.0000  0.0001  0.0000  0.0000  0.0000  0.0000  0.0000  0.0000  0.0000 </r>
       </set>
       <set comment="band 16">
        <r>  0.0000  0.0000  0.0000  0.0000  0.0000  0.0000  0.0001  0.0000  0.0724  0.0000  0.0000  0.0000  0.0000  0.0000  0.0000  0.0000 </r>
       </set>
       <set comment="band 17">
        <r>  0.0000  0.0041  0.0004  0.0056  0.0000  0.0000  0.0000  0.0000  0.0000  0.0009  0.0000  0.0006  0.0001  0.0008  0.0000  0.0013 </r>
       </set>
       <set comment="band 18">
        <r>  0.0000  0.0007  0.0073  0.0021  0.0000  0.0000  0.0000  0.0000  0.0000  0.0002  0.0000  0.0001  0.0026  0.0003  0.0000  0.0005 </r>
       </set>
       <set comment="band 19">
        <r>  0.0000  0.0053  0.0025  0.0024  0.0000  0.0000  0.0000  0.0000  0.0000  0.0012  0.0000  0.0007  0.0009  0.0003  0.0000  0.0005 </r>
       </set>
       <set comment="band 20">
        <r>  0.0241  0.0000  0.0000  0.0000  0.0000  0.0000  0.0000  0.0000  0.0000  0.0000  0.0000  0.0000  0.0000  0.0000  0.0000  0.0000 </r>
       </set>
       <set comment="band 21">
        <r>  0.0000  0.0000  0.0000  0.0000  0.0000  0.0000  0.0000  0.0000  0.0000  0.0012  0.0000  0.0020  0.0000  0.0016  0.0000  0.0009 </r>
       </set>
       <set comment="band 22">
        <r>  0.0000  0.0000  0.0000  0.0000  0.0000  0.0000  0.0000  0.0000  0.0000  0.0001  0.0000  0.0001  0.0000  0.0000  0.0055  0.0000 </r>
       </set>
       <set comment="band 23">
        <r>  0.0000  0.0000  0.0000  0.0000  0.0000  0.0000  0.0000  0.0000  0.0000  0.0009  0.0000  0.0015  0.0000  0.0020  0.0002  0.0012 </r>
       </set>
       <set comment="band 24">
        <r>  0.0000  0.0000  0.0000  0.0000  0.0321  0.0033  0.0000  0.0615  0.0000  0.0000  0.0000  0.0000  0.0000  0.0000  0.0000  0.0000 </r>
       </set>
       <set comment="band 25">
        <r>  0.0000  0.0000  0.0000  0.0000  0.0114  0.0680  0.0000  0.0190  0.0000  0.0000  0.0000  0.0000  0.0000  0.0000  0.0000  0.0000 </r>
       </set>
       <set comment="band 26">
        <r>  0.0000  0.0000  0.0000  0.0000  0.0547  0.0270  0.0000  0.0170  0.0000  0.0000  0.0000  0.0000  0.0000  0.0000  0.0000  0.0000 </r>
       </set>
       <set comment="band 27">
        <r>  0.0000  0.0000  0.0000  0.0000  0.0000  0.0000  0.0224  0.0000  0.0000  0.0000  0.0000  0.0000  0.0000  0.0000  0.0000  0.0000 </r>
       </set>
       <set comment="band 28">
        <r>  0.0000  0.0000  0.0000  0.0000  0.0000  0.0000  0.0000  0.0000  0.0227  0.0000  0.0000  0.0000  0.0000  0.0000  0.0000  0.0000 </r>
       </set>
       <set comment="band 29">
        <r>  0.0000  0.0000  0.0000  0.0000  0.0007  0.0001  0.0000  0.0011  0.0857  0.0167  0.0000  0.0278  0.0000  0.0003  0.7240  0.0002 </r>
       </set>
       <set comment="band 30">
        <r>  0.0000  0.0000  0.0000  0.0000  0.0000  0.0000  0.0000  0.0000  0.0000  0.0000  0.0189  0.0000  0.0000  0.0000  0.0000  0.0000 </r>
       </set>
       <set comment="band 31">
        <r>  0.0000  0.0000  0.0000  0.0000  0.0000  0.0012  0.0000  0.0001  0.0011  0.1308  0.0000  0.2179  0.0000  0.3619  0.0233  0.2171 </r>
       </set>
       <set comment="band 32">
        <r>  0.0000  0.0000  0.0000  0.0000  0.0000  0.0001  0.0000  0.0000  0.0001  0.2045  0.0000  0.3407  0.0000  0.2334  0.0366  0.1401 </r>
       </set>
       <set comment="band 33">
        <r>  0.0000  0.0001  0.0000  0.0001  0.0000  0.0000  0.0000  0.0000  0.0000  0.2291  0.0000  0.1375  0.1308  0.1676  0.0000  0.2793 </r>
       </set>
       <set comment="band 34">
        <r>  0.0000  0.0001  0.0000  0.0001  0.0000  0.0000  0.0000  0.0000  0.0000  0.2536  0.0001  0.1522  0.0507  0.1831  0.0000  0.3050 </r>
       </set>
       <set comment="band 35">
        <r>  0.0000  0.0000  0.0001  0.0000  0.0000  0.0000  0.0000  0.0000  0.0000  0.1024  0.0420  0.0614  0.7304  0.0035  0.0000  0.0058 </r>
       </set>
       <set comment="band 36">
        <r>  0.0000  0.0001  0.0003  0.0000  0.0000  0.0000  0.0000  0.0000  0.0000  0.0050  0.8980  0.0030  0.0311  0.0000  0.0000  0.0001 </r>
       </set>
      </set>
     </set>
    </set>
   </array>
  </projected>
 </calculation>
 <structure name="finalpos" >
  <crystal>
   <varray name="basis" >
    <v>      10.00000000       0.00000000       0.00000000 </v>
    <v>       0.00000000      10.00000000       0.00000000 </v>
    <v>       0.00000000       0.00000000      10.00000000 </v>
   </varray>
   <i name="volume">   1000.00000000 </i>
   <varray name="rec_basis" >
    <v>       0.10000000       0.00000000       0.00000000 </v>
    <v>       0.00000000       0.10000000       0.00000000 </v>
    <v>       0.00000000       0.00000000       0.10000000 </v>
   </varray>
  </crystal>
  <varray name="positions" >
   <v>       0.50000000       0.50000000       0.50000000 </v>
  </varray>
 </structure>
</modeling>
