       N       E                     dE             d eps       ncg     rms          ort
DAV:   1     0.526776855029E+02    0.52678E+02   -0.27344E+03    36   0.194E+02
DAV:   2     0.184338263523E+02   -0.34244E+02   -0.34244E+02    36   0.180E+01
DAV:   3     0.243379423307E+01   -0.16000E+02   -0.15866E+02    36   0.256E+01
DAV:   4     0.434707523124E-01   -0.23903E+01   -0.23674E+01    36   0.131E+01
DAV:   5    -0.454469948153E+00   -0.49794E+00   -0.48690E+00    36   0.472E+00
SDA:   6    -0.337128402829E+00    0.11734E+00   -0.13899E+01    36   0.347E+01 0.000E+00
DMP:   7    -0.176478267221E+00    0.16065E+00   -0.22651E+01    36   0.780E+01-0.558E+01
DMP:   8    -0.505917455142E+00   -0.32944E+00   -0.85597E+00    36   0.340E+01-0.329E+01
DMP:   9    -0.786124520519E+00   -0.28021E+00   -0.74919E+00    36   0.269E+01-0.214E+01
DMP:  10    -0.813543982789E+00   -0.27419E-01   -0.15945E+01    36   0.531E+01-0.347E+01
DMP:  11    -0.867992930592E+00   -0.54449E-01   -0.73467E+00    36   0.237E+01-0.139E+01
DMP:  12    -0.105079612327E+01   -0.18280E+00   -0.13491E+01    36   0.449E+01-0.292E+01
DMP:  13    -0.119723448542E+01   -0.14644E+00   -0.10151E+01    36   0.353E+01-0.259E+01
DMP:  14    -0.127392120904E+01   -0.76687E-01   -0.43211E+00    36   0.151E+01-0.112E+01
DMP:  15    -0.138749603583E+01   -0.11357E+00   -0.28895E+00    36   0.120E+01-0.124E+01
DMP:  16    -0.144199895673E+01   -0.54503E-01   -0.65803E-01    36   0.262E+00-0.255E+00
DMP:  17    -0.146412214028E+01   -0.22123E-01   -0.13527E-01    36   0.662E-01-0.848E-01
DMP:  18    -0.146986483821E+01   -0.57427E-02   -0.74464E-03    36   0.306E-02-0.314E-02
DMP:  19    -0.147050661335E+01   -0.64178E-03   -0.10097E-02    36   0.202E-02 0.133E-02
DMP:  20    -0.147071629114E+01   -0.20968E-03   -0.11360E-02    36   0.341E-02-0.149E-02
DMP:  21    -0.147105744425E+01   -0.34115E-03   -0.47731E-03    36   0.159E-02-0.103E-02
DMP:  22    -0.147128787498E+01   -0.23043E-03   -0.11163E-03    36   0.295E-03-0.429E-04
DMP:  23    -0.147137766721E+01   -0.89792E-04   -0.52949E-04    36   0.681E-04 0.168E-03
DMP:  24    -0.147141841014E+01   -0.40743E-04   -0.44010E-04    36   0.835E-04 0.694E-04
   1 F= -.14714184E+01 E0= -.14587465E+01  d E =-.147142E+01  mag=     3.0000
