<?xml version="1.0" encoding="ISO-8859-1"?>
<modeling>
 <generator>
  <i name="program" type="string">vasp </i>
  <i name="version" type="string">5.4.4.18Apr17-6-g9f103f2a35  </i>
  <i name="subversion" type="string">(build Nov 08 2019 15:19:53) gamma-only         parallel </i>
  <i name="platform" type="string">LinuxIFC </i>
  <i name="date" type="string">2020 11 30 </i>
  <i name="time" type="string">09:31:21 </i>
 </generator>
 <incar>
  <i type="string" name="PREC">accurate</i>
  <i type="string" name="ALGO"> D</i>
  <i type="int" name="ISPIN">     2</i>
  <i type="int" name="NELM">   300</i>
  <i type="int" name="IBRION">     2</i>
  <i name="EDIFF">      0.00005000</i>
  <i type="int" name="NSW">    99</i>
  <i type="int" name="ISIF">     2</i>
  <i name="ENCUT">    520.00000000</i>
  <v name="MAGMOM">      0.60000000</v>
  <i type="string" name="LREAL"> Auto</i>
  <i type="int" name="ISMEAR">     0</i>
  <i name="SIGMA">      0.05000000</i>
  <i type="logical" name="LWAVE"> F  </i>
  <i type="int" name="LORBIT">    11</i>
  <i type="logical" name="LASPH"> T  </i>
  <v type="int" name="KPOINT_BSE">    -1     0     0     0</v>
  <i type="int" name="NELM">   300</i>
  <i type="logical" name="LASPH"> T  </i>
 </incar>
 <structure name="primitive_cell" >
  <crystal>
   <varray name="basis" >
    <v>      10.00000000       0.00000000       0.00000000 </v>
    <v>       0.00000000      10.00000000       0.00000000 </v>
    <v>       0.00000000       0.00000000      10.00000000 </v>
   </varray>
   <i name="volume">   1000.00000000 </i>
   <varray name="rec_basis" >
    <v>       0.10000000       0.00000000       0.00000000 </v>
    <v>       0.00000000       0.10000000       0.00000000 </v>
    <v>       0.00000000       0.00000000       0.10000000 </v>
   </varray>
  </crystal>
  <varray name="positions" >
   <v>      -0.50000000      -0.50000000      -0.50000000 </v>
  </varray>
 </structure>
 <varray name="primitive_index" >
  <v type="int" >        1 </v>
 </varray>
 <kpoints>
  <generation param="Gamma">
   <v type="int" name="divisions">       1        1        1 </v>
   <v name="usershift">      0.00000000       0.00000000       0.00000000 </v>
   <v name="genvec1">      1.00000000       0.00000000       0.00000000 </v>
   <v name="genvec2">      0.00000000       1.00000000       0.00000000 </v>
   <v name="genvec3">      0.00000000       0.00000000       1.00000000 </v>
   <v name="shift">      0.00000000       0.00000000       0.00000000 </v>
  </generation>
  <varray name="kpointlist" >
   <v>       0.00000000       0.00000000       0.00000000 </v>
  </varray>
  <varray name="weights" >
   <v>       1.00000000 </v>
  </varray>
 </kpoints>
 <parameters>
  <separator name="general" >
   <i type="string" name="SYSTEM">unknown system</i>
   <i type="logical" name="LCOMPAT"> F  </i>
  </separator>
  <separator name="electronic" >
   <i type="string" name="PREC">accura</i>
   <i name="ENMAX">    520.00000000</i>
   <i name="ENAUG">    318.96200000</i>
   <i name="EDIFF">      0.00005000</i>
   <i type="int" name="IALGO">    53</i>
   <i type="int" name="IWAVPR">    11</i>
   <i type="int" name="NBANDS">    36</i>
   <i name="NELECT">      9.00000000</i>
   <i type="int" name="TURBO">     0</i>
   <i type="int" name="IRESTART">     0</i>
   <i type="int" name="NREBOOT">     0</i>
   <i type="int" name="NMIN">     0</i>
   <i name="EREF">      0.00000000</i>
   <separator name="electronic smearing" >
    <i type="int" name="ISMEAR">     0</i>
    <i name="SIGMA">      0.05000000</i>
    <i name="KSPACING">      0.50000000</i>
    <i type="logical" name="KGAMMA"> T  </i>
   </separator>
   <separator name="electronic projectors" >
    <i type="logical" name="LREAL"> T  </i>
    <v name="ROPT">     -0.00025000</v>
    <i type="int" name="LMAXPAW">  -100</i>
    <i type="int" name="LMAXMIX">     2</i>
    <i type="logical" name="NLSPLINE"> F  </i>
   </separator>
   <separator name="electronic startup" >
    <i type="int" name="ISTART">     0</i>
    <i type="int" name="ICHARG">     2</i>
    <i type="int" name="INIWAV">     1</i>
   </separator>
   <separator name="electronic spin" >
    <i type="int" name="ISPIN">     2</i>
    <i type="logical" name="LNONCOLLINEAR"> F  </i>
    <v name="MAGMOM">      0.60000000</v>
    <i name="NUPDOWN">     -1.00000000</i>
    <i type="logical" name="LSORBIT"> F  </i>
    <v name="SAXIS">      0.00000000      0.00000000      1.00000000</v>
    <i type="logical" name="LSPIRAL"> F  </i>
    <v name="QSPIRAL">      0.00000000      0.00000000      0.00000000</v>
    <i type="logical" name="LZEROZ"> F  </i>
   </separator>
   <separator name="electronic exchange-correlation" >
    <i type="logical" name="LASPH"> T  </i>
    <i type="logical" name="LMETAGGA"> F  </i>
   </separator>
   <separator name="electronic convergence" >
    <i type="int" name="NELM">   300</i>
    <i type="int" name="NELMDL">    -5</i>
    <i type="int" name="NELMIN">     2</i>
    <i name="ENINI">    520.00000000</i>
    <separator name="electronic convergence detail" >
     <i type="logical" name="LDIAG"> T  </i>
     <i type="logical" name="LSUBROT"> F  </i>
     <i name="WEIMIN">      0.00100000</i>
     <i name="EBREAK">      0.00000035</i>
     <i name="DEPER">      0.30000000</i>
     <i type="int" name="NRMM">     4</i>
     <i name="TIME">      0.40000000</i>
    </separator>
   </separator>
   <separator name="electronic mixer" >
    <i name="AMIX">      0.40000000</i>
    <i name="BMIX">      1.00000000</i>
    <i name="AMIN">      0.10000000</i>
    <i name="AMIX_MAG">      1.60000000</i>
    <i name="BMIX_MAG">      1.00000000</i>
    <separator name="electronic mixer details" >
     <i type="int" name="IMIX">     4</i>
     <i type="logical" name="MIXFIRST"> F  </i>
     <i type="int" name="MAXMIX">   -45</i>
     <i name="WC">    100.00000000</i>
     <i type="int" name="INIMIX">     1</i>
     <i type="int" name="MIXPRE">     1</i>
     <i type="int" name="MREMOVE">     5</i>
    </separator>
   </separator>
   <separator name="electronic dipolcorrection" >
    <i type="logical" name="LDIPOL"> F  </i>
    <i type="logical" name="LMONO"> F  </i>
    <i type="int" name="IDIPOL">     0</i>
    <i name="EPSILON">      1.00000000</i>
    <v name="DIPOL">   -100.00000000   -100.00000000   -100.00000000</v>
    <i name="EFIELD">      0.00000000</i>
   </separator>
  </separator>
  <separator name="grids" >
   <i type="int" name="NGX">    80</i>
   <i type="int" name="NGY">    80</i>
   <i type="int" name="NGZ">    80</i>
   <i type="int" name="NGXF">   160</i>
   <i type="int" name="NGYF">   160</i>
   <i type="int" name="NGZF">   160</i>
   <i type="logical" name="ADDGRID"> F  </i>
  </separator>
  <separator name="ionic" >
   <i type="int" name="NSW">    99</i>
   <i type="int" name="IBRION">     2</i>
   <i type="int" name="MDALGO">     0</i>
   <i type="int" name="ISIF">     2</i>
   <i name="PSTRESS">      0.00000000</i>
   <i name="EDIFFG">      0.00050000</i>
   <i type="int" name="NFREE">     1</i>
   <i name="POTIM">      0.50000000</i>
   <i name="SMASS">     -3.00000000</i>
   <i name="SCALEE">      1.00000000</i>
  </separator>
  <separator name="ionic md" >
   <i name="TEBEG">      0.00010000</i>
   <i name="TEEND">      0.00010000</i>
   <i type="int" name="NBLOCK">     1</i>
   <i type="int" name="KBLOCK">    99</i>
   <i type="int" name="NPACO">   256</i>
   <i name="APACO">     16.00000000</i>
  </separator>
  <separator name="symmetry" >
   <i type="int" name="ISYM">     2</i>
   <i name="SYMPREC">      0.00001000</i>
  </separator>
  <separator name="dos" >
   <i type="int" name="LORBIT">    11</i>
   <v name="RWIGS">     -1.00000000</v>
   <i type="int" name="NEDOS">   301</i>
   <i name="EMIN">     10.00000000</i>
   <i name="EMAX">    -10.00000000</i>
   <i name="EFERMI">      0.00000000</i>
  </separator>
  <separator name="writing" >
   <i type="int" name="NWRITE">     2</i>
   <i type="logical" name="LWAVE"> F  </i>
   <i type="logical" name="LDOWNSAMPLE"> F  </i>
   <i type="logical" name="LCHARG"> T  </i>
   <i type="logical" name="LPARD"> F  </i>
   <i type="logical" name="LVTOT"> F  </i>
   <i type="logical" name="LVHAR"> F  </i>
   <i type="logical" name="LELF"> F  </i>
   <i type="logical" name="LOPTICS"> F  </i>
   <v name="STM">      0.00000000      0.00000000      0.00000000      0.00000000      0.00000000      0.00000000      0.00000000</v>
  </separator>
  <separator name="performance" >
   <i type="int" name="NPAR">    36</i>
   <i type="int" name="NSIM">     4</i>
   <i type="int" name="NBLK">    -1</i>
   <i type="logical" name="LPLANE"> T  </i>
   <i type="logical" name="LSCALAPACK"> T  </i>
   <i type="logical" name="LSCAAWARE"> F  </i>
   <i type="logical" name="LSCALU"> F  </i>
   <i type="logical" name="LASYNC"> F  </i>
   <i type="logical" name="LORBITALREAL"> F  </i>
  </separator>
  <separator name="miscellaneous" >
   <i type="int" name="IDIOT">     3</i>
   <i type="int" name="ISPECIAL">     0</i>
   <i type="logical" name="LMUSIC"> F  </i>
   <v name="POMASS">    192.22000000</v>
   <v name="DARWINR">      0.00000000</v>
   <v name="DARWINV">      1.00000000</v>
   <i type="logical" name="LCORR"> T  </i>
  </separator>
  <i type="logical" name="GGA_COMPAT"> T  </i>
  <i type="logical" name="LBERRY"> F  </i>
  <i type="int" name="ICORELEVEL">     0</i>
  <i type="logical" name="LDAU"> F  </i>
  <i type="int" name="I_CONSTRAINED_M">     0</i>
  <separator name="electronic exchange-correlation" >
   <i type="string" name="GGA">--</i>
   <i type="int" name="VOSKOWN">     0</i>
   <i type="logical" name="LHFCALC"> F  </i>
   <i type="string" name="PRECFOCK"></i>
   <i type="logical" name="LSYMGRAD"> F  </i>
   <i type="logical" name="LHFONE"> F  </i>
   <i type="logical" name="LRHFCALC"> F  </i>
   <i type="logical" name="LTHOMAS"> F  </i>
   <i type="logical" name="LMODELHF"> F  </i>
   <i name="ENCUT4O">     -1.00000000</i>
   <i type="int" name="EXXOEP">     0</i>
   <i type="int" name="FOURORBIT">     0</i>
   <i name="AEXX">      0.00000000</i>
   <i name="HFALPHA">      0.00000000</i>
   <i name="MCALPHA">      0.00000000</i>
   <i name="ALDAX">      1.00000000</i>
   <i name="AGGAX">      1.00000000</i>
   <i name="ALDAC">      1.00000000</i>
   <i name="AGGAC">      1.00000000</i>
   <i type="int" name="NKREDX">     1</i>
   <i type="int" name="NKREDY">     1</i>
   <i type="int" name="NKREDZ">     1</i>
   <i type="logical" name="SHIFTRED"> F  </i>
   <i type="logical" name="ODDONLY"> F  </i>
   <i type="logical" name="EVENONLY"> F  </i>
   <i type="int" name="LMAXFOCK">     0</i>
   <i type="int" name="NMAXFOCKAE">     0</i>
   <i type="logical" name="LFOCKAEDFT"> F  </i>
   <i name="HFSCREEN">      0.00000000</i>
   <i name="HFSCREENC">      0.00000000</i>
   <i type="int" name="NBANDSGWLOW">     0</i>
  </separator>
  <separator name="vdW DFT" >
   <i type="logical" name="LUSE_VDW"> F  </i>
   <i name="Zab_VDW">     -0.84910000</i>
   <i name="PARAM1">      0.12340000</i>
   <i name="PARAM2">      1.00000000</i>
   <i name="PARAM3">      0.00000000</i>
  </separator>
  <separator name="model GW" >
   <i type="int" name="MODEL_GW">     0</i>
   <i name="MODEL_EPS0">    600.00000000</i>
   <i name="MODEL_ALPHA">      1.00000000</i>
  </separator>
  <separator name="linear response parameters" >
   <i type="logical" name="LEPSILON"> F  </i>
   <i type="logical" name="LRPA"> F  </i>
   <i type="logical" name="LNABLA"> F  </i>
   <i type="logical" name="LVEL"> F  </i>
   <i type="int" name="KINTER">     0</i>
   <i name="CSHIFT">      0.10000000</i>
   <i name="OMEGAMAX">     -1.00000000</i>
   <i name="DEG_THRESHOLD">      0.00200000</i>
   <i name="RTIME">     -0.10000000</i>
   <i name="WPLASMAI">      0.00000000</i>
   <v name="DFIELD">      0.00000000      0.00000000      0.00000000</v>
   <v name="WPLASMA">      0.00000000      0.00000000      0.00000000      0.00000000      0.00000000      0.00000000      0.00000000      0.00000000      0.00000000</v>
  </separator>
  <separator name="orbital magnetization" >
   <i type="logical" name="NUCIND"> F  </i>
   <v name="MAGPOS">      0.00000000      0.00000000      0.00000000</v>
   <i type="logical" name="LNICSALL"> T  </i>
   <i type="logical" name="ORBITALMAG"> F  </i>
   <i type="logical" name="LMAGBLOCH"> F  </i>
   <i type="logical" name="LCHIMAG"> F  </i>
   <i type="logical" name="LGAUGE"> T  </i>
   <i type="int" name="MAGATOM">     0</i>
   <v name="MAGDIPOL">      0.00000000      0.00000000      0.00000000</v>
   <v name="AVECCONST">      0.00000000      0.00000000      0.00000000</v>
  </separator>
  <separator name="response functions" >
   <i type="logical" name="LADDER"> F  </i>
   <i type="logical" name="LRPAFORCE"> F  </i>
   <i type="logical" name="LFXC"> F  </i>
   <i type="logical" name="LHARTREE"> T  </i>
   <i type="int" name="IBSE">     0</i>
   <v type="int" name="KPOINT">    -1     0     0     0</v>
   <i type="logical" name="LTCTE"> F  </i>
   <i type="logical" name="LTETE"> F  </i>
   <i type="logical" name="LTRIPLET"> F  </i>
   <i type="logical" name="LFXCEPS"> F  </i>
   <i type="logical" name="LFXHEG"> F  </i>
   <i type="int" name="NATURALO">     2</i>
   <i type="logical" name="L2ORDER"> F  </i>
   <i type="logical" name="LMP2LT"> F  </i>
   <i type="logical" name="LUSEW"> F  </i>
   <i name="ENCUTGW">     -2.00000000</i>
   <i name="ENCUTGWSOFT">     -2.00000000</i>
   <i name="ENCUTLF">     -1.00000000</i>
   <i type="int" name="LMAXMP2">    -1</i>
   <i name="SCISSOR">      0.00000000</i>
   <i type="int" name="NOMEGA">     0</i>
   <i type="int" name="NOMEGAR">     0</i>
   <i type="int" name="NBANDSGW">    -1</i>
   <i type="int" name="NBANDSO">    -1</i>
   <i type="int" name="NBANDSV">    -1</i>
   <i type="int" name="NELM">   300</i>
   <i type="int" name="NELMHF">     1</i>
   <i type="int" name="DIM">     3</i>
   <i type="int" name="ANTIRES">     0</i>
   <i name="OMEGAMAX">    -30.00000000</i>
   <i name="OMEGAMIN">    -30.00000000</i>
   <i name="OMEGATL">   -200.00000000</i>
   <i type="int" name="OMEGAGRID">   140</i>
   <i name="CSHIFT">     -0.10000000</i>
   <i type="logical" name="SELFENERGY"> F  </i>
   <i type="logical" name="LSPECTRAL"> F  </i>
   <i type="logical" name="LSPECTRALGW"> F  </i>
   <i type="logical" name="LSINGLES"> F  </i>
   <i type="logical" name="LFERMIGW"> F  </i>
   <i type="logical" name="ODDONLYGW"> F  </i>
   <i type="logical" name="EVENONLYGW"> F  </i>
   <i type="int" name="NKREDLFX">     1</i>
   <i type="int" name="NKREDLFY">     1</i>
   <i type="int" name="NKREDLFZ">     1</i>
   <i type="int" name="MAXMEM">  2800</i>
   <i type="int" name="TELESCOPE">     0</i>
   <i type="int" name="TAUPAR">     1</i>
   <i type="int" name="OMEGAPAR">    -1</i>
   <i name="LAMBDA">      1.00000000</i>
  </separator>
  <separator name="External order field" >
   <i name="OFIELD_KAPPA">      0.00000000</i>
   <v name="OFIELD_K">      0.00000000      0.00000000      0.00000000</v>
   <i name="OFIELD_Q6_NEAR">      0.00000000</i>
   <i name="OFIELD_Q6_FAR">      0.00000000</i>
   <i name="OFIELD_A">      0.00000000</i>
  </separator>
 </parameters>
 <atominfo>
  <atoms>       1 </atoms>
  <types>       1 </types>
  <array name="atoms" >
   <dimension dim="1">ion</dimension>
   <field type="string">element</field>
   <field type="int">atomtype</field>
   <set>
    <rc><c>Ir</c><c>   1</c></rc>
   </set>
  </array>
  <array name="atomtypes" >
   <dimension dim="1">type</dimension>
   <field type="int">atomspertype</field>
   <field type="string">element</field>
   <field>mass</field>
   <field>valence</field>
   <field type="string">pseudopotential</field>
   <set>
    <rc><c>   1</c><c>Ir</c><c>    192.22000000</c><c>      9.00000000</c><c>  PAW_PBE Ir 06Sep2000                  </c></rc>
   </set>
  </array>
 </atominfo>
 <structure name="initialpos" >
  <crystal>
   <varray name="basis" >
    <v>      10.00000000       0.00000000       0.00000000 </v>
    <v>       0.00000000      10.00000000       0.00000000 </v>
    <v>       0.00000000       0.00000000      10.00000000 </v>
   </varray>
   <i name="volume">   1000.00000000 </i>
   <varray name="rec_basis" >
    <v>       0.10000000       0.00000000       0.00000000 </v>
    <v>       0.00000000       0.10000000       0.00000000 </v>
    <v>       0.00000000       0.00000000       0.10000000 </v>
   </varray>
  </crystal>
  <varray name="positions" >
   <v>       0.50000000       0.50000000       0.50000000 </v>
  </varray>
 </structure>
 <calculation>
  <scstep>
   <time name="total">    0.87    0.87</time>
   <energy>
    <i name="alphaZ">      1.14022944 </i>
    <i name="ewald">   -165.46874404 </i>
    <i name="hartreedc">   -369.72405797 </i>
    <i name="XCdc">    -19.55108422 </i>
    <i name="pawpsdc">    551.36183347 </i>
    <i name="pawaedc">   -511.04564212 </i>
    <i name="eentropy">     -0.00000000 </i>
    <i name="bandstr">      5.78318281 </i>
    <i name="atom">    560.18196814 </i>
    <i name="e_fr_energy">     52.67768550 </i>
    <i name="e_wo_entrp">     52.67768550 </i>
    <i name="e_0_energy">     52.67768550 </i>
   </energy>
  </scstep>
  <scstep>
   <time name="total">    0.39    0.39</time>
   <energy>
    <i name="e_fr_energy">     18.43382635 </i>
    <i name="e_wo_entrp">     18.43515458 </i>
    <i name="e_0_energy">     18.43449047 </i>
   </energy>
  </scstep>
  <scstep>
   <time name="total">    0.39    0.39</time>
   <energy>
    <i name="e_fr_energy">      2.43379423 </i>
    <i name="e_wo_entrp">      2.43922734 </i>
    <i name="e_0_energy">      2.43651079 </i>
   </energy>
  </scstep>
  <scstep>
   <time name="total">    0.40    0.40</time>
   <energy>
    <i name="e_fr_energy">      0.04347075 </i>
    <i name="e_wo_entrp">      0.08591992 </i>
    <i name="e_0_energy">      0.06469534 </i>
   </energy>
  </scstep>
  <scstep>
   <time name="total">    0.61    0.62</time>
   <energy>
    <i name="e_fr_energy">     -0.45446995 </i>
    <i name="e_wo_entrp">     -0.39063881 </i>
    <i name="e_0_energy">     -0.42255438 </i>
   </energy>
  </scstep>
  <scstep>
   <time name="total">    0.91    0.91</time>
   <energy>
    <i name="e_fr_energy">     -0.33712840 </i>
    <i name="e_wo_entrp">     -0.27152751 </i>
    <i name="e_0_energy">     -0.30432796 </i>
   </energy>
  </scstep>
  <scstep>
   <time name="total">    0.88    0.89</time>
   <energy>
    <i name="e_fr_energy">     -0.17647827 </i>
    <i name="e_wo_entrp">     -0.11133408 </i>
    <i name="e_0_energy">     -0.14390618 </i>
   </energy>
  </scstep>
  <scstep>
   <time name="total">    0.89    0.89</time>
   <energy>
    <i name="e_fr_energy">     -0.50591746 </i>
    <i name="e_wo_entrp">     -0.43962184 </i>
    <i name="e_0_energy">     -0.47276965 </i>
   </energy>
  </scstep>
  <scstep>
   <time name="total">    0.90    0.90</time>
   <energy>
    <i name="e_fr_energy">     -0.78612452 </i>
    <i name="e_wo_entrp">     -0.71503398 </i>
    <i name="e_0_energy">     -0.75057925 </i>
   </energy>
  </scstep>
  <scstep>
   <time name="total">    0.90    0.90</time>
   <energy>
    <i name="e_fr_energy">     -0.81354398 </i>
    <i name="e_wo_entrp">     -0.76134491 </i>
    <i name="e_0_energy">     -0.78744445 </i>
   </energy>
  </scstep>
  <scstep>
   <time name="total">    0.89    0.89</time>
   <energy>
    <i name="e_fr_energy">     -0.86799293 </i>
    <i name="e_wo_entrp">     -0.84130605 </i>
    <i name="e_0_energy">     -0.85464949 </i>
   </energy>
  </scstep>
  <scstep>
   <time name="total">    0.89    0.89</time>
   <energy>
    <i name="e_fr_energy">     -1.05079612 </i>
    <i name="e_wo_entrp">     -1.00604022 </i>
    <i name="e_0_energy">     -1.02841817 </i>
   </energy>
  </scstep>
  <scstep>
   <time name="total">    0.90    0.90</time>
   <energy>
    <i name="e_fr_energy">     -1.19723449 </i>
    <i name="e_wo_entrp">     -1.18526093 </i>
    <i name="e_0_energy">     -1.19124771 </i>
   </energy>
  </scstep>
  <scstep>
   <time name="total">    0.89    0.89</time>
   <energy>
    <i name="e_fr_energy">     -1.27392121 </i>
    <i name="e_wo_entrp">     -1.23298179 </i>
    <i name="e_0_energy">     -1.25345150 </i>
   </energy>
  </scstep>
  <scstep>
   <time name="total">    0.89    0.89</time>
   <energy>
    <i name="e_fr_energy">     -1.38749604 </i>
    <i name="e_wo_entrp">     -1.36636973 </i>
    <i name="e_0_energy">     -1.37693288 </i>
   </energy>
  </scstep>
  <scstep>
   <time name="total">    0.91    0.91</time>
   <energy>
    <i name="e_fr_energy">     -1.44199896 </i>
    <i name="e_wo_entrp">     -1.41013785 </i>
    <i name="e_0_energy">     -1.42606840 </i>
   </energy>
  </scstep>
  <scstep>
   <time name="total">    0.89    0.89</time>
   <energy>
    <i name="e_fr_energy">     -1.46412214 </i>
    <i name="e_wo_entrp">     -1.43686159 </i>
    <i name="e_0_energy">     -1.45049186 </i>
   </energy>
  </scstep>
  <scstep>
   <time name="total">    0.88    0.88</time>
   <energy>
    <i name="e_fr_energy">     -1.46986484 </i>
    <i name="e_wo_entrp">     -1.44302991 </i>
    <i name="e_0_energy">     -1.45644737 </i>
   </energy>
  </scstep>
  <scstep>
   <time name="total">    0.89    0.89</time>
   <energy>
    <i name="e_fr_energy">     -1.47050661 </i>
    <i name="e_wo_entrp">     -1.44276061 </i>
    <i name="e_0_energy">     -1.45663361 </i>
   </energy>
  </scstep>
  <scstep>
   <time name="total">    0.89    0.89</time>
   <energy>
    <i name="e_fr_energy">     -1.47071629 </i>
    <i name="e_wo_entrp">     -1.44487342 </i>
    <i name="e_0_energy">     -1.45779486 </i>
   </energy>
  </scstep>
  <scstep>
   <time name="total">    0.89    0.89</time>
   <energy>
    <i name="e_fr_energy">     -1.47105744 </i>
    <i name="e_wo_entrp">     -1.44480471 </i>
    <i name="e_0_energy">     -1.45793108 </i>
   </energy>
  </scstep>
  <scstep>
   <time name="total">    0.89    0.89</time>
   <energy>
    <i name="e_fr_energy">     -1.47128787 </i>
    <i name="e_wo_entrp">     -1.44554717 </i>
    <i name="e_0_energy">     -1.45841752 </i>
   </energy>
  </scstep>
  <scstep>
   <time name="total">    0.90    0.92</time>
   <energy>
    <i name="e_fr_energy">     -1.47137767 </i>
    <i name="e_wo_entrp">     -1.44603219 </i>
    <i name="e_0_energy">     -1.45870493 </i>
   </energy>
  </scstep>
  <scstep>
   <time name="total">    0.96    0.96</time>
   <energy>
    <i name="alphaZ">      1.14022944 </i>
    <i name="ewald">   -165.46874404 </i>
    <i name="hartreedc">   -357.05475108 </i>
    <i name="XCdc">    -18.76276285 </i>
    <i name="pawpsdc">    564.46156021 </i>
    <i name="pawaedc">   -526.03542170 </i>
    <i name="eentropy">     -0.02534385 </i>
    <i name="bandstr">    -59.90815104 </i>
    <i name="atom">    560.18196814 </i>
    <i name="e_fr_energy">     -1.47141841 </i>
    <i name="e_wo_entrp">     -1.44607456 </i>
    <i name="e_0_energy">     -1.45874649 </i>
   </energy>
  </scstep>
  <structure>
   <crystal>
    <varray name="basis" >
     <v>      10.00000000       0.00000000       0.00000000 </v>
     <v>       0.00000000      10.00000000       0.00000000 </v>
     <v>       0.00000000       0.00000000      10.00000000 </v>
    </varray>
    <i name="volume">   1000.00000000 </i>
    <varray name="rec_basis" >
     <v>       0.10000000       0.00000000       0.00000000 </v>
     <v>       0.00000000       0.10000000       0.00000000 </v>
     <v>       0.00000000       0.00000000       0.10000000 </v>
    </varray>
   </crystal>
   <varray name="positions" >
    <v>       0.50000000       0.50000000       0.50000000 </v>
   </varray>
  </structure>
  <varray name="forces" >
   <v>       0.00000000       0.00000000       0.00000000 </v>
  </varray>
  <varray name="stress" >
   <v>      -0.04075063       0.00000000       0.00000000 </v>
   <v>       0.00000000      -0.04075063       0.00000000 </v>
   <v>      -0.00000000       0.00000000      -0.04075063 </v>
  </varray>
  <energy>
   <i name="e_fr_energy">     -1.47141841 </i>
   <i name="e_wo_entrp">     -1.45874649 </i>
   <i name="e_0_energy">     -0.02534385 </i>
  </energy>
  <time name="totalsc">   26.47   26.80</time>
  <eigenvalues>
   <array>
    <dimension dim="1">band</dimension>
    <dimension dim="2">kpoint</dimension>
    <dimension dim="3">spin</dimension>
    <field>eigene</field>
    <field>occ</field>
    <set>
     <set comment="spin 1">
      <set comment="kpoint 1">
       <r>   -7.5900    1.0000 </r>
       <r>   -7.5898    1.0000 </r>
       <r>   -7.5898    1.0000 </r>
       <r>   -6.8869    1.0000 </r>
       <r>   -6.8868    1.0000 </r>
       <r>   -6.3533    1.0000 </r>
       <r>   -1.0397    0.0000 </r>
       <r>   -1.0395    0.0000 </r>
       <r>   -1.0387    0.0000 </r>
       <r>   -0.1267    0.0000 </r>
       <r>    1.0849    0.0000 </r>
       <r>    1.0850    0.0000 </r>
       <r>    1.7408    0.0000 </r>
       <r>    1.7413    0.0000 </r>
       <r>    1.7463    0.0000 </r>
       <r>    1.7603    0.0000 </r>
       <r>    2.1983    0.0000 </r>
       <r>    2.1995    0.0000 </r>
       <r>    2.1997    0.0000 </r>
       <r>    2.6653    0.0000 </r>
       <r>    2.6656    0.0000 </r>
       <r>    2.6732    0.0000 </r>
       <r>    2.6946    0.0000 </r>
       <r>    2.6971    0.0000 </r>
       <r>    3.6531    0.0000 </r>
       <r>    3.6774    0.0000 </r>
       <r>    3.7231    0.0000 </r>
       <r>    3.7432    0.0000 </r>
       <r>    3.8395    0.0000 </r>
       <r>    3.9561    0.0000 </r>
       <r>    3.9755    0.0000 </r>
       <r>    3.9856    0.0000 </r>
       <r>    4.5700    0.0000 </r>
       <r>    4.6544    0.0000 </r>
       <r>    4.7590    0.0000 </r>
       <r>    4.9238    0.0000 </r>
      </set>
     </set>
     <set comment="spin 2">
      <set comment="kpoint 1">
       <r>   -5.8698    1.0000 </r>
       <r>   -5.8660    1.0000 </r>
       <r>   -5.2926    0.7778 </r>
       <r>   -5.2196    0.0853 </r>
       <r>   -5.2181    0.0791 </r>
       <r>   -5.2122    0.0578 </r>
       <r>   -0.6090    0.0000 </r>
       <r>   -0.6085    0.0000 </r>
       <r>   -0.6084    0.0000 </r>
       <r>   -0.1226    0.0000 </r>
       <r>    1.0366    0.0000 </r>
       <r>    1.0368    0.0000 </r>
       <r>    1.7651    0.0000 </r>
       <r>    1.7666    0.0000 </r>
       <r>    1.7669    0.0000 </r>
       <r>    1.7867    0.0000 </r>
       <r>    2.2672    0.0000 </r>
       <r>    2.2675    0.0000 </r>
       <r>    2.2682    0.0000 </r>
       <r>    2.6129    0.0000 </r>
       <r>    2.6143    0.0000 </r>
       <r>    2.6160    0.0000 </r>
       <r>    2.6441    0.0000 </r>
       <r>    2.6459    0.0000 </r>
       <r>    3.7556    0.0000 </r>
       <r>    3.7648    0.0000 </r>
       <r>    3.7660    0.0000 </r>
       <r>    3.8097    0.0000 </r>
       <r>    3.8244    0.0000 </r>
       <r>    3.8977    0.0000 </r>
       <r>    3.9661    0.0000 </r>
       <r>    3.9765    0.0000 </r>
       <r>    4.7397    0.0000 </r>
       <r>    4.7578    0.0000 </r>
       <r>    4.8109    0.0000 </r>
       <r>    5.0175    0.0000 </r>
      </set>
     </set>
    </set>
   </array>
  </eigenvalues>
  <separator name="orbital magnetization" >
   <v name="MAGDIPOLOUT">      0.00000000      0.00000000      0.00000000</v>
  </separator>
  <dos>
   <i name="efermi">     -5.26696554 </i>
   <total>
    <array>
     <dimension dim="1">gridpoints</dimension>
     <dimension dim="2">spin</dimension>
     <field>energy</field>
     <field>total</field>
     <field>integrated</field>
     <set>
      <set comment="spin 1">
       <r>    -8.2204     0.0000     0.0000 </r>
       <r>    -8.1742     0.0000     0.0000 </r>
       <r>    -8.1279     0.0000     0.0000 </r>
       <r>    -8.0817     0.0000     0.0000 </r>
       <r>    -8.0355     0.0000     0.0000 </r>
       <r>    -7.9892     0.0000     0.0000 </r>
       <r>    -7.9430     0.0000     0.0000 </r>
       <r>    -7.8968     0.0000     0.0000 </r>
       <r>    -7.8506     0.0000     0.0000 </r>
       <r>    -7.8043     0.0000     0.0000 </r>
       <r>    -7.7581     0.0001     0.0000 </r>
       <r>    -7.7119     0.0181     0.0008 </r>
       <r>    -7.6657     1.0224     0.0481 </r>
       <r>    -7.6194    12.0400     0.6047 </r>
       <r>    -7.5732    31.1359     2.0440 </r>
       <r>    -7.5270    18.2383     2.8871 </r>
       <r>    -7.4807     2.3759     2.9970 </r>
       <r>    -7.4345     0.0654     3.0000 </r>
       <r>    -7.3883     0.0004     3.0000 </r>
       <r>    -7.3421     0.0000     3.0000 </r>
       <r>    -7.2958     0.0000     3.0000 </r>
       <r>    -7.2496     0.0000     3.0000 </r>
       <r>    -7.2034     0.0000     3.0000 </r>
       <r>    -7.1572     0.0000     3.0000 </r>
       <r>    -7.1109     0.0000     3.0000 </r>
       <r>    -7.0647     0.0000     3.0000 </r>
       <r>    -7.0185     0.0043     3.0002 </r>
       <r>    -6.9722     0.3363     3.0157 </r>
       <r>    -6.9260     5.4603     3.2682 </r>
       <r>    -6.8798    19.2637     4.1587 </r>
       <r>    -6.8336    15.3522     4.8684 </r>
       <r>    -6.7873     2.7420     4.9951 </r>
       <r>    -6.7411     0.1046     5.0000 </r>
       <r>    -6.6949     0.0008     5.0000 </r>
       <r>    -6.6486     0.0000     5.0000 </r>
       <r>    -6.6024     0.0000     5.0000 </r>
       <r>    -6.5562     0.0000     5.0000 </r>
       <r>    -6.5100     0.0001     5.0000 </r>
       <r>    -6.4637     0.0192     5.0009 </r>
       <r>    -6.4175     0.7300     5.0346 </r>
       <r>    -6.3713     5.8560     5.3053 </r>
       <r>    -6.3251    10.4341     5.7877 </r>
       <r>    -6.2788     4.2119     5.9824 </r>
       <r>    -6.2326     0.3739     5.9997 </r>
       <r>    -6.1864     0.0069     6.0000 </r>
       <r>    -6.1401     0.0000     6.0000 </r>
       <r>    -6.0939     0.0000     6.0000 </r>
       <r>    -6.0477     0.0000     6.0000 </r>
       <r>    -6.0015     0.0000     6.0000 </r>
       <r>    -5.9552     0.0000     6.0000 </r>
       <r>    -5.9090     0.0000     6.0000 </r>
       <r>    -5.8628     0.0000     6.0000 </r>
       <r>    -5.8166     0.0000     6.0000 </r>
       <r>    -5.7703     0.0000     6.0000 </r>
       <r>    -5.7241     0.0000     6.0000 </r>
       <r>    -5.6779     0.0000     6.0000 </r>
       <r>    -5.6316     0.0000     6.0000 </r>
       <r>    -5.5854     0.0000     6.0000 </r>
       <r>    -5.5392     0.0000     6.0000 </r>
       <r>    -5.4930     0.0000     6.0000 </r>
       <r>    -5.4467     0.0000     6.0000 </r>
       <r>    -5.4005     0.0000     6.0000 </r>
       <r>    -5.3543     0.0000     6.0000 </r>
       <r>    -5.3081     0.0000     6.0000 </r>
       <r>    -5.2618     0.0000     6.0000 </r>
       <r>    -5.2156     0.0000     6.0000 </r>
       <r>    -5.1694     0.0000     6.0000 </r>
       <r>    -5.1231     0.0000     6.0000 </r>
       <r>    -5.0769     0.0000     6.0000 </r>
       <r>    -5.0307     0.0000     6.0000 </r>
       <r>    -4.9845     0.0000     6.0000 </r>
       <r>    -4.9382     0.0000     6.0000 </r>
       <r>    -4.8920     0.0000     6.0000 </r>
       <r>    -4.8458     0.0000     6.0000 </r>
       <r>    -4.7995     0.0000     6.0000 </r>
       <r>    -4.7533     0.0000     6.0000 </r>
       <r>    -4.7071     0.0000     6.0000 </r>
       <r>    -4.6609     0.0000     6.0000 </r>
       <r>    -4.6146     0.0000     6.0000 </r>
       <r>    -4.5684     0.0000     6.0000 </r>
       <r>    -4.5222     0.0000     6.0000 </r>
       <r>    -4.4760     0.0000     6.0000 </r>
       <r>    -4.4297     0.0000     6.0000 </r>
       <r>    -4.3835     0.0000     6.0000 </r>
       <r>    -4.3373     0.0000     6.0000 </r>
       <r>    -4.2910     0.0000     6.0000 </r>
       <r>    -4.2448     0.0000     6.0000 </r>
       <r>    -4.1986     0.0000     6.0000 </r>
       <r>    -4.1524     0.0000     6.0000 </r>
       <r>    -4.1061     0.0000     6.0000 </r>
       <r>    -4.0599     0.0000     6.0000 </r>
       <r>    -4.0137     0.0000     6.0000 </r>
       <r>    -3.9675     0.0000     6.0000 </r>
       <r>    -3.9212     0.0000     6.0000 </r>
       <r>    -3.8750     0.0000     6.0000 </r>
       <r>    -3.8288     0.0000     6.0000 </r>
       <r>    -3.7825     0.0000     6.0000 </r>
       <r>    -3.7363     0.0000     6.0000 </r>
       <r>    -3.6901     0.0000     6.0000 </r>
       <r>    -3.6439     0.0000     6.0000 </r>
       <r>    -3.5976     0.0000     6.0000 </r>
       <r>    -3.5514     0.0000     6.0000 </r>
       <r>    -3.5052     0.0000     6.0000 </r>
       <r>    -3.4589     0.0000     6.0000 </r>
       <r>    -3.4127     0.0000     6.0000 </r>
       <r>    -3.3665     0.0000     6.0000 </r>
       <r>    -3.3203     0.0000     6.0000 </r>
       <r>    -3.2740     0.0000     6.0000 </r>
       <r>    -3.2278     0.0000     6.0000 </r>
       <r>    -3.1816     0.0000     6.0000 </r>
       <r>    -3.1354     0.0000     6.0000 </r>
       <r>    -3.0891     0.0000     6.0000 </r>
       <r>    -3.0429     0.0000     6.0000 </r>
       <r>    -2.9967     0.0000     6.0000 </r>
       <r>    -2.9504     0.0000     6.0000 </r>
       <r>    -2.9042     0.0000     6.0000 </r>
       <r>    -2.8580     0.0000     6.0000 </r>
       <r>    -2.8118     0.0000     6.0000 </r>
       <r>    -2.7655     0.0000     6.0000 </r>
       <r>    -2.7193     0.0000     6.0000 </r>
       <r>    -2.6731     0.0000     6.0000 </r>
       <r>    -2.6269     0.0000     6.0000 </r>
       <r>    -2.5806     0.0000     6.0000 </r>
       <r>    -2.5344     0.0000     6.0000 </r>
       <r>    -2.4882     0.0000     6.0000 </r>
       <r>    -2.4419     0.0000     6.0000 </r>
       <r>    -2.3957     0.0000     6.0000 </r>
       <r>    -2.3495     0.0000     6.0000 </r>
       <r>    -2.3033     0.0000     6.0000 </r>
       <r>    -2.2570     0.0000     6.0000 </r>
       <r>    -2.2108     0.0000     6.0000 </r>
       <r>    -2.1646     0.0000     6.0000 </r>
       <r>    -2.1183     0.0000     6.0000 </r>
       <r>    -2.0721     0.0000     6.0000 </r>
       <r>    -2.0259     0.0000     6.0000 </r>
       <r>    -1.9797     0.0000     6.0000 </r>
       <r>    -1.9334     0.0000     6.0000 </r>
       <r>    -1.8872     0.0000     6.0000 </r>
       <r>    -1.8410     0.0000     6.0000 </r>
       <r>    -1.7948     0.0000     6.0000 </r>
       <r>    -1.7485     0.0000     6.0000 </r>
       <r>    -1.7023     0.0000     6.0000 </r>
       <r>    -1.6561     0.0000     6.0000 </r>
       <r>    -1.6098     0.0000     6.0000 </r>
       <r>    -1.5636     0.0000     6.0000 </r>
       <r>    -1.5174     0.0000     6.0000 </r>
       <r>    -1.4712     0.0000     6.0000 </r>
       <r>    -1.4249     0.0000     6.0000 </r>
       <r>    -1.3787     0.0000     6.0000 </r>
       <r>    -1.3325     0.0000     6.0000 </r>
       <r>    -1.2863     0.0000     6.0000 </r>
       <r>    -1.2400     0.0000     6.0000 </r>
       <r>    -1.1938     0.0004     6.0000 </r>
       <r>    -1.1476     0.0709     6.0033 </r>
       <r>    -1.1013     2.5026     6.1190 </r>
       <r>    -1.0551    18.6705     6.9821 </r>
       <r>    -1.0089    31.0073     8.4155 </r>
       <r>    -0.9627    11.6650     8.9547 </r>
       <r>    -0.9164     0.9630     8.9992 </r>
       <r>    -0.8702     0.0165     9.0000 </r>
       <r>    -0.8240     0.0001     9.0000 </r>
       <r>    -0.7778     0.0000     9.0000 </r>
       <r>    -0.7315     0.0000     9.0000 </r>
       <r>    -0.6853     0.0000     9.0000 </r>
       <r>    -0.6391     0.0000     9.0000 </r>
       <r>    -0.5928     0.0000     9.0000 </r>
       <r>    -0.5466     0.0000     9.0000 </r>
       <r>    -0.5004     0.0000     9.0000 </r>
       <r>    -0.4542     0.0000     9.0000 </r>
       <r>    -0.4079     0.0000     9.0000 </r>
       <r>    -0.3617     0.0000     9.0000 </r>
       <r>    -0.3155     0.0000     9.0000 </r>
       <r>    -0.2692     0.0006     9.0000 </r>
       <r>    -0.2230     0.0690     9.0032 </r>
       <r>    -0.1768     1.6228     9.0782 </r>
       <r>    -0.1306     8.1804     9.4564 </r>
       <r>    -0.0843     9.2616     9.8845 </r>
       <r>    -0.0381     2.3654     9.9939 </r>
       <r>     0.0081     0.1308     9.9999 </r>
       <r>     0.0543     0.0015    10.0000 </r>
       <r>     0.1006     0.0000    10.0000 </r>
       <r>     0.1468     0.0000    10.0000 </r>
       <r>     0.1930     0.0000    10.0000 </r>
       <r>     0.2393     0.0000    10.0000 </r>
       <r>     0.2855     0.0000    10.0000 </r>
       <r>     0.3317     0.0000    10.0000 </r>
       <r>     0.3779     0.0000    10.0000 </r>
       <r>     0.4242     0.0000    10.0000 </r>
       <r>     0.4704     0.0000    10.0000 </r>
       <r>     0.5166     0.0000    10.0000 </r>
       <r>     0.5628     0.0000    10.0000 </r>
       <r>     0.6091     0.0000    10.0000 </r>
       <r>     0.6553     0.0000    10.0000 </r>
       <r>     0.7015     0.0000    10.0000 </r>
       <r>     0.7478     0.0000    10.0000 </r>
       <r>     0.7940     0.0000    10.0000 </r>
       <r>     0.8402     0.0000    10.0000 </r>
       <r>     0.8864     0.0000    10.0000 </r>
       <r>     0.9327     0.0004    10.0000 </r>
       <r>     0.9789     0.0582    10.0027 </r>
       <r>     1.0251     1.9029    10.0907 </r>
       <r>     1.0714    13.1965    10.7007 </r>
       <r>     1.1176    20.4069    11.6441 </r>
       <r>     1.1638     7.1435    11.9743 </r>
       <r>     1.2100     0.5473    11.9996 </r>
       <r>     1.2563     0.0087    12.0000 </r>
       <r>     1.3025     0.0000    12.0000 </r>
       <r>     1.3487     0.0000    12.0000 </r>
       <r>     1.3949     0.0000    12.0000 </r>
       <r>     1.4412     0.0000    12.0000 </r>
       <r>     1.4874     0.0000    12.0000 </r>
       <r>     1.5336     0.0000    12.0000 </r>
       <r>     1.5799     0.0001    12.0000 </r>
       <r>     1.6261     0.0335    12.0016 </r>
       <r>     1.6723     1.6208    12.0765 </r>
       <r>     1.7185    16.9378    12.8595 </r>
       <r>     1.7648    40.8461    14.7477 </r>
       <r>     1.8110    23.6905    15.8428 </r>
       <r>     1.8572     3.2933    15.9951 </r>
       <r>     1.9034     0.1056    16.0000 </r>
       <r>     1.9497     0.0007    16.0000 </r>
       <r>     1.9959     0.0000    16.0000 </r>
       <r>     2.0421     0.0003    16.0000 </r>
       <r>     2.0884     0.0557    16.0026 </r>
       <r>     2.1346     2.1434    16.1017 </r>
       <r>     2.1808    17.3884    16.9055 </r>
       <r>     2.2270    31.3368    18.3541 </r>
       <r>     2.2733    12.7996    18.9458 </r>
       <r>     2.3195     1.1506    18.9990 </r>
       <r>     2.3657     0.0216    19.0000 </r>
       <r>     2.4119     0.0001    19.0000 </r>
       <r>     2.4582     0.0000    19.0000 </r>
       <r>     2.5044     0.0001    19.0000 </r>
       <r>     2.5506     0.0316    19.0015 </r>
       <r>     2.5969     1.5463    19.0730 </r>
       <r>     2.6431    17.0246    19.8600 </r>
       <r>     2.6893    46.9173    22.0288 </r>
       <r>     2.7355    35.0996    23.6514 </r>
       <r>     2.7818     7.1676    23.9827 </r>
       <r>     2.8280     0.3691    23.9998 </r>
       <r>     2.8742     0.0043    24.0000 </r>
       <r>     2.9205     0.0000    24.0000 </r>
       <r>     2.9667     0.0000    24.0000 </r>
       <r>     3.0129     0.0000    24.0000 </r>
       <r>     3.0591     0.0000    24.0000 </r>
       <r>     3.1054     0.0000    24.0000 </r>
       <r>     3.1516     0.0000    24.0000 </r>
       <r>     3.1978     0.0000    24.0000 </r>
       <r>     3.2440     0.0000    24.0000 </r>
       <r>     3.2903     0.0000    24.0000 </r>
       <r>     3.3365     0.0000    24.0000 </r>
       <r>     3.3827     0.0000    24.0000 </r>
       <r>     3.4290     0.0000    24.0000 </r>
       <r>     3.4752     0.0000    24.0000 </r>
       <r>     3.5214     0.0022    24.0001 </r>
       <r>     3.5676     0.1877    24.0088 </r>
       <r>     3.6139     3.5054    24.1708 </r>
       <r>     3.6601    16.5782    24.9372 </r>
       <r>     3.7063    27.1745    26.1934 </r>
       <r>     3.7525    25.8801    27.3898 </r>
       <r>     3.7988    14.2904    28.0504 </r>
       <r>     3.8450    11.0418    28.5608 </r>
       <r>     3.8912     8.9378    28.9740 </r>
       <r>     3.9375    11.8927    29.5238 </r>
       <r>     3.9837    28.7362    30.8522 </r>
       <r>     4.0299    20.8187    31.8146 </r>
       <r>     4.0761     3.8429    31.9922 </r>
       <r>     4.1224     0.1668    31.9999 </r>
       <r>     4.1686     0.0016    32.0000 </r>
       <r>     4.2148     0.0000    32.0000 </r>
       <r>     4.2611     0.0000    32.0000 </r>
       <r>     4.3073     0.0000    32.0000 </r>
       <r>     4.3535     0.0000    32.0000 </r>
       <r>     4.3997     0.0000    32.0000 </r>
       <r>     4.4460     0.0049    32.0002 </r>
       <r>     4.4922     0.2950    32.0139 </r>
       <r>     4.5384     3.7292    32.1863 </r>
       <r>     4.5846    10.7822    32.6847 </r>
       <r>     4.6309    11.3665    33.2101 </r>
       <r>     4.6771    11.6415    33.7483 </r>
       <r>     4.7233     8.2689    34.1305 </r>
       <r>     4.7696    10.5092    34.6164 </r>
       <r>     4.8158     7.1496    34.9469 </r>
       <r>     4.8620     1.9808    35.0384 </r>
       <r>     4.9082     6.3016    35.3297 </r>
       <r>     4.9545    10.3243    35.8070 </r>
       <r>     5.0007     3.8540    35.9852 </r>
       <r>     5.0469     0.3156    35.9998 </r>
       <r>     5.0931     0.0054    36.0000 </r>
       <r>     5.1394     0.0000    36.0000 </r>
       <r>     5.1856     0.0000    36.0000 </r>
       <r>     5.2318     0.0000    36.0000 </r>
       <r>     5.2781     0.0000    36.0000 </r>
       <r>     5.3243     0.0000    36.0000 </r>
       <r>     5.3705     0.0000    36.0000 </r>
       <r>     5.4167     0.0000    36.0000 </r>
       <r>     5.4630     0.0000    36.0000 </r>
       <r>     5.5092     0.0000    36.0000 </r>
       <r>     5.5554     0.0000    36.0000 </r>
       <r>     5.6016     0.0000    36.0000 </r>
       <r>     5.6479     0.0000    36.0000 </r>
      </set>
      <set comment="spin 2">
       <r>    -8.2204     0.0000     0.0000 </r>
       <r>    -8.1742     0.0000     0.0000 </r>
       <r>    -8.1279     0.0000     0.0000 </r>
       <r>    -8.0817     0.0000     0.0000 </r>
       <r>    -8.0355     0.0000     0.0000 </r>
       <r>    -7.9892     0.0000     0.0000 </r>
       <r>    -7.9430     0.0000     0.0000 </r>
       <r>    -7.8968     0.0000     0.0000 </r>
       <r>    -7.8506     0.0000     0.0000 </r>
       <r>    -7.8043     0.0000     0.0000 </r>
       <r>    -7.7581     0.0000     0.0000 </r>
       <r>    -7.7119     0.0000     0.0000 </r>
       <r>    -7.6657     0.0000     0.0000 </r>
       <r>    -7.6194     0.0000     0.0000 </r>
       <r>    -7.5732     0.0000     0.0000 </r>
       <r>    -7.5270     0.0000     0.0000 </r>
       <r>    -7.4807     0.0000     0.0000 </r>
       <r>    -7.4345     0.0000     0.0000 </r>
       <r>    -7.3883     0.0000     0.0000 </r>
       <r>    -7.3421     0.0000     0.0000 </r>
       <r>    -7.2958     0.0000     0.0000 </r>
       <r>    -7.2496     0.0000     0.0000 </r>
       <r>    -7.2034     0.0000     0.0000 </r>
       <r>    -7.1572     0.0000     0.0000 </r>
       <r>    -7.1109     0.0000     0.0000 </r>
       <r>    -7.0647     0.0000     0.0000 </r>
       <r>    -7.0185     0.0000     0.0000 </r>
       <r>    -6.9722     0.0000     0.0000 </r>
       <r>    -6.9260     0.0000     0.0000 </r>
       <r>    -6.8798     0.0000     0.0000 </r>
       <r>    -6.8336     0.0000     0.0000 </r>
       <r>    -6.7873     0.0000     0.0000 </r>
       <r>    -6.7411     0.0000     0.0000 </r>
       <r>    -6.6949     0.0000     0.0000 </r>
       <r>    -6.6486     0.0000     0.0000 </r>
       <r>    -6.6024     0.0000     0.0000 </r>
       <r>    -6.5562     0.0000     0.0000 </r>
       <r>    -6.5100     0.0000     0.0000 </r>
       <r>    -6.4637     0.0000     0.0000 </r>
       <r>    -6.4175     0.0000     0.0000 </r>
       <r>    -6.3713     0.0000     0.0000 </r>
       <r>    -6.3251     0.0000     0.0000 </r>
       <r>    -6.2788     0.0000     0.0000 </r>
       <r>    -6.2326     0.0000     0.0000 </r>
       <r>    -6.1864     0.0000     0.0000 </r>
       <r>    -6.1401     0.0000     0.0000 </r>
       <r>    -6.0939     0.0000     0.0000 </r>
       <r>    -6.0477     0.0000     0.0000 </r>
       <r>    -6.0015     0.0035     0.0002 </r>
       <r>    -5.9552     0.2910     0.0136 </r>
       <r>    -5.9090     5.0129     0.2453 </r>
       <r>    -5.8628    18.7997     1.1144 </r>
       <r>    -5.8166    15.9730     1.8528 </r>
       <r>    -5.7703     3.0573     1.9941 </r>
       <r>    -5.7241     0.1259     2.0000 </r>
       <r>    -5.6779     0.0011     2.0000 </r>
       <r>    -5.6316     0.0000     2.0000 </r>
       <r>    -5.5854     0.0000     2.0000 </r>
       <r>    -5.5392     0.0000     2.0000 </r>
       <r>    -5.4930     0.0000     2.0000 </r>
       <r>    -5.4467     0.0001     2.0000 </r>
       <r>    -5.4005     0.0244     2.0011 </r>
       <r>    -5.3543     0.8546     2.0406 </r>
       <r>    -5.3081     6.6024     2.3459 </r>
       <r>    -5.2618    16.5828     3.1124 </r>
       <r>    -5.2156    30.4603     4.5205 </r>
       <r>    -5.1694    26.0601     5.7252 </r>
       <r>    -5.1231     5.6695     5.9873 </r>
       <r>    -5.0769     0.2716     5.9999 </r>
       <r>    -5.0307     0.0027     6.0000 </r>
       <r>    -4.9845     0.0000     6.0000 </r>
       <r>    -4.9382     0.0000     6.0000 </r>
       <r>    -4.8920     0.0000     6.0000 </r>
       <r>    -4.8458     0.0000     6.0000 </r>
       <r>    -4.7995     0.0000     6.0000 </r>
       <r>    -4.7533     0.0000     6.0000 </r>
       <r>    -4.7071     0.0000     6.0000 </r>
       <r>    -4.6609     0.0000     6.0000 </r>
       <r>    -4.6146     0.0000     6.0000 </r>
       <r>    -4.5684     0.0000     6.0000 </r>
       <r>    -4.5222     0.0000     6.0000 </r>
       <r>    -4.4760     0.0000     6.0000 </r>
       <r>    -4.4297     0.0000     6.0000 </r>
       <r>    -4.3835     0.0000     6.0000 </r>
       <r>    -4.3373     0.0000     6.0000 </r>
       <r>    -4.2910     0.0000     6.0000 </r>
       <r>    -4.2448     0.0000     6.0000 </r>
       <r>    -4.1986     0.0000     6.0000 </r>
       <r>    -4.1524     0.0000     6.0000 </r>
       <r>    -4.1061     0.0000     6.0000 </r>
       <r>    -4.0599     0.0000     6.0000 </r>
       <r>    -4.0137     0.0000     6.0000 </r>
       <r>    -3.9675     0.0000     6.0000 </r>
       <r>    -3.9212     0.0000     6.0000 </r>
       <r>    -3.8750     0.0000     6.0000 </r>
       <r>    -3.8288     0.0000     6.0000 </r>
       <r>    -3.7825     0.0000     6.0000 </r>
       <r>    -3.7363     0.0000     6.0000 </r>
       <r>    -3.6901     0.0000     6.0000 </r>
       <r>    -3.6439     0.0000     6.0000 </r>
       <r>    -3.5976     0.0000     6.0000 </r>
       <r>    -3.5514     0.0000     6.0000 </r>
       <r>    -3.5052     0.0000     6.0000 </r>
       <r>    -3.4589     0.0000     6.0000 </r>
       <r>    -3.4127     0.0000     6.0000 </r>
       <r>    -3.3665     0.0000     6.0000 </r>
       <r>    -3.3203     0.0000     6.0000 </r>
       <r>    -3.2740     0.0000     6.0000 </r>
       <r>    -3.2278     0.0000     6.0000 </r>
       <r>    -3.1816     0.0000     6.0000 </r>
       <r>    -3.1354     0.0000     6.0000 </r>
       <r>    -3.0891     0.0000     6.0000 </r>
       <r>    -3.0429     0.0000     6.0000 </r>
       <r>    -2.9967     0.0000     6.0000 </r>
       <r>    -2.9504     0.0000     6.0000 </r>
       <r>    -2.9042     0.0000     6.0000 </r>
       <r>    -2.8580     0.0000     6.0000 </r>
       <r>    -2.8118     0.0000     6.0000 </r>
       <r>    -2.7655     0.0000     6.0000 </r>
       <r>    -2.7193     0.0000     6.0000 </r>
       <r>    -2.6731     0.0000     6.0000 </r>
       <r>    -2.6269     0.0000     6.0000 </r>
       <r>    -2.5806     0.0000     6.0000 </r>
       <r>    -2.5344     0.0000     6.0000 </r>
       <r>    -2.4882     0.0000     6.0000 </r>
       <r>    -2.4419     0.0000     6.0000 </r>
       <r>    -2.3957     0.0000     6.0000 </r>
       <r>    -2.3495     0.0000     6.0000 </r>
       <r>    -2.3033     0.0000     6.0000 </r>
       <r>    -2.2570     0.0000     6.0000 </r>
       <r>    -2.2108     0.0000     6.0000 </r>
       <r>    -2.1646     0.0000     6.0000 </r>
       <r>    -2.1183     0.0000     6.0000 </r>
       <r>    -2.0721     0.0000     6.0000 </r>
       <r>    -2.0259     0.0000     6.0000 </r>
       <r>    -1.9797     0.0000     6.0000 </r>
       <r>    -1.9334     0.0000     6.0000 </r>
       <r>    -1.8872     0.0000     6.0000 </r>
       <r>    -1.8410     0.0000     6.0000 </r>
       <r>    -1.7948     0.0000     6.0000 </r>
       <r>    -1.7485     0.0000     6.0000 </r>
       <r>    -1.7023     0.0000     6.0000 </r>
       <r>    -1.6561     0.0000     6.0000 </r>
       <r>    -1.6098     0.0000     6.0000 </r>
       <r>    -1.5636     0.0000     6.0000 </r>
       <r>    -1.5174     0.0000     6.0000 </r>
       <r>    -1.4712     0.0000     6.0000 </r>
       <r>    -1.4249     0.0000     6.0000 </r>
       <r>    -1.3787     0.0000     6.0000 </r>
       <r>    -1.3325     0.0000     6.0000 </r>
       <r>    -1.2863     0.0000     6.0000 </r>
       <r>    -1.2400     0.0000     6.0000 </r>
       <r>    -1.1938     0.0000     6.0000 </r>
       <r>    -1.1476     0.0000     6.0000 </r>
       <r>    -1.1013     0.0000     6.0000 </r>
       <r>    -1.0551     0.0000     6.0000 </r>
       <r>    -1.0089     0.0000     6.0000 </r>
       <r>    -0.9627     0.0000     6.0000 </r>
       <r>    -0.9164     0.0000     6.0000 </r>
       <r>    -0.8702     0.0000     6.0000 </r>
       <r>    -0.8240     0.0000     6.0000 </r>
       <r>    -0.7778     0.0001     6.0000 </r>
       <r>    -0.7315     0.0164     6.0008 </r>
       <r>    -0.6853     0.9601     6.0451 </r>
       <r>    -0.6391    11.6477     6.5836 </r>
       <r>    -0.5928    31.0028     8.0168 </r>
       <r>    -0.5466    18.6898     8.8808 </r>
       <r>    -0.5004     2.5078     8.9967 </r>
       <r>    -0.4542     0.0711     9.0000 </r>
       <r>    -0.4079     0.0004     9.0000 </r>
       <r>    -0.3617     0.0000     9.0000 </r>
       <r>    -0.3155     0.0000     9.0000 </r>
       <r>    -0.2692     0.0004     9.0000 </r>
       <r>    -0.2230     0.0486     9.0023 </r>
       <r>    -0.1768     1.3099     9.0628 </r>
       <r>    -0.1306     7.5397     9.4114 </r>
       <r>    -0.0843     9.7202     9.8607 </r>
       <r>    -0.0381     2.8316     9.9916 </r>
       <r>     0.0081     0.1794     9.9999 </r>
       <r>     0.0543     0.0023    10.0000 </r>
       <r>     0.1006     0.0000    10.0000 </r>
       <r>     0.1468     0.0000    10.0000 </r>
       <r>     0.1930     0.0000    10.0000 </r>
       <r>     0.2393     0.0000    10.0000 </r>
       <r>     0.2855     0.0000    10.0000 </r>
       <r>     0.3317     0.0000    10.0000 </r>
       <r>     0.3779     0.0000    10.0000 </r>
       <r>     0.4242     0.0000    10.0000 </r>
       <r>     0.4704     0.0000    10.0000 </r>
       <r>     0.5166     0.0000    10.0000 </r>
       <r>     0.5628     0.0000    10.0000 </r>
       <r>     0.6091     0.0000    10.0000 </r>
       <r>     0.6553     0.0000    10.0000 </r>
       <r>     0.7015     0.0000    10.0000 </r>
       <r>     0.7478     0.0000    10.0000 </r>
       <r>     0.7940     0.0000    10.0000 </r>
       <r>     0.8402     0.0000    10.0000 </r>
       <r>     0.8864     0.0005    10.0000 </r>
       <r>     0.9327     0.0699    10.0033 </r>
       <r>     0.9789     2.1362    10.1020 </r>
       <r>     1.0251    13.8692    10.7431 </r>
       <r>     1.0714    20.1110    11.6728 </r>
       <r>     1.1176     6.5978    11.9778 </r>
       <r>     1.1638     0.4727    11.9997 </r>
       <r>     1.2100     0.0070    12.0000 </r>
       <r>     1.2563     0.0000    12.0000 </r>
       <r>     1.3025     0.0000    12.0000 </r>
       <r>     1.3487     0.0000    12.0000 </r>
       <r>     1.3949     0.0000    12.0000 </r>
       <r>     1.4412     0.0000    12.0000 </r>
       <r>     1.4874     0.0000    12.0000 </r>
       <r>     1.5336     0.0000    12.0000 </r>
       <r>     1.5799     0.0000    12.0000 </r>
       <r>     1.6261     0.0025    12.0001 </r>
       <r>     1.6723     0.2683    12.0125 </r>
       <r>     1.7185     6.0826    12.2937 </r>
       <r>     1.7648    30.8442    13.7196 </r>
       <r>     1.8110    37.3581    15.4465 </r>
       <r>     1.8572    11.1496    15.9619 </r>
       <r>     1.9034     0.8095    15.9994 </r>
       <r>     1.9497     0.0137    16.0000 </r>
       <r>     1.9959     0.0001    16.0000 </r>
       <r>     2.0421     0.0000    16.0000 </r>
       <r>     2.0884     0.0000    16.0000 </r>
       <r>     2.1346     0.0054    16.0003 </r>
       <r>     2.1808     0.4504    16.0211 </r>
       <r>     2.2270     7.6798    16.3761 </r>
       <r>     2.2733    28.4076    17.6893 </r>
       <r>     2.3195    23.7267    18.7861 </r>
       <r>     2.3657     4.4465    18.9917 </r>
       <r>     2.4119     0.1784    18.9999 </r>
       <r>     2.4582     0.0018    19.0000 </r>
       <r>     2.5044     0.0621    19.0029 </r>
       <r>     2.5506     2.4214    19.1148 </r>
       <r>     2.5969    21.3895    20.1036 </r>
       <r>     2.6431    48.1873    22.3312 </r>
       <r>     2.6893    30.4482    23.7387 </r>
       <r>     2.7355     5.4059    23.9886 </r>
       <r>     2.7818     0.2435    23.9999 </r>
       <r>     2.8280     0.0024    24.0000 </r>
       <r>     2.8742     0.0000    24.0000 </r>
       <r>     2.9205     0.0000    24.0000 </r>
       <r>     2.9667     0.0000    24.0000 </r>
       <r>     3.0129     0.0000    24.0000 </r>
       <r>     3.0591     0.0000    24.0000 </r>
       <r>     3.1054     0.0000    24.0000 </r>
       <r>     3.1516     0.0000    24.0000 </r>
       <r>     3.1978     0.0000    24.0000 </r>
       <r>     3.2440     0.0000    24.0000 </r>
       <r>     3.2903     0.0000    24.0000 </r>
       <r>     3.3365     0.0000    24.0000 </r>
       <r>     3.3827     0.0000    24.0000 </r>
       <r>     3.4290     0.0000    24.0000 </r>
       <r>     3.4752     0.0000    24.0000 </r>
       <r>     3.5214     0.0000    24.0000 </r>
       <r>     3.5676     0.0000    24.0000 </r>
       <r>     3.6139     0.0011    24.0000 </r>
       <r>     3.6601     0.1368    24.0064 </r>
       <r>     3.7063     3.7272    24.1787 </r>
       <r>     3.7525    23.3063    25.2561 </r>
       <r>     3.7988    41.1623    27.1589 </r>
       <r>     3.8450    31.1495    28.5989 </r>
       <r>     3.8912    17.5906    29.4120 </r>
       <r>     3.9375    17.3117    30.2123 </r>
       <r>     3.9837    22.7378    31.2634 </r>
       <r>     4.0299    13.7472    31.8989 </r>
       <r>     4.0761     2.1143    31.9967 </r>
       <r>     4.1224     0.0718    32.0000 </r>
       <r>     4.1686     0.0005    32.0000 </r>
       <r>     4.2148     0.0000    32.0000 </r>
       <r>     4.2611     0.0000    32.0000 </r>
       <r>     4.3073     0.0000    32.0000 </r>
       <r>     4.3535     0.0000    32.0000 </r>
       <r>     4.3997     0.0000    32.0000 </r>
       <r>     4.4460     0.0000    32.0000 </r>
       <r>     4.4922     0.0000    32.0000 </r>
       <r>     4.5384     0.0000    32.0000 </r>
       <r>     4.5846     0.0001    32.0000 </r>
       <r>     4.6309     0.0260    32.0012 </r>
       <r>     4.6771     1.0483    32.0497 </r>
       <r>     4.7233     9.5954    32.4932 </r>
       <r>     4.7696    22.9054    33.5521 </r>
       <r>     4.8158    20.2531    34.4883 </r>
       <r>     4.8620     9.4209    34.9239 </r>
       <r>     4.9082     1.6046    34.9980 </r>
       <r>     4.9545     0.8489    35.0373 </r>
       <r>     5.0007     6.0561    35.3172 </r>
       <r>     5.0469    10.3852    35.7973 </r>
       <r>     5.0931     4.0343    35.9838 </r>
       <r>     5.1394     0.3442    35.9997 </r>
       <r>     5.1856     0.0061    36.0000 </r>
       <r>     5.2318     0.0000    36.0000 </r>
       <r>     5.2781     0.0000    36.0000 </r>
       <r>     5.3243     0.0000    36.0000 </r>
       <r>     5.3705     0.0000    36.0000 </r>
       <r>     5.4167     0.0000    36.0000 </r>
       <r>     5.4630     0.0000    36.0000 </r>
       <r>     5.5092     0.0000    36.0000 </r>
       <r>     5.5554     0.0000    36.0000 </r>
       <r>     5.6016     0.0000    36.0000 </r>
       <r>     5.6479     0.0000    36.0000 </r>
      </set>
     </set>
    </array>
   </total>
   <partial>
    <array>
     <dimension dim="1">gridpoints</dimension>
     <dimension dim="2">spin</dimension>
     <dimension dim="3">ion</dimension>
     <field>energy</field>
     <field>    s</field>
     <field>   py</field>
     <field>   pz</field>
     <field>   px</field>
     <field>  dxy</field>
     <field>  dyz</field>
     <field>  dz2</field>
     <field>  dxz</field>
     <field>x2-y2</field>
     <set>
      <set comment="ion 1">
       <set comment="spin 1">
        <r>    -8.2204     0.0000     0.0000     0.0000     0.0000     0.0000     0.0000     0.0000     0.0000     0.0000 </r>
        <r>    -8.1742     0.0000     0.0000     0.0000     0.0000     0.0000     0.0000     0.0000     0.0000     0.0000 </r>
        <r>    -8.1279     0.0000     0.0000     0.0000     0.0000     0.0000     0.0000     0.0000     0.0000     0.0000 </r>
        <r>    -8.0817     0.0000     0.0000     0.0000     0.0000     0.0000     0.0000     0.0000     0.0000     0.0000 </r>
        <r>    -8.0355     0.0000     0.0000     0.0000     0.0000     0.0000     0.0000     0.0000     0.0000     0.0000 </r>
        <r>    -7.9892     0.0000     0.0000     0.0000     0.0000     0.0000     0.0000     0.0000     0.0000     0.0000 </r>
        <r>    -7.9430     0.0000     0.0000     0.0000     0.0000     0.0000     0.0000     0.0000     0.0000     0.0000 </r>
        <r>    -7.8968     0.0000     0.0000     0.0000     0.0000     0.0000     0.0000     0.0000     0.0000     0.0000 </r>
        <r>    -7.8506     0.0000     0.0000     0.0000     0.0000     0.0000     0.0000     0.0000     0.0000     0.0000 </r>
        <r>    -7.8043     0.0000     0.0000     0.0000     0.0000     0.0000     0.0000     0.0000     0.0000     0.0000 </r>
        <r>    -7.7581     0.0000     0.0000     0.0000     0.0000     0.0000     0.0000     0.0000     0.0000     0.0000 </r>
        <r>    -7.7119     0.0000     0.0000     0.0000     0.0000     0.0055     0.0054     0.0000     0.0054     0.0000 </r>
        <r>    -7.6657     0.0000     0.0000     0.0000     0.0000     0.3106     0.3059     0.0000     0.3062     0.0000 </r>
        <r>    -7.6194     0.0000     0.0000     0.0000     0.0000     3.6408     3.6116     0.0000     3.6132     0.0000 </r>
        <r>    -7.5732     0.0000     0.0000     0.0000     0.0000     9.3722     9.3631     0.0000     9.3636     0.0000 </r>
        <r>    -7.5270     0.0000     0.0000     0.0000     0.0000     5.4649     5.4981     0.0000     5.4963     0.0000 </r>
        <r>    -7.4807     0.0000     0.0000     0.0000     0.0000     0.7086     0.7180     0.0000     0.7175     0.0000 </r>
        <r>    -7.4345     0.0000     0.0000     0.0000     0.0000     0.0194     0.0198     0.0000     0.0198     0.0000 </r>
        <r>    -7.3883     0.0000     0.0000     0.0000     0.0000     0.0001     0.0001     0.0000     0.0001     0.0000 </r>
        <r>    -7.3421     0.0000     0.0000     0.0000     0.0000     0.0000     0.0000     0.0000     0.0000     0.0000 </r>
        <r>    -7.2958     0.0000     0.0000     0.0000     0.0000     0.0000     0.0000     0.0000     0.0000     0.0000 </r>
        <r>    -7.2496     0.0000     0.0000     0.0000     0.0000     0.0000     0.0000     0.0000     0.0000     0.0000 </r>
        <r>    -7.2034     0.0000     0.0000     0.0000     0.0000     0.0000     0.0000     0.0000     0.0000     0.0000 </r>
        <r>    -7.1572     0.0000     0.0000     0.0000     0.0000     0.0000     0.0000     0.0000     0.0000     0.0000 </r>
        <r>    -7.1109     0.0000     0.0000     0.0000     0.0000     0.0000     0.0000     0.0000     0.0000     0.0000 </r>
        <r>    -7.0647     0.0000     0.0000     0.0000     0.0000     0.0000     0.0000     0.0000     0.0000     0.0000 </r>
        <r>    -7.0185     0.0000     0.0000     0.0000     0.0000     0.0000     0.0000     0.0019     0.0000     0.0019 </r>
        <r>    -6.9722     0.0000     0.0000     0.0000     0.0000     0.0000     0.0000     0.1516     0.0000     0.1497 </r>
        <r>    -6.9260     0.0000     0.0000     0.0000     0.0000     0.0000     0.0000     2.4555     0.0000     2.4381 </r>
        <r>    -6.8798     0.0000     0.0000     0.0000     0.0000     0.0000     0.0000     8.6401     0.0000     8.6243 </r>
        <r>    -6.8336     0.0000     0.0000     0.0000     0.0000     0.0000     0.0000     6.8678     0.0000     6.8912 </r>
        <r>    -6.7873     0.0000     0.0000     0.0000     0.0000     0.0000     0.0000     1.2233     0.0000     1.2341 </r>
        <r>    -6.7411     0.0000     0.0000     0.0000     0.0000     0.0000     0.0000     0.0466     0.0000     0.0472 </r>
        <r>    -6.6949     0.0000     0.0000     0.0000     0.0000     0.0000     0.0000     0.0004     0.0000     0.0004 </r>
        <r>    -6.6486     0.0000     0.0000     0.0000     0.0000     0.0000     0.0000     0.0000     0.0000     0.0000 </r>
        <r>    -6.6024     0.0000     0.0000     0.0000     0.0000     0.0000     0.0000     0.0000     0.0000     0.0000 </r>
        <r>    -6.5562     0.0000     0.0000     0.0000     0.0000     0.0000     0.0000     0.0000     0.0000     0.0000 </r>
        <r>    -6.5100     0.0001     0.0000     0.0000     0.0000     0.0000     0.0000     0.0000     0.0000     0.0000 </r>
        <r>    -6.4637     0.0097     0.0000     0.0000     0.0000     0.0000     0.0000     0.0000     0.0000     0.0000 </r>
        <r>    -6.4175     0.3672     0.0000     0.0000     0.0000     0.0000     0.0000     0.0000     0.0000     0.0000 </r>
        <r>    -6.3713     2.9456     0.0000     0.0000     0.0000     0.0000     0.0000     0.0000     0.0000     0.0000 </r>
        <r>    -6.3251     5.2484     0.0000     0.0000     0.0000     0.0000     0.0000     0.0000     0.0000     0.0000 </r>
        <r>    -6.2788     2.1186     0.0000     0.0000     0.0000     0.0000     0.0000     0.0000     0.0000     0.0000 </r>
        <r>    -6.2326     0.1881     0.0000     0.0000     0.0000     0.0000     0.0000     0.0000     0.0000     0.0000 </r>
        <r>    -6.1864     0.0035     0.0000     0.0000     0.0000     0.0000     0.0000     0.0000     0.0000     0.0000 </r>
        <r>    -6.1401     0.0000     0.0000     0.0000     0.0000     0.0000     0.0000     0.0000     0.0000     0.0000 </r>
        <r>    -6.0939     0.0000     0.0000     0.0000     0.0000     0.0000     0.0000     0.0000     0.0000     0.0000 </r>
        <r>    -6.0477     0.0000     0.0000     0.0000     0.0000     0.0000     0.0000     0.0000     0.0000     0.0000 </r>
        <r>    -6.0015     0.0000     0.0000     0.0000     0.0000     0.0000     0.0000     0.0000     0.0000     0.0000 </r>
        <r>    -5.9552     0.0000     0.0000     0.0000     0.0000     0.0000     0.0000     0.0000     0.0000     0.0000 </r>
        <r>    -5.9090     0.0000     0.0000     0.0000     0.0000     0.0000     0.0000     0.0000     0.0000     0.0000 </r>
        <r>    -5.8628     0.0000     0.0000     0.0000     0.0000     0.0000     0.0000     0.0000     0.0000     0.0000 </r>
        <r>    -5.8166     0.0000     0.0000     0.0000     0.0000     0.0000     0.0000     0.0000     0.0000     0.0000 </r>
        <r>    -5.7703     0.0000     0.0000     0.0000     0.0000     0.0000     0.0000     0.0000     0.0000     0.0000 </r>
        <r>    -5.7241     0.0000     0.0000     0.0000     0.0000     0.0000     0.0000     0.0000     0.0000     0.0000 </r>
        <r>    -5.6779     0.0000     0.0000     0.0000     0.0000     0.0000     0.0000     0.0000     0.0000     0.0000 </r>
        <r>    -5.6316     0.0000     0.0000     0.0000     0.0000     0.0000     0.0000     0.0000     0.0000     0.0000 </r>
        <r>    -5.5854     0.0000     0.0000     0.0000     0.0000     0.0000     0.0000     0.0000     0.0000     0.0000 </r>
        <r>    -5.5392     0.0000     0.0000     0.0000     0.0000     0.0000     0.0000     0.0000     0.0000     0.0000 </r>
        <r>    -5.4930     0.0000     0.0000     0.0000     0.0000     0.0000     0.0000     0.0000     0.0000     0.0000 </r>
        <r>    -5.4467     0.0000     0.0000     0.0000     0.0000     0.0000     0.0000     0.0000     0.0000     0.0000 </r>
        <r>    -5.4005     0.0000     0.0000     0.0000     0.0000     0.0000     0.0000     0.0000     0.0000     0.0000 </r>
        <r>    -5.3543     0.0000     0.0000     0.0000     0.0000     0.0000     0.0000     0.0000     0.0000     0.0000 </r>
        <r>    -5.3081     0.0000     0.0000     0.0000     0.0000     0.0000     0.0000     0.0000     0.0000     0.0000 </r>
        <r>    -5.2618     0.0000     0.0000     0.0000     0.0000     0.0000     0.0000     0.0000     0.0000     0.0000 </r>
        <r>    -5.2156     0.0000     0.0000     0.0000     0.0000     0.0000     0.0000     0.0000     0.0000     0.0000 </r>
        <r>    -5.1694     0.0000     0.0000     0.0000     0.0000     0.0000     0.0000     0.0000     0.0000     0.0000 </r>
        <r>    -5.1231     0.0000     0.0000     0.0000     0.0000     0.0000     0.0000     0.0000     0.0000     0.0000 </r>
        <r>    -5.0769     0.0000     0.0000     0.0000     0.0000     0.0000     0.0000     0.0000     0.0000     0.0000 </r>
        <r>    -5.0307     0.0000     0.0000     0.0000     0.0000     0.0000     0.0000     0.0000     0.0000     0.0000 </r>
        <r>    -4.9845     0.0000     0.0000     0.0000     0.0000     0.0000     0.0000     0.0000     0.0000     0.0000 </r>
        <r>    -4.9382     0.0000     0.0000     0.0000     0.0000     0.0000     0.0000     0.0000     0.0000     0.0000 </r>
        <r>    -4.8920     0.0000     0.0000     0.0000     0.0000     0.0000     0.0000     0.0000     0.0000     0.0000 </r>
        <r>    -4.8458     0.0000     0.0000     0.0000     0.0000     0.0000     0.0000     0.0000     0.0000     0.0000 </r>
        <r>    -4.7995     0.0000     0.0000     0.0000     0.0000     0.0000     0.0000     0.0000     0.0000     0.0000 </r>
        <r>    -4.7533     0.0000     0.0000     0.0000     0.0000     0.0000     0.0000     0.0000     0.0000     0.0000 </r>
        <r>    -4.7071     0.0000     0.0000     0.0000     0.0000     0.0000     0.0000     0.0000     0.0000     0.0000 </r>
        <r>    -4.6609     0.0000     0.0000     0.0000     0.0000     0.0000     0.0000     0.0000     0.0000     0.0000 </r>
        <r>    -4.6146     0.0000     0.0000     0.0000     0.0000     0.0000     0.0000     0.0000     0.0000     0.0000 </r>
        <r>    -4.5684     0.0000     0.0000     0.0000     0.0000     0.0000     0.0000     0.0000     0.0000     0.0000 </r>
        <r>    -4.5222     0.0000     0.0000     0.0000     0.0000     0.0000     0.0000     0.0000     0.0000     0.0000 </r>
        <r>    -4.4760     0.0000     0.0000     0.0000     0.0000     0.0000     0.0000     0.0000     0.0000     0.0000 </r>
        <r>    -4.4297     0.0000     0.0000     0.0000     0.0000     0.0000     0.0000     0.0000     0.0000     0.0000 </r>
        <r>    -4.3835     0.0000     0.0000     0.0000     0.0000     0.0000     0.0000     0.0000     0.0000     0.0000 </r>
        <r>    -4.3373     0.0000     0.0000     0.0000     0.0000     0.0000     0.0000     0.0000     0.0000     0.0000 </r>
        <r>    -4.2910     0.0000     0.0000     0.0000     0.0000     0.0000     0.0000     0.0000     0.0000     0.0000 </r>
        <r>    -4.2448     0.0000     0.0000     0.0000     0.0000     0.0000     0.0000     0.0000     0.0000     0.0000 </r>
        <r>    -4.1986     0.0000     0.0000     0.0000     0.0000     0.0000     0.0000     0.0000     0.0000     0.0000 </r>
        <r>    -4.1524     0.0000     0.0000     0.0000     0.0000     0.0000     0.0000     0.0000     0.0000     0.0000 </r>
        <r>    -4.1061     0.0000     0.0000     0.0000     0.0000     0.0000     0.0000     0.0000     0.0000     0.0000 </r>
        <r>    -4.0599     0.0000     0.0000     0.0000     0.0000     0.0000     0.0000     0.0000     0.0000     0.0000 </r>
        <r>    -4.0137     0.0000     0.0000     0.0000     0.0000     0.0000     0.0000     0.0000     0.0000     0.0000 </r>
        <r>    -3.9675     0.0000     0.0000     0.0000     0.0000     0.0000     0.0000     0.0000     0.0000     0.0000 </r>
        <r>    -3.9212     0.0000     0.0000     0.0000     0.0000     0.0000     0.0000     0.0000     0.0000     0.0000 </r>
        <r>    -3.8750     0.0000     0.0000     0.0000     0.0000     0.0000     0.0000     0.0000     0.0000     0.0000 </r>
        <r>    -3.8288     0.0000     0.0000     0.0000     0.0000     0.0000     0.0000     0.0000     0.0000     0.0000 </r>
        <r>    -3.7825     0.0000     0.0000     0.0000     0.0000     0.0000     0.0000     0.0000     0.0000     0.0000 </r>
        <r>    -3.7363     0.0000     0.0000     0.0000     0.0000     0.0000     0.0000     0.0000     0.0000     0.0000 </r>
        <r>    -3.6901     0.0000     0.0000     0.0000     0.0000     0.0000     0.0000     0.0000     0.0000     0.0000 </r>
        <r>    -3.6439     0.0000     0.0000     0.0000     0.0000     0.0000     0.0000     0.0000     0.0000     0.0000 </r>
        <r>    -3.5976     0.0000     0.0000     0.0000     0.0000     0.0000     0.0000     0.0000     0.0000     0.0000 </r>
        <r>    -3.5514     0.0000     0.0000     0.0000     0.0000     0.0000     0.0000     0.0000     0.0000     0.0000 </r>
        <r>    -3.5052     0.0000     0.0000     0.0000     0.0000     0.0000     0.0000     0.0000     0.0000     0.0000 </r>
        <r>    -3.4589     0.0000     0.0000     0.0000     0.0000     0.0000     0.0000     0.0000     0.0000     0.0000 </r>
        <r>    -3.4127     0.0000     0.0000     0.0000     0.0000     0.0000     0.0000     0.0000     0.0000     0.0000 </r>
        <r>    -3.3665     0.0000     0.0000     0.0000     0.0000     0.0000     0.0000     0.0000     0.0000     0.0000 </r>
        <r>    -3.3203     0.0000     0.0000     0.0000     0.0000     0.0000     0.0000     0.0000     0.0000     0.0000 </r>
        <r>    -3.2740     0.0000     0.0000     0.0000     0.0000     0.0000     0.0000     0.0000     0.0000     0.0000 </r>
        <r>    -3.2278     0.0000     0.0000     0.0000     0.0000     0.0000     0.0000     0.0000     0.0000     0.0000 </r>
        <r>    -3.1816     0.0000     0.0000     0.0000     0.0000     0.0000     0.0000     0.0000     0.0000     0.0000 </r>
        <r>    -3.1354     0.0000     0.0000     0.0000     0.0000     0.0000     0.0000     0.0000     0.0000     0.0000 </r>
        <r>    -3.0891     0.0000     0.0000     0.0000     0.0000     0.0000     0.0000     0.0000     0.0000     0.0000 </r>
        <r>    -3.0429     0.0000     0.0000     0.0000     0.0000     0.0000     0.0000     0.0000     0.0000     0.0000 </r>
        <r>    -2.9967     0.0000     0.0000     0.0000     0.0000     0.0000     0.0000     0.0000     0.0000     0.0000 </r>
        <r>    -2.9504     0.0000     0.0000     0.0000     0.0000     0.0000     0.0000     0.0000     0.0000     0.0000 </r>
        <r>    -2.9042     0.0000     0.0000     0.0000     0.0000     0.0000     0.0000     0.0000     0.0000     0.0000 </r>
        <r>    -2.8580     0.0000     0.0000     0.0000     0.0000     0.0000     0.0000     0.0000     0.0000     0.0000 </r>
        <r>    -2.8118     0.0000     0.0000     0.0000     0.0000     0.0000     0.0000     0.0000     0.0000     0.0000 </r>
        <r>    -2.7655     0.0000     0.0000     0.0000     0.0000     0.0000     0.0000     0.0000     0.0000     0.0000 </r>
        <r>    -2.7193     0.0000     0.0000     0.0000     0.0000     0.0000     0.0000     0.0000     0.0000     0.0000 </r>
        <r>    -2.6731     0.0000     0.0000     0.0000     0.0000     0.0000     0.0000     0.0000     0.0000     0.0000 </r>
        <r>    -2.6269     0.0000     0.0000     0.0000     0.0000     0.0000     0.0000     0.0000     0.0000     0.0000 </r>
        <r>    -2.5806     0.0000     0.0000     0.0000     0.0000     0.0000     0.0000     0.0000     0.0000     0.0000 </r>
        <r>    -2.5344     0.0000     0.0000     0.0000     0.0000     0.0000     0.0000     0.0000     0.0000     0.0000 </r>
        <r>    -2.4882     0.0000     0.0000     0.0000     0.0000     0.0000     0.0000     0.0000     0.0000     0.0000 </r>
        <r>    -2.4419     0.0000     0.0000     0.0000     0.0000     0.0000     0.0000     0.0000     0.0000     0.0000 </r>
        <r>    -2.3957     0.0000     0.0000     0.0000     0.0000     0.0000     0.0000     0.0000     0.0000     0.0000 </r>
        <r>    -2.3495     0.0000     0.0000     0.0000     0.0000     0.0000     0.0000     0.0000     0.0000     0.0000 </r>
        <r>    -2.3033     0.0000     0.0000     0.0000     0.0000     0.0000     0.0000     0.0000     0.0000     0.0000 </r>
        <r>    -2.2570     0.0000     0.0000     0.0000     0.0000     0.0000     0.0000     0.0000     0.0000     0.0000 </r>
        <r>    -2.2108     0.0000     0.0000     0.0000     0.0000     0.0000     0.0000     0.0000     0.0000     0.0000 </r>
        <r>    -2.1646     0.0000     0.0000     0.0000     0.0000     0.0000     0.0000     0.0000     0.0000     0.0000 </r>
        <r>    -2.1183     0.0000     0.0000     0.0000     0.0000     0.0000     0.0000     0.0000     0.0000     0.0000 </r>
        <r>    -2.0721     0.0000     0.0000     0.0000     0.0000     0.0000     0.0000     0.0000     0.0000     0.0000 </r>
        <r>    -2.0259     0.0000     0.0000     0.0000     0.0000     0.0000     0.0000     0.0000     0.0000     0.0000 </r>
        <r>    -1.9797     0.0000     0.0000     0.0000     0.0000     0.0000     0.0000     0.0000     0.0000     0.0000 </r>
        <r>    -1.9334     0.0000     0.0000     0.0000     0.0000     0.0000     0.0000     0.0000     0.0000     0.0000 </r>
        <r>    -1.8872     0.0000     0.0000     0.0000     0.0000     0.0000     0.0000     0.0000     0.0000     0.0000 </r>
        <r>    -1.8410     0.0000     0.0000     0.0000     0.0000     0.0000     0.0000     0.0000     0.0000     0.0000 </r>
        <r>    -1.7948     0.0000     0.0000     0.0000     0.0000     0.0000     0.0000     0.0000     0.0000     0.0000 </r>
        <r>    -1.7485     0.0000     0.0000     0.0000     0.0000     0.0000     0.0000     0.0000     0.0000     0.0000 </r>
        <r>    -1.7023     0.0000     0.0000     0.0000     0.0000     0.0000     0.0000     0.0000     0.0000     0.0000 </r>
        <r>    -1.6561     0.0000     0.0000     0.0000     0.0000     0.0000     0.0000     0.0000     0.0000     0.0000 </r>
        <r>    -1.6098     0.0000     0.0000     0.0000     0.0000     0.0000     0.0000     0.0000     0.0000     0.0000 </r>
        <r>    -1.5636     0.0000     0.0000     0.0000     0.0000     0.0000     0.0000     0.0000     0.0000     0.0000 </r>
        <r>    -1.5174     0.0000     0.0000     0.0000     0.0000     0.0000     0.0000     0.0000     0.0000     0.0000 </r>
        <r>    -1.4712     0.0000     0.0000     0.0000     0.0000     0.0000     0.0000     0.0000     0.0000     0.0000 </r>
        <r>    -1.4249     0.0000     0.0000     0.0000     0.0000     0.0000     0.0000     0.0000     0.0000     0.0000 </r>
        <r>    -1.3787     0.0000     0.0000     0.0000     0.0000     0.0000     0.0000     0.0000     0.0000     0.0000 </r>
        <r>    -1.3325     0.0000     0.0000     0.0000     0.0000     0.0000     0.0000     0.0000     0.0000     0.0000 </r>
        <r>    -1.2863     0.0000     0.0000     0.0000     0.0000     0.0000     0.0000     0.0000     0.0000     0.0000 </r>
        <r>    -1.2400     0.0000     0.0000     0.0000     0.0000     0.0000     0.0000     0.0000     0.0000     0.0000 </r>
        <r>    -1.1938     0.0000     0.0000     0.0000     0.0000     0.0000     0.0000     0.0000     0.0000     0.0000 </r>
        <r>    -1.1476     0.0000     0.0040     0.0039     0.0039     0.0000     0.0000     0.0000     0.0000     0.0000 </r>
        <r>    -1.1013     0.0000     0.1392     0.1386     0.1367     0.0000     0.0000     0.0000     0.0000     0.0000 </r>
        <r>    -1.0551     0.0000     1.0343     1.0331     1.0250     0.0000     0.0000     0.0000     0.0000     0.0000 </r>
        <r>    -1.0089     0.0000     1.7104     1.7147     1.7103     0.0000     0.0000     0.0000     0.0000     0.0000 </r>
        <r>    -0.9627     0.0000     0.6407     0.6447     0.6464     0.0000     0.0000     0.0000     0.0000     0.0000 </r>
        <r>    -0.9164     0.0000     0.0527     0.0532     0.0536     0.0000     0.0000     0.0000     0.0000     0.0000 </r>
        <r>    -0.8702     0.0000     0.0009     0.0009     0.0009     0.0000     0.0000     0.0000     0.0000     0.0000 </r>
        <r>    -0.8240     0.0000     0.0000     0.0000     0.0000     0.0000     0.0000     0.0000     0.0000     0.0000 </r>
        <r>    -0.7778     0.0000     0.0000     0.0000     0.0000     0.0000     0.0000     0.0000     0.0000     0.0000 </r>
        <r>    -0.7315     0.0000     0.0000     0.0000     0.0000     0.0000     0.0000     0.0000     0.0000     0.0000 </r>
        <r>    -0.6853     0.0000     0.0000     0.0000     0.0000     0.0000     0.0000     0.0000     0.0000     0.0000 </r>
        <r>    -0.6391     0.0000     0.0000     0.0000     0.0000     0.0000     0.0000     0.0000     0.0000     0.0000 </r>
        <r>    -0.5928     0.0000     0.0000     0.0000     0.0000     0.0000     0.0000     0.0000     0.0000     0.0000 </r>
        <r>    -0.5466     0.0000     0.0000     0.0000     0.0000     0.0000     0.0000     0.0000     0.0000     0.0000 </r>
        <r>    -0.5004     0.0000     0.0000     0.0000     0.0000     0.0000     0.0000     0.0000     0.0000     0.0000 </r>
        <r>    -0.4542     0.0000     0.0000     0.0000     0.0000     0.0000     0.0000     0.0000     0.0000     0.0000 </r>
        <r>    -0.4079     0.0000     0.0000     0.0000     0.0000     0.0000     0.0000     0.0000     0.0000     0.0000 </r>
        <r>    -0.3617     0.0000     0.0000     0.0000     0.0000     0.0000     0.0000     0.0000     0.0000     0.0000 </r>
        <r>    -0.3155     0.0000     0.0000     0.0000     0.0000     0.0000     0.0000     0.0000     0.0000     0.0000 </r>
        <r>    -0.2692     0.0000     0.0000     0.0000     0.0000     0.0000     0.0000     0.0000     0.0000     0.0000 </r>
        <r>    -0.2230     0.0018     0.0000     0.0000     0.0000     0.0000     0.0000     0.0000     0.0000     0.0000 </r>
        <r>    -0.1768     0.0425     0.0000     0.0000     0.0000     0.0000     0.0000     0.0000     0.0000     0.0000 </r>
[...]
        <r>     3.5676     0.0000     0.0000     0.0000     0.0000     0.0000     0.0000     0.0000     0.0000     0.0000 </r>
        <r>     3.6139     0.0000     0.0000     0.0000     0.0000     0.0000     0.0000     0.0000     0.0000     0.0000 </r>
        <r>     3.6601     0.0001     0.0017     0.0018     0.0012     0.0001     0.0000     0.0000     0.0001     0.0000 </r>
        <r>     3.7063     0.0035     0.0431     0.0509     0.0329     0.0023     0.0009     0.0000     0.0020     0.0001 </r>
        <r>     3.7525     0.0459     0.2369     0.3151     0.2051     0.0121     0.0059     0.0000     0.0127     0.0006 </r>
        <r>     3.7988     0.2300     0.3276     0.4492     0.2966     0.0153     0.0091     0.0001     0.0185     0.0008 </r>
        <r>     3.8450     0.3110     0.1663     0.1526     0.1278     0.0078     0.0085     0.0000     0.0071     0.0003 </r>
        <r>     3.8912     0.1000     0.0488     0.0172     0.1119     0.0172     0.0307     0.0000     0.0071     0.0003 </r>
        <r>     3.9375     0.0085     0.0172     0.0084     0.1248     0.0377     0.0549     0.0000     0.0269     0.0004 </r>
        <r>     3.9837     0.0014     0.0279     0.0118     0.0485     0.0624     0.0595     0.0000     0.0685     0.0002 </r>
        <r>     4.0299     0.0006     0.0162     0.0083     0.0123     0.0402     0.0289     0.0000     0.0501     0.0001 </r>
        <r>     4.0761     0.0001     0.0022     0.0015     0.0016     0.0064     0.0036     0.0000     0.0085     0.0000 </r>
        <r>     4.1224     0.0000     0.0001     0.0001     0.0001     0.0002     0.0001     0.0000     0.0003     0.0000 </r>
        <r>     4.1686     0.0000     0.0000     0.0000     0.0000     0.0000     0.0000     0.0000     0.0000     0.0000 </r>
        <r>     4.2148     0.0000     0.0000     0.0000     0.0000     0.0000     0.0000     0.0000     0.0000     0.0000 </r>
        <r>     4.2611     0.0000     0.0000     0.0000     0.0000     0.0000     0.0000     0.0000     0.0000     0.0000 </r>
        <r>     4.3073     0.0000     0.0000     0.0000     0.0000     0.0000     0.0000     0.0000     0.0000     0.0000 </r>
        <r>     4.3535     0.0000     0.0000     0.0000     0.0000     0.0000     0.0000     0.0000     0.0000     0.0000 </r>
        <r>     4.3997     0.0000     0.0000     0.0000     0.0000     0.0000     0.0000     0.0000     0.0000     0.0000 </r>
        <r>     4.4460     0.0000     0.0000     0.0000     0.0000     0.0000     0.0000     0.0000     0.0000     0.0000 </r>
        <r>     4.4922     0.0000     0.0000     0.0000     0.0000     0.0000     0.0000     0.0000     0.0000     0.0000 </r>
        <r>     4.5384     0.0000     0.0000     0.0000     0.0000     0.0000     0.0000     0.0000     0.0000     0.0000 </r>
        <r>     4.5846     0.0000     0.0000     0.0000     0.0000     0.0000     0.0000     0.0000     0.0000     0.0000 </r>
        <r>     4.6309     0.0000     0.0002     0.0004     0.0002     0.0000     0.0000     0.0002     0.0000     0.0000 </r>
        <r>     4.6771     0.0014     0.0084     0.0139     0.0082     0.0000     0.0000     0.0076     0.0000     0.0008 </r>
        <r>     4.7233     0.0146     0.1046     0.1084     0.0778     0.0000     0.0004     0.0583     0.0002     0.0108 </r>
        <r>     4.7696     0.0808     0.3045     0.1914     0.1887     0.0001     0.0014     0.0997     0.0006     0.0340 </r>
        <r>     4.8158     0.2381     0.2288     0.0795     0.1510     0.0001     0.0009     0.0389     0.0005     0.0278 </r>
        <r>     4.8620     0.1972     0.0581     0.0082     0.0589     0.0000     0.0002     0.0034     0.0001     0.0082 </r>
        <r>     4.9082     0.0377     0.0066     0.0003     0.0093     0.0000     0.0000     0.0001     0.0000     0.0016 </r>
        <r>     4.9545     0.0017     0.0037     0.0009     0.0021     0.0000     0.0000     0.0004     0.0000     0.0227 </r>
        <r>     5.0007     0.0010     0.0264     0.0071     0.0133     0.0000     0.0000     0.0033     0.0000     0.1748 </r>
        <r>     5.0469     0.0017     0.0453     0.0121     0.0228     0.0000     0.0000     0.0057     0.0000     0.2998 </r>
        <r>     5.0931     0.0007     0.0176     0.0047     0.0089     0.0000     0.0000     0.0022     0.0000     0.1164 </r>
        <r>     5.1394     0.0001     0.0015     0.0004     0.0008     0.0000     0.0000     0.0002     0.0000     0.0099 </r>
        <r>     5.1856     0.0000     0.0000     0.0000     0.0000     0.0000     0.0000     0.0000     0.0000     0.0002 </r>
        <r>     5.2318     0.0000     0.0000     0.0000     0.0000     0.0000     0.0000     0.0000     0.0000     0.0000 </r>
        <r>     5.2781     0.0000     0.0000     0.0000     0.0000     0.0000     0.0000     0.0000     0.0000     0.0000 </r>
        <r>     5.3243     0.0000     0.0000     0.0000     0.0000     0.0000     0.0000     0.0000     0.0000     0.0000 </r>
        <r>     5.3705     0.0000     0.0000     0.0000     0.0000     0.0000     0.0000     0.0000     0.0000     0.0000 </r>
        <r>     5.4167     0.0000     0.0000     0.0000     0.0000     0.0000     0.0000     0.0000     0.0000     0.0000 </r>
        <r>     5.4630     0.0000     0.0000     0.0000     0.0000     0.0000     0.0000     0.0000     0.0000     0.0000 </r>
        <r>     5.5092     0.0000     0.0000     0.0000     0.0000     0.0000     0.0000     0.0000     0.0000     0.0000 </r>
        <r>     5.5554     0.0000     0.0000     0.0000     0.0000     0.0000     0.0000     0.0000     0.0000     0.0000 </r>
        <r>     5.6016     0.0000     0.0000     0.0000     0.0000     0.0000     0.0000     0.0000     0.0000     0.0000 </r>
        <r>     5.6479     0.0000     0.0000     0.0000     0.0000     0.0000     0.0000     0.0000     0.0000     0.0000 </r>
       </set>
      </set>
     </set>
    </array>
   </partial>
  </dos>
  <projected>
   <eigenvalues>
    <array>
     <dimension dim="1">band</dimension>
     <dimension dim="2">kpoint</dimension>
     <dimension dim="3">spin</dimension>
     <field>eigene</field>
     <field>occ</field>
     <set>
      <set comment="spin 1">
       <set comment="kpoint 1">
        <r>   -7.5900    1.0000 </r>
        <r>   -7.5898    1.0000 </r>
        <r>   -7.5898    1.0000 </r>
        <r>   -6.8869    1.0000 </r>
        <r>   -6.8868    1.0000 </r>
        <r>   -6.3533    1.0000 </r>
        <r>   -1.0397    0.0000 </r>
        <r>   -1.0395    0.0000 </r>
        <r>   -1.0387    0.0000 </r>
        <r>   -0.1267    0.0000 </r>
        <r>    1.0849    0.0000 </r>
        <r>    1.0850    0.0000 </r>
        <r>    1.7408    0.0000 </r>
        <r>    1.7413    0.0000 </r>
        <r>    1.7463    0.0000 </r>
        <r>    1.7603    0.0000 </r>
        <r>    2.1983    0.0000 </r>
        <r>    2.1995    0.0000 </r>
        <r>    2.1997    0.0000 </r>
        <r>    2.6653    0.0000 </r>
        <r>    2.6656    0.0000 </r>
        <r>    2.6732    0.0000 </r>
        <r>    2.6946    0.0000 </r>
        <r>    2.6971    0.0000 </r>
        <r>    3.6531    0.0000 </r>
        <r>    3.6774    0.0000 </r>
        <r>    3.7231    0.0000 </r>
        <r>    3.7432    0.0000 </r>
        <r>    3.8395    0.0000 </r>
        <r>    3.9561    0.0000 </r>
        <r>    3.9755    0.0000 </r>
        <r>    3.9856    0.0000 </r>
        <r>    4.5700    0.0000 </r>
        <r>    4.6544    0.0000 </r>
        <r>    4.7590    0.0000 </r>
        <r>    4.9238    0.0000 </r>
       </set>
      </set>
      <set comment="spin 2">
       <set comment="kpoint 1">
        <r>   -5.8698    1.0000 </r>
        <r>   -5.8660    1.0000 </r>
        <r>   -5.2926    0.7656 </r>
        <r>   -5.2196    0.0902 </r>
        <r>   -5.2181    0.0835 </r>
        <r>   -5.2122    0.0607 </r>
        <r>   -0.6090    0.0000 </r>
        <r>   -0.6085    0.0000 </r>
        <r>   -0.6084    0.0000 </r>
        <r>   -0.1226    0.0000 </r>
        <r>    1.0366    0.0000 </r>
        <r>    1.0368    0.0000 </r>
        <r>    1.7651    0.0000 </r>
        <r>    1.7666    0.0000 </r>
        <r>    1.7669    0.0000 </r>
        <r>    1.7867    0.0000 </r>
        <r>    2.2672    0.0000 </r>
        <r>    2.2675    0.0000 </r>
        <r>    2.2682    0.0000 </r>
        <r>    2.6129    0.0000 </r>
        <r>    2.6143    0.0000 </r>
        <r>    2.6160    0.0000 </r>
        <r>    2.6441    0.0000 </r>
        <r>    2.6459    0.0000 </r>
        <r>    3.7556    0.0000 </r>
        <r>    3.7648    0.0000 </r>
        <r>    3.7660    0.0000 </r>
        <r>    3.8097    0.0000 </r>
        <r>    3.8244    0.0000 </r>
        <r>    3.8977    0.0000 </r>
        <r>    3.9661    0.0000 </r>
        <r>    3.9765    0.0000 </r>
        <r>    4.7397    0.0000 </r>
        <r>    4.7578    0.0000 </r>
        <r>    4.8109    0.0000 </r>
        <r>    5.0175    0.0000 </r>
       </set>
      </set>
     </set>
    </array>
   </eigenvalues>
   <array>
    <dimension dim="1">ion</dimension>
    <dimension dim="2">band</dimension>
    <dimension dim="3">kpoint</dimension>
    <dimension dim="4">spin</dimension>
    <field>    s</field>
    <field>   py</field>
    <field>   pz</field>
    <field>   px</field>
    <field>  dxy</field>
    <field>  dyz</field>
    <field>  dz2</field>
    <field>  dxz</field>
    <field>x2-y2</field>
    <set>
     <set comment="spin1">
      <set comment="kpoint 1">
       <set comment="band 1">
        <r>  0.0000  0.0000  0.0000  0.0000  0.9025  0.0000  0.0000  0.0000  0.0000 </r>
       </set>
       <set comment="band 2">
        <r>  0.0000  0.0000  0.0000  0.0000  0.0000  0.0001  0.0000  0.9024  0.0000 </r>
       </set>
       <set comment="band 3">
        <r>  0.0000  0.0000  0.0000  0.0000  0.0000  0.9024  0.0000  0.0001  0.0000 </r>
       </set>
       <set comment="band 4">
        <r>  0.0000  0.0000  0.0000  0.0000  0.0000  0.0000  0.8856  0.0000  0.0106 </r>
       </set>
       <set comment="band 5">
        <r>  0.0000  0.0000  0.0000  0.0000  0.0000  0.0000  0.0106  0.0000  0.8856 </r>
       </set>
       <set comment="band 6">
        <r>  0.5030  0.0000  0.0000  0.0000  0.0000  0.0000  0.0000  0.0000  0.0000 </r>
       </set>
       <set comment="band 7">
        <r>  0.0000  0.1179  0.0307  0.0176  0.0000  0.0000  0.0000  0.0000  0.0000 </r>
       </set>
       <set comment="band 8">
        <r>  0.0000  0.0023  0.0900  0.0738  0.0000  0.0000  0.0000  0.0000  0.0000 </r>
       </set>
       <set comment="band 9">
        <r>  0.0000  0.0454  0.0452  0.0739  0.0000  0.0000  0.0000  0.0000  0.0000 </r>
       </set>
       <set comment="band 10">
        <r>  0.0262  0.0000  0.0000  0.0000  0.0000  0.0000  0.0000  0.0000  0.0000 </r>
       </set>
       <set comment="band 11">
        <r>  0.0000  0.0000  0.0000  0.0000  0.0000  0.0000  0.0070  0.0000  0.0000 </r>
       </set>
       <set comment="band 12">
        <r>  0.0000  0.0000  0.0000  0.0000  0.0000  0.0000  0.0000  0.0000  0.0070 </r>
       </set>
       <set comment="band 13">
        <r>  0.0000  0.0306  0.0016  0.0068  0.0000  0.0000  0.0000  0.0000  0.0000 </r>
       </set>
       <set comment="band 14">
        <r>  0.0000  0.0060  0.0235  0.0084  0.0000  0.0000  0.0000  0.0000  0.0000 </r>
       </set>
       <set comment="band 15">
        <r>  0.0003  0.0017  0.0142  0.0229  0.0000  0.0001  0.0000  0.0000  0.0000 </r>
       </set>
       <set comment="band 16">
        <r>  0.0294  0.0001  0.0001  0.0003  0.0000  0.0000  0.0000  0.0000  0.0000 </r>
       </set>
       <set comment="band 17">
        <r>  0.0000  0.0000  0.0000  0.0002  0.0029  0.0135  0.0000  0.0004  0.0000 </r>
       </set>
       <set comment="band 18">
        <r>  0.0000  0.0000  0.0000  0.0000  0.0005  0.0011  0.0000  0.0156  0.0000 </r>
       </set>
       <set comment="band 19">
        <r>  0.0000  0.0000  0.0000  0.0000  0.0137  0.0023  0.0000  0.0011  0.0000 </r>
       </set>
       <set comment="band 20">
        <r>  0.0000  0.0000  0.0000  0.0002  0.0000  0.0000  0.0000  0.0000  0.0000 </r>
       </set>
       <set comment="band 21">
        <r>  0.0000  0.0001  0.0000  0.0004  0.0000  0.0000  0.0002  0.0000  0.0000 </r>
       </set>
       <set comment="band 22">
        <r>  0.0000  0.0000  0.0000  0.0000  0.0000  0.0000  0.0009  0.0000  0.0005 </r>
       </set>
       <set comment="band 23">
        <r>  0.0000  0.0000  0.0000  0.0000  0.0000  0.0000  0.0041  0.0000  0.0001 </r>
       </set>
       <set comment="band 24">
        <r>  0.0000  0.0000  0.0000  0.0000  0.0000  0.0000  0.0000  0.0000  0.0045 </r>
       </set>
       <set comment="band 25">
        <r>  0.0005  0.0032  0.0458  0.0042  0.0000  0.0000  0.0000  0.0000  0.0000 </r>
       </set>
       <set comment="band 26">
        <r>  0.0075  0.0031  0.0033  0.0336  0.0000  0.0000  0.0000  0.0000  0.0000 </r>
       </set>
       <set comment="band 27">
        <r>  0.0008  0.0318  0.0042  0.0004  0.0003  0.0005  0.0000  0.0003  0.0000 </r>
       </set>
       <set comment="band 28">
        <r>  0.0253  0.0002  0.0002  0.0139  0.0000  0.0000  0.0000  0.0000  0.0000 </r>
       </set>
       <set comment="band 29">
        <r>  0.0001  0.0069  0.0001  0.0000  0.0000  0.0003  0.0001  0.0003  0.0000 </r>
       </set>
       <set comment="band 30">
        <r>  0.0001  0.0049  0.0011  0.0000  0.0053  0.0007  0.0000  0.0018  0.0000 </r>
       </set>
       <set comment="band 31">
        <r>  0.0001  0.0018  0.0002  0.0001  0.0032  0.0010  0.0000  0.0040  0.0000 </r>
       </set>
       <set comment="band 32">
        <r>  0.0001  0.0007  0.0002  0.0000  0.0000  0.0064  0.0000  0.0022  0.0000 </r>
       </set>
       <set comment="band 33">
        <r>  0.0009  0.0042  0.0197  0.0063  0.0000  0.0000  0.0010  0.0001  0.0000 </r>
       </set>
       <set comment="band 34">
        <r>  0.0066  0.0149  0.0003  0.0091  0.0000  0.0000  0.0025  0.0000  0.0009 </r>
       </set>
       <set comment="band 35">
        <r>  0.0057  0.0125  0.0018  0.0020  0.0000  0.0000  0.0005  0.0000  0.0108 </r>
       </set>
       <set comment="band 36">
        <r>  0.0006  0.0020  0.0062  0.0021  0.0002  0.0001  0.0142  0.0000  0.0086 </r>
       </set>
      </set>
     </set>
     <set comment="spin2">
      <set comment="kpoint 1">
       <set comment="band 1">
        <r>  0.0000  0.0000  0.0000  0.0000  0.0000  0.0000  0.0735  0.0000  0.8105 </r>
       </set>
       <set comment="band 2">
        <r>  0.0000  0.0000  0.0000  0.0000  0.0000  0.0000  0.8105  0.0000  0.0735 </r>
       </set>
       <set comment="band 3">
        <r>  0.4540  0.0000  0.0000  0.0000  0.0000  0.0000  0.0000  0.0000  0.0000 </r>
       </set>
       <set comment="band 4">
        <r>  0.0000  0.0000  0.0000  0.0000  0.0000  0.8747  0.0000  0.0000  0.0000 </r>
       </set>
       <set comment="band 5">
        <r>  0.0000  0.0000  0.0000  0.0000  0.0000  0.0000  0.0000  0.8747  0.0000 </r>
       </set>
       <set comment="band 6">
        <r>  0.0000  0.0000  0.0000  0.0000  0.8746  0.0000  0.0000  0.0000  0.0000 </r>
       </set>
       <set comment="band 7">
        <r>  0.0000  0.0052  0.1230  0.0005  0.0000  0.0000  0.0000  0.0000  0.0000 </r>
       </set>
       <set comment="band 8">
        <r>  0.0000  0.0007  0.0003  0.1269  0.0000  0.0000  0.0000  0.0000  0.0000 </r>
       </set>
       <set comment="band 9">
        <r>  0.0000  0.1217  0.0053  0.0005  0.0000  0.0000  0.0000  0.0000  0.0000 </r>
       </set>
       <set comment="band 10">
        <r>  0.0280  0.0000  0.0000  0.0000  0.0000  0.0000  0.0000  0.0000  0.0000 </r>
       </set>
       <set comment="band 11">
        <r>  0.0000  0.0000  0.0000  0.0000  0.0000  0.0000  0.0034  0.0000  0.0042 </r>
       </set>
       <set comment="band 12">
        <r>  0.0000  0.0000  0.0000  0.0000  0.0000  0.0000  0.0043  0.0000  0.0034 </r>
       </set>
       <set comment="band 13">
        <r>  0.0002  0.0303  0.0003  0.0059  0.0000  0.0000  0.0000  0.0000  0.0000 </r>
       </set>
       <set comment="band 14">
        <r>  0.0019  0.0004  0.0273  0.0061  0.0000  0.0000  0.0000  0.0000  0.0000 </r>
       </set>
       <set comment="band 15">
        <r>  0.0000  0.0062  0.0072  0.0228  0.0000  0.0000  0.0000  0.0000  0.0000 </r>
       </set>
       <set comment="band 16">
        <r>  0.0289  0.0000  0.0014  0.0010  0.0000  0.0000  0.0000  0.0000  0.0000 </r>
       </set>
       <set comment="band 17">
        <r>  0.0000  0.0000  0.0000  0.0000  0.0013  0.0100  0.0000  0.0072  0.0000 </r>
       </set>
       <set comment="band 18">
        <r>  0.0000  0.0000  0.0000  0.0000  0.0010  0.0084  0.0000  0.0091  0.0000 </r>
       </set>
       <set comment="band 19">
        <r>  0.0000  0.0000  0.0000  0.0000  0.0162  0.0000  0.0000  0.0023  0.0000 </r>
       </set>
       <set comment="band 20">
        <r>  0.0000  0.0000  0.0001  0.0000  0.0000  0.0000  0.0000  0.0000  0.0000 </r>
       </set>
       <set comment="band 21">
        <r>  0.0000  0.0000  0.0000  0.0000  0.0000  0.0000  0.0000  0.0000  0.0004 </r>
       </set>
       <set comment="band 22">
        <r>  0.0000  0.0000  0.0000  0.0000  0.0000  0.0000  0.0005  0.0000  0.0003 </r>
       </set>
       <set comment="band 23">
        <r>  0.0000  0.0000  0.0000  0.0000  0.0000  0.0000  0.0042  0.0000  0.0003 </r>
       </set>
       <set comment="band 24">
        <r>  0.0000  0.0000  0.0000  0.0000  0.0000  0.0000  0.0005  0.0000  0.0043 </r>
       </set>
       <set comment="band 25">
        <r>  0.0012  0.0181  0.0105  0.0052  0.0010  0.0000  0.0000  0.0002  0.0000 </r>
       </set>
       <set comment="band 26">
        <r>  0.0002  0.0114  0.0038  0.0189  0.0002  0.0006  0.0000  0.0004  0.0001 </r>
       </set>
       <set comment="band 27">
        <r>  0.0000  0.0007  0.0303  0.0048  0.0004  0.0003  0.0000  0.0012  0.0000 </r>
       </set>
       <set comment="band 28">
        <r>  0.0307  0.0012  0.0007  0.0001  0.0000  0.0000  0.0000  0.0000  0.0000 </r>
       </set>
       <set comment="band 29">
        <r>  0.0000  0.0068  0.0000  0.0015  0.0001  0.0000  0.0000  0.0000  0.0000 </r>
       </set>
       <set comment="band 30">
        <r>  0.0001  0.0002  0.0005  0.0124  0.0019  0.0037  0.0000  0.0007  0.0000 </r>
       </set>
       <set comment="band 31">
        <r>  0.0001  0.0023  0.0000  0.0009  0.0024  0.0048  0.0000  0.0013  0.0000 </r>
       </set>
       <set comment="band 32">
        <r>  0.0000  0.0003  0.0011  0.0007  0.0034  0.0000  0.0000  0.0055  0.0000 </r>
       </set>
       <set comment="band 33">
        <r>  0.0016  0.0024  0.0167  0.0071  0.0000  0.0000  0.0094  0.0000  0.0000 </r>
       </set>
       <set comment="band 34">
        <r>  0.0003  0.0268  0.0018  0.0100  0.0000  0.0001  0.0002  0.0001  0.0032 </r>
       </set>
       <set comment="band 35">
        <r>  0.0244  0.0036  0.0001  0.0057  0.0000  0.0000  0.0000  0.0000  0.0006 </r>
       </set>
       <set comment="band 36">
        <r>  0.0002  0.0044  0.0012  0.0022  0.0000  0.0000  0.0005  0.0000  0.0289 </r>
       </set>
      </set>
     </set>
    </set>
   </array>
  </projected>
 </calculation>
 <structure name="finalpos" >
  <crystal>
   <varray name="basis" >
    <v>      10.00000000       0.00000000       0.00000000 </v>
    <v>       0.00000000      10.00000000       0.00000000 </v>
    <v>       0.00000000       0.00000000      10.00000000 </v>
   </varray>
   <i name="volume">   1000.00000000 </i>
   <varray name="rec_basis" >
    <v>       0.10000000       0.00000000       0.00000000 </v>
    <v>       0.00000000       0.10000000       0.00000000 </v>
    <v>       0.00000000       0.00000000       0.10000000 </v>
   </varray>
  </crystal>
  <varray name="positions" >
   <v>       0.50000000       0.50000000       0.50000000 </v>
  </varray>
 </structure>
</modeling>
