   2   2   1   0
  0.9573706E+01  0.3002906E-09  0.3002906E-09  0.3002906E-09  0.5000000E-15
  1.000000000000000E-004
  CAR 
 unknown system                          
     51.11957700    -17.24165589  301      3.50882667      1.00000000
    -17.242  0.0000E+00  0.0000E+00
    -17.014  0.0000E+00  0.0000E+00
    -16.786  0.0000E+00  0.0000E+00
    -16.558  0.0000E+00  0.0000E+00
    -16.330  0.0000E+00  0.0000E+00
    -16.102  0.0000E+00  0.0000E+00
    -15.874  0.0000E+00  0.0000E+00
    -15.647  0.0000E+00  0.0000E+00
    -15.419  0.0000E+00  0.0000E+00
    -15.191  0.0000E+00  0.0000E+00
    -14.963  0.0000E+00  0.0000E+00
    -14.735  0.0000E+00  0.0000E+00
    -14.507  0.3428E-10  0.7812E-11
    -14.279  0.1031E-04  0.2350E-05
    -14.051  0.6429E-03  0.1488E-03
    -13.824  0.5988E-02  0.1513E-02
    -13.596  0.6027E-02  0.2887E-02
    -13.368  0.1629E-01  0.6598E-02
    -13.140  0.1552E-01  0.1013E-01
    -12.912  0.3733E-01  0.1864E-01
    -12.684  0.6662E-01  0.3382E-01
    -12.456  0.2702E-01  0.3998E-01
    -12.228  0.9454E-04  0.4000E-01
    -12.001  0.5525E-10  0.4000E-01
    -11.773  0.0000E+00  0.4000E-01
    -11.545  0.0000E+00  0.4000E-01
    -11.317  0.0000E+00  0.4000E-01
    -11.089  0.0000E+00  0.4000E-01
    -10.861  0.0000E+00  0.4000E-01
    -10.633  0.0000E+00  0.4000E-01
    -10.406  0.0000E+00  0.4000E-01
    -10.178  0.0000E+00  0.4000E-01
     -9.950  0.0000E+00  0.4000E-01
     -9.722  0.0000E+00  0.4000E-01
     -9.494  0.0000E+00  0.4000E-01
     -9.266  0.0000E+00  0.4000E-01
     -9.038  0.0000E+00  0.4000E-01
     -8.810  0.0000E+00  0.4000E-01
     -8.583  0.0000E+00  0.4000E-01
     -8.355  0.0000E+00  0.4000E-01
     -8.127  0.0000E+00  0.4000E-01
     -7.899  0.0000E+00  0.4000E-01
     -7.671  0.0000E+00  0.4000E-01
     -7.443  0.0000E+00  0.4000E-01
     -7.215  0.0000E+00  0.4000E-01
     -6.987  0.0000E+00  0.4000E-01
     -6.760  0.0000E+00  0.4000E-01
     -6.532  0.0000E+00  0.4000E-01
     -6.304  0.0000E+00  0.4000E-01
     -6.076  0.0000E+00  0.4000E-01
     -5.848  0.0000E+00  0.4000E-01
     -5.620  0.0000E+00  0.4000E-01
     -5.392  0.0000E+00  0.4000E-01
     -5.165  0.0000E+00  0.4000E-01
     -4.937  0.0000E+00  0.4000E-01
     -4.709  0.0000E+00  0.4000E-01
     -4.481  0.0000E+00  0.4000E-01
     -4.253  0.0000E+00  0.4000E-01
     -4.025  0.0000E+00  0.4000E-01
     -3.797  0.0000E+00  0.4000E-01
     -3.569  0.0000E+00  0.4000E-01
     -3.342  0.0000E+00  0.4000E-01
     -3.114  0.0000E+00  0.4000E-01
     -2.886  0.0000E+00  0.4000E-01
     -2.658  0.0000E+00  0.4000E-01
     -2.430  0.0000E+00  0.4000E-01
     -2.202  0.0000E+00  0.4000E-01
     -1.974  0.0000E+00  0.4000E-01
     -1.746  0.5955E-11  0.4000E-01
     -1.519  0.1369E-04  0.4000E-01
     -1.291  0.4449E-02  0.4102E-01
     -1.063  0.1172E-01  0.4369E-01
     -0.835  0.1093E-01  0.4618E-01
     -0.607  0.4345E-01  0.5608E-01
     -0.379  0.4501E-01  0.6634E-01
     -0.151  0.1482E-01  0.6971E-01
      0.077  0.1975E-01  0.7422E-01
      0.304  0.1231E-01  0.7702E-01
      0.532  0.1342E-01  0.8008E-01
      0.760  0.1725E-01  0.8401E-01
      0.988  0.2067E-01  0.8872E-01
      1.216  0.2657E-01  0.9477E-01
      1.444  0.2924E-02  0.9544E-01
      1.672  0.5055E-01  0.1070E+00
      1.899  0.4856E-01  0.1180E+00
      2.127  0.5667E-01  0.1309E+00
      2.355  0.5322E-01  0.1431E+00
      2.583  0.4500E-01  0.1533E+00
      2.811  0.1834E-01  0.1575E+00
      3.039  0.1039E-01  0.1599E+00
      3.267  0.5800E-03  0.1600E+00
      3.495  0.1632E-06  0.1600E+00
      3.722  0.3316E-14  0.1600E+00
      3.950  0.0000E+00  0.1600E+00
      4.178  0.0000E+00  0.1600E+00
      4.406  0.0000E+00  0.1600E+00
      4.634  0.0000E+00  0.1600E+00
      4.862  0.0000E+00  0.1600E+00
      5.090  0.0000E+00  0.1600E+00
      5.318  0.0000E+00  0.1600E+00
      5.545  0.0000E+00  0.1600E+00
      5.773  0.0000E+00  0.1600E+00
      6.001  0.0000E+00  0.1600E+00
      6.229  0.0000E+00  0.1600E+00
      6.457  0.0000E+00  0.1600E+00
      6.685  0.0000E+00  0.1600E+00
      6.913  0.5682E-19  0.1600E+00
      7.141  0.1326E-09  0.1600E+00
      7.368  0.1851E-04  0.1600E+00
      7.596  0.4539E-03  0.1601E+00
      7.824  0.3940E-04  0.1601E+00
      8.052  0.8567E-09  0.1601E+00
      8.280  0.1665E-08  0.1601E+00
      8.508  0.1788E-03  0.1602E+00
      8.736  0.3649E-02  0.1610E+00
      8.963  0.1239E-02  0.1613E+00
      9.191  0.2089E-02  0.1617E+00
      9.419  0.9272E-05  0.1617E+00
      9.647  0.9859E-06  0.1617E+00
      9.875  0.2172E-02  0.1622E+00
     10.103  0.4493E-02  0.1633E+00
     10.331  0.3769E-02  0.1641E+00
     10.559  0.1075E-01  0.1666E+00
     10.786  0.4753E-02  0.1677E+00
     11.014  0.6775E-03  0.1678E+00
     11.242  0.3090E-02  0.1685E+00
     11.470  0.1917E-01  0.1729E+00
     11.698  0.1583E-01  0.1765E+00
     11.926  0.8874E-02  0.1785E+00
     12.154  0.5441E-02  0.1798E+00
     12.382  0.5212E-02  0.1809E+00
     12.609  0.1606E-01  0.1846E+00
     12.837  0.2295E-01  0.1898E+00
     13.065  0.2309E-01  0.1951E+00
     13.293  0.9859E-02  0.1973E+00
     13.521  0.2170E-01  0.2023E+00
     13.749  0.1744E-01  0.2063E+00
     13.977  0.9535E-02  0.2084E+00
     14.205  0.1038E-01  0.2108E+00
     14.432  0.1800E-02  0.2112E+00
     14.660  0.2072E-01  0.2159E+00
     14.888  0.6625E-01  0.2310E+00
     15.116  0.2095E-01  0.2358E+00
     15.344  0.1694E-01  0.2397E+00
     15.572  0.2518E-01  0.2454E+00
     15.800  0.1195E-01  0.2481E+00
     16.027  0.2042E-01  0.2528E+00
     16.255  0.2405E-01  0.2582E+00
     16.483  0.4366E-02  0.2592E+00
     16.711  0.2267E-02  0.2598E+00
     16.939  0.1892E-02  0.2602E+00
     17.167  0.9428E-02  0.2623E+00
     17.395  0.1442E-01  0.2656E+00
     17.623  0.1159E-01  0.2683E+00
     17.850  0.1006E-01  0.2706E+00
     18.078  0.6620E-02  0.2721E+00
     18.306  0.1100E-04  0.2721E+00
     18.534  0.9924E-04  0.2721E+00
     18.762  0.1258E-01  0.2750E+00
     18.990  0.1994E-01  0.2795E+00
     19.218  0.1614E-01  0.2832E+00
     19.446  0.1215E-01  0.2859E+00
     19.673  0.4292E-01  0.2957E+00
     19.901  0.3806E-01  0.3044E+00
     20.129  0.1895E-01  0.3087E+00
     20.357  0.1344E-01  0.3118E+00
     20.585  0.1617E-01  0.3155E+00
     20.813  0.1550E-01  0.3190E+00
     21.041  0.1344E-01  0.3221E+00
     21.269  0.2566E-01  0.3279E+00
     21.496  0.3119E-01  0.3350E+00
     21.724  0.4741E-02  0.3361E+00
     21.952  0.1082E-05  0.3361E+00
     22.180  0.8212E-04  0.3361E+00
     22.408  0.2116E-01  0.3409E+00
     22.636  0.1616E-01  0.3446E+00
     22.864  0.6263E-02  0.3460E+00
     23.091  0.2957E-01  0.3528E+00
     23.319  0.2045E-01  0.3574E+00
     23.547  0.4097E-02  0.3584E+00
     23.775  0.1925E-01  0.3628E+00
     24.003  0.4555E-02  0.3638E+00
     24.231  0.1207E-01  0.3665E+00
     24.459  0.8876E-02  0.3686E+00
     24.687  0.9098E-03  0.3688E+00
     24.914  0.3379E-01  0.3765E+00
     25.142  0.2736E-01  0.3827E+00
     25.370  0.3954E-02  0.3836E+00
     25.598  0.2024E-01  0.3882E+00
     25.826  0.1214E-01  0.3910E+00
     26.054  0.3787E-02  0.3919E+00
     26.282  0.1173E-01  0.3945E+00
     26.510  0.2899E-01  0.4011E+00
     26.737  0.7954E-02  0.4029E+00
     26.965  0.1302E-01  0.4059E+00
     27.193  0.1322E-01  0.4089E+00
     27.421  0.1261E-01  0.4118E+00
     27.649  0.1336E-01  0.4148E+00
     27.877  0.7959E-02  0.4167E+00
     28.105  0.8259E-03  0.4168E+00
     28.332  0.2729E-02  0.4175E+00
     28.560  0.9076E-03  0.4177E+00
     28.788  0.1274E-01  0.4206E+00
     29.016  0.1189E-01  0.4233E+00
     29.244  0.1250E-01  0.4261E+00
     29.472  0.1515E-01  0.4296E+00
     29.700  0.5103E-01  0.4412E+00
     29.928  0.1557E-01  0.4448E+00
     30.155  0.8020E-02  0.4466E+00
     30.383  0.2732E-02  0.4472E+00
     30.611  0.2022E-01  0.4518E+00
     30.839  0.4716E-01  0.4626E+00
     31.067  0.3275E-01  0.4700E+00
     31.295  0.3233E-01  0.4774E+00
     31.523  0.5311E-01  0.4895E+00
     31.751  0.2850E-01  0.4960E+00
     31.978  0.2356E-01  0.5014E+00
     32.206  0.9653E-02  0.5036E+00
     32.434  0.2247E-01  0.5087E+00
     32.662  0.3624E-01  0.5169E+00
     32.890  0.9971E-02  0.5192E+00
     33.118  0.2430E-01  0.5248E+00
     33.346  0.2359E-01  0.5301E+00
     33.574  0.1768E-01  0.5342E+00
     33.801  0.1057E-01  0.5366E+00
     34.029  0.1516E-02  0.5369E+00
     34.257  0.1411E-04  0.5369E+00
     34.485  0.6969E-02  0.5385E+00
     34.713  0.8754E-02  0.5405E+00
     34.941  0.3335E-01  0.5481E+00
     35.169  0.6229E-02  0.5495E+00
     35.396  0.1994E-01  0.5541E+00
     35.624  0.2635E-01  0.5601E+00
     35.852  0.1582E-01  0.5637E+00
     36.080  0.1763E-01  0.5677E+00
     36.308  0.7885E-02  0.5695E+00
     36.536  0.2324E-01  0.5748E+00
     36.764  0.2321E-01  0.5801E+00
     36.992  0.1160E-01  0.5827E+00
     37.219  0.1439E-01  0.5860E+00
     37.447  0.1121E-01  0.5885E+00
     37.675  0.1071E-01  0.5910E+00
     37.903  0.1114E-01  0.5935E+00
     38.131  0.1234E-01  0.5963E+00
     38.359  0.5726E-02  0.5976E+00
     38.587  0.1027E-01  0.6000E+00
     38.815  0.3065E-01  0.6070E+00
     39.042  0.1429E-01  0.6102E+00
     39.270  0.2708E-01  0.6164E+00
     39.498  0.2601E-01  0.6223E+00
     39.726  0.1482E-01  0.6257E+00
     39.954  0.5284E-02  0.6269E+00
     40.182  0.1201E-02  0.6272E+00
     40.410  0.2156E-02  0.6277E+00
     40.638  0.2709E-01  0.6338E+00
     40.865  0.5495E-01  0.6464E+00
     41.093  0.3445E-01  0.6542E+00
     41.321  0.9202E-02  0.6563E+00
     41.549  0.1023E-01  0.6586E+00
     41.777  0.1348E-01  0.6617E+00
     42.005  0.3932E-02  0.6626E+00
     42.233  0.5676E-02  0.6639E+00
     42.460  0.6449E-03  0.6640E+00
     42.688  0.1236E-01  0.6669E+00
     42.916  0.4151E-01  0.6763E+00
     43.144  0.7734E-02  0.6781E+00
     43.372  0.2221E-01  0.6831E+00
     43.600  0.1633E-01  0.6869E+00
     43.828  0.1096E-01  0.6894E+00
     44.056  0.1949E-01  0.6938E+00
     44.283  0.2895E-01  0.7004E+00
     44.511  0.1503E-01  0.7038E+00
     44.739  0.1387E-02  0.7041E+00
     44.967  0.1377E-02  0.7045E+00
     45.195  0.2255E-01  0.7096E+00
     45.423  0.1226E-01  0.7124E+00
     45.651  0.6620E-03  0.7125E+00
     45.879  0.4222E-02  0.7135E+00
     46.106  0.1569E-01  0.7171E+00
     46.334  0.6816E-02  0.7186E+00
     46.562  0.1931E-02  0.7191E+00
     46.790  0.2021E-05  0.7191E+00
     47.018  0.1471E-12  0.7191E+00
     47.246  0.0000E+00  0.7191E+00
     47.474  0.5318E-16  0.7191E+00
     47.702  0.2274E-07  0.7191E+00
     47.929  0.4939E-03  0.7192E+00
     48.157  0.3518E-02  0.7200E+00
     48.385  0.8248E-04  0.7200E+00
     48.613  0.2743E-09  0.7200E+00
     48.841  0.0000E+00  0.7200E+00
     49.069  0.0000E+00  0.7200E+00
     49.297  0.0000E+00  0.7200E+00
     49.524  0.0000E+00  0.7200E+00
     49.752  0.0000E+00  0.7200E+00
     49.980  0.0000E+00  0.7200E+00
     50.208  0.0000E+00  0.7200E+00
     50.436  0.0000E+00  0.7200E+00
     50.664  0.0000E+00  0.7200E+00
     50.892  0.0000E+00  0.7200E+00
     51.120  0.0000E+00  0.7200E+00
     51.11957700    -17.24165589  301      3.50882667      1.00000000
    -17.242  0.0000E+00  0.0000E+00  0.0000E+00  0.0000E+00  0.0000E+00  0.0000E+00  0.0000E+00  0.0000E+00  0.0000E+00
    -17.014  0.0000E+00  0.0000E+00  0.0000E+00  0.0000E+00  0.0000E+00  0.0000E+00  0.0000E+00  0.0000E+00  0.0000E+00
    -16.786  0.0000E+00  0.0000E+00  0.0000E+00  0.0000E+00  0.0000E+00  0.0000E+00  0.0000E+00  0.0000E+00  0.0000E+00
    -16.558  0.0000E+00  0.0000E+00  0.0000E+00  0.0000E+00  0.0000E+00  0.0000E+00  0.0000E+00  0.0000E+00  0.0000E+00
    -16.330  0.0000E+00  0.0000E+00  0.0000E+00  0.0000E+00  0.0000E+00  0.0000E+00  0.0000E+00  0.0000E+00  0.0000E+00
    -16.102  0.0000E+00  0.0000E+00  0.0000E+00  0.0000E+00  0.0000E+00  0.0000E+00  0.0000E+00  0.0000E+00  0.0000E+00
    -15.874  0.0000E+00  0.0000E+00  0.0000E+00  0.0000E+00  0.0000E+00  0.0000E+00  0.0000E+00  0.0000E+00  0.0000E+00
    -15.647  0.0000E+00  0.0000E+00  0.0000E+00  0.0000E+00  0.0000E+00  0.0000E+00  0.0000E+00  0.0000E+00  0.0000E+00
    -15.419  0.0000E+00  0.0000E+00  0.0000E+00  0.0000E+00  0.0000E+00  0.0000E+00  0.0000E+00  0.0000E+00  0.0000E+00
    -15.191  0.0000E+00  0.0000E+00  0.0000E+00  0.0000E+00  0.0000E+00  0.0000E+00  0.0000E+00  0.0000E+00  0.0000E+00
    -14.963  0.0000E+00  0.0000E+00  0.0000E+00  0.0000E+00  0.0000E+00  0.0000E+00  0.0000E+00  0.0000E+00  0.0000E+00
    -14.735  0.0000E+00  0.0000E+00  0.0000E+00  0.0000E+00  0.0000E+00  0.0000E+00  0.0000E+00  0.0000E+00  0.0000E+00
    -14.507  0.7099E-10  0.4573E-19  0.4573E-19  0.4573E-19  0.2657E-22  0.2657E-22  0.1243E-26  0.2656E-22  0.1541E-27
    -14.279  0.2135E-04  0.9479E-10  0.9648E-10  0.9479E-10  0.4294E-13  0.4295E-13  0.9703E-13  0.4294E-13  0.5125E-22
    -14.051  0.1267E-02  0.9466E-05  0.1205E-04  0.9466E-05  0.4288E-08  0.4289E-08  0.1489E-06  0.4288E-08  0.6116E-18
    -13.824  0.1036E-01  0.1876E-03  0.5732E-03  0.1876E-03  0.8942E-07  0.8323E-07  0.2265E-04  0.8321E-07  0.2842E-16
    -13.596  0.8110E-02  0.7993E-03  0.3360E-03  0.7993E-03  0.1198E-05  0.8235E-07  0.7580E-04  0.8236E-07  0.3086E-15
    -13.368  0.1755E-01  0.1462E-02  0.3838E-02  0.1462E-02  0.1083E-05  0.1773E-05  0.4405E-03  0.1773E-05  0.1300E-07
    -13.140  0.9720E-02  0.2925E-02  0.2989E-02  0.2239E-02  0.3812E-05  0.2034E-05  0.1063E-02  0.4361E-06  0.3673E-04
    -12.912  0.1361E-01  0.7258E-02  0.9160E-02  0.5630E-02  0.3748E-05  0.6342E-05  0.3364E-02  0.2764E-05  0.1054E-03
    -12.684  0.7382E-02  0.1484E-01  0.9554E-02  0.8144E-02  0.5948E-05  0.7316E-05  0.1217E-01  0.1105E-05  0.9228E-03
    -12.456  0.2011E-02  0.5363E-02  0.1234E-02  0.1927E-02  0.1437E-05  0.1099E-05  0.7406E-02  0.1450E-06  0.4565E-03
    -12.228  0.4502E-05  0.2071E-04  0.6337E-06  0.5758E-05  0.5596E-08  0.5122E-09  0.2698E-04  0.8562E-10  0.2360E-05
    -12.001  0.1779E-11  0.1317E-10  0.3610E-13  0.3342E-11  0.3631E-14  0.3147E-16  0.1533E-10  0.3681E-17  0.1611E-11
    -11.773  0.0000E+00  0.0000E+00  0.0000E+00  0.0000E+00  0.0000E+00  0.0000E+00  0.0000E+00  0.0000E+00  0.0000E+00
    -11.545  0.0000E+00  0.0000E+00  0.0000E+00  0.0000E+00  0.0000E+00  0.0000E+00  0.0000E+00  0.0000E+00  0.0000E+00
    -11.317  0.0000E+00  0.0000E+00  0.0000E+00  0.0000E+00  0.0000E+00  0.0000E+00  0.0000E+00  0.0000E+00  0.0000E+00
    -11.089  0.0000E+00  0.0000E+00  0.0000E+00  0.0000E+00  0.0000E+00  0.0000E+00  0.0000E+00  0.0000E+00  0.0000E+00
    -10.861  0.0000E+00  0.0000E+00  0.0000E+00  0.0000E+00  0.0000E+00  0.0000E+00  0.0000E+00  0.0000E+00  0.0000E+00
    -10.633  0.0000E+00  0.0000E+00  0.0000E+00  0.0000E+00  0.0000E+00  0.0000E+00  0.0000E+00  0.0000E+00  0.0000E+00
    -10.406  0.0000E+00  0.0000E+00  0.0000E+00  0.0000E+00  0.0000E+00  0.0000E+00  0.0000E+00  0.0000E+00  0.0000E+00
    -10.178  0.0000E+00  0.0000E+00  0.0000E+00  0.0000E+00  0.0000E+00  0.0000E+00  0.0000E+00  0.0000E+00  0.0000E+00
     -9.950  0.0000E+00  0.0000E+00  0.0000E+00  0.0000E+00  0.0000E+00  0.0000E+00  0.0000E+00  0.0000E+00  0.0000E+00
     -9.722  0.0000E+00  0.0000E+00  0.0000E+00  0.0000E+00  0.0000E+00  0.0000E+00  0.0000E+00  0.0000E+00  0.0000E+00
     -9.494  0.0000E+00  0.0000E+00  0.0000E+00  0.0000E+00  0.0000E+00  0.0000E+00  0.0000E+00  0.0000E+00  0.0000E+00
     -9.266  0.0000E+00  0.0000E+00  0.0000E+00  0.0000E+00  0.0000E+00  0.0000E+00  0.0000E+00  0.0000E+00  0.0000E+00
     -9.038  0.0000E+00  0.0000E+00  0.0000E+00  0.0000E+00  0.0000E+00  0.0000E+00  0.0000E+00  0.0000E+00  0.0000E+00
     -8.810  0.0000E+00  0.0000E+00  0.0000E+00  0.0000E+00  0.0000E+00  0.0000E+00  0.0000E+00  0.0000E+00  0.0000E+00
     -8.583  0.0000E+00  0.0000E+00  0.0000E+00  0.0000E+00  0.0000E+00  0.0000E+00  0.0000E+00  0.0000E+00  0.0000E+00
     -8.355  0.0000E+00  0.0000E+00  0.0000E+00  0.0000E+00  0.0000E+00  0.0000E+00  0.0000E+00  0.0000E+00  0.0000E+00
     -8.127  0.0000E+00  0.0000E+00  0.0000E+00  0.0000E+00  0.0000E+00  0.0000E+00  0.0000E+00  0.0000E+00  0.0000E+00
     -7.899  0.0000E+00  0.0000E+00  0.0000E+00  0.0000E+00  0.0000E+00  0.0000E+00  0.0000E+00  0.0000E+00  0.0000E+00
     -7.671  0.0000E+00  0.0000E+00  0.0000E+00  0.0000E+00  0.0000E+00  0.0000E+00  0.0000E+00  0.0000E+00  0.0000E+00
     -7.443  0.0000E+00  0.0000E+00  0.0000E+00  0.0000E+00  0.0000E+00  0.0000E+00  0.0000E+00  0.0000E+00  0.0000E+00
     -7.215  0.0000E+00  0.0000E+00  0.0000E+00  0.0000E+00  0.0000E+00  0.0000E+00  0.0000E+00  0.0000E+00  0.0000E+00
     -6.987  0.0000E+00  0.0000E+00  0.0000E+00  0.0000E+00  0.0000E+00  0.0000E+00  0.0000E+00  0.0000E+00  0.0000E+00
     -6.760  0.0000E+00  0.0000E+00  0.0000E+00  0.0000E+00  0.0000E+00  0.0000E+00  0.0000E+00  0.0000E+00  0.0000E+00
     -6.532  0.0000E+00  0.0000E+00  0.0000E+00  0.0000E+00  0.0000E+00  0.0000E+00  0.0000E+00  0.0000E+00  0.0000E+00
     -6.304  0.0000E+00  0.0000E+00  0.0000E+00  0.0000E+00  0.0000E+00  0.0000E+00  0.0000E+00  0.0000E+00  0.0000E+00
     -6.076  0.0000E+00  0.0000E+00  0.0000E+00  0.0000E+00  0.0000E+00  0.0000E+00  0.0000E+00  0.0000E+00  0.0000E+00
     -5.848  0.0000E+00  0.0000E+00  0.0000E+00  0.0000E+00  0.0000E+00  0.0000E+00  0.0000E+00  0.0000E+00  0.0000E+00
     -5.620  0.0000E+00  0.0000E+00  0.0000E+00  0.0000E+00  0.0000E+00  0.0000E+00  0.0000E+00  0.0000E+00  0.0000E+00
     -5.392  0.0000E+00  0.0000E+00  0.0000E+00  0.0000E+00  0.0000E+00  0.0000E+00  0.0000E+00  0.0000E+00  0.0000E+00
     -5.165  0.0000E+00  0.0000E+00  0.0000E+00  0.0000E+00  0.0000E+00  0.0000E+00  0.0000E+00  0.0000E+00  0.0000E+00
     -4.937  0.0000E+00  0.0000E+00  0.0000E+00  0.0000E+00  0.0000E+00  0.0000E+00  0.0000E+00  0.0000E+00  0.0000E+00
     -4.709  0.0000E+00  0.0000E+00  0.0000E+00  0.0000E+00  0.0000E+00  0.0000E+00  0.0000E+00  0.0000E+00  0.0000E+00
     -4.481  0.0000E+00  0.0000E+00  0.0000E+00  0.0000E+00  0.0000E+00  0.0000E+00  0.0000E+00  0.0000E+00  0.0000E+00
     -4.253  0.0000E+00  0.0000E+00  0.0000E+00  0.0000E+00  0.0000E+00  0.0000E+00  0.0000E+00  0.0000E+00  0.0000E+00
     -4.025  0.0000E+00  0.0000E+00  0.0000E+00  0.0000E+00  0.0000E+00  0.0000E+00  0.0000E+00  0.0000E+00  0.0000E+00
     -3.797  0.0000E+00  0.0000E+00  0.0000E+00  0.0000E+00  0.0000E+00  0.0000E+00  0.0000E+00  0.0000E+00  0.0000E+00
     -3.569  0.0000E+00  0.0000E+00  0.0000E+00  0.0000E+00  0.0000E+00  0.0000E+00  0.0000E+00  0.0000E+00  0.0000E+00
     -3.342  0.0000E+00  0.0000E+00  0.0000E+00  0.0000E+00  0.0000E+00  0.0000E+00  0.0000E+00  0.0000E+00  0.0000E+00
     -3.114  0.0000E+00  0.0000E+00  0.0000E+00  0.0000E+00  0.0000E+00  0.0000E+00  0.0000E+00  0.0000E+00  0.0000E+00
     -2.886  0.0000E+00  0.0000E+00  0.0000E+00  0.0000E+00  0.0000E+00  0.0000E+00  0.0000E+00  0.0000E+00  0.0000E+00
     -2.658  0.0000E+00  0.0000E+00  0.0000E+00  0.0000E+00  0.0000E+00  0.0000E+00  0.0000E+00  0.0000E+00  0.0000E+00
     -2.430  0.0000E+00  0.0000E+00  0.0000E+00  0.0000E+00  0.0000E+00  0.0000E+00  0.0000E+00  0.0000E+00  0.0000E+00
     -2.202  0.0000E+00  0.0000E+00  0.0000E+00  0.0000E+00  0.0000E+00  0.0000E+00  0.0000E+00  0.0000E+00  0.0000E+00
     -1.974  0.0000E+00  0.0000E+00  0.0000E+00  0.0000E+00  0.0000E+00  0.0000E+00  0.0000E+00  0.0000E+00  0.0000E+00
     -1.746  0.2975E-10  0.4732E-13  0.4738E-13  0.4732E-13  0.1003E-11  0.1003E-11  0.1890E-17  0.1003E-11  0.1725E-23
     -1.519  0.6835E-04  0.1134E-06  0.1347E-06  0.1134E-06  0.2307E-05  0.2304E-05  0.6810E-09  0.2304E-05  0.3948E-17
     -1.291  0.2142E-01  0.1210E-03  0.5153E-03  0.1210E-03  0.7723E-03  0.7059E-03  0.1261E-04  0.7059E-03  0.9585E-15
     -1.063  0.5329E-01  0.6470E-03  0.3223E-02  0.6470E-03  0.2119E-02  0.1691E-02  0.8308E-04  0.1691E-02  0.1697E-10
     -0.835  0.3115E-01  0.8257E-03  0.1528E-01  0.9065E-03  0.7830E-03  0.1113E-02  0.6363E-03  0.1077E-02  0.1121E-04
     -0.607  0.1062E+00  0.1710E-02  0.6916E-01  0.7857E-02  0.2565E-02  0.6018E-02  0.2314E-02  0.2694E-02  0.9188E-03
     -0.379  0.1186E+00  0.2784E-02  0.6122E-01  0.4015E-02  0.4739E-02  0.3758E-02  0.6277E-02  0.2199E-02  0.2966E-03
     -0.151  0.4646E-01  0.8880E-03  0.1084E-01  0.2710E-03  0.6347E-03  0.2235E-02  0.3571E-02  0.1576E-03  0.6730E-03
      0.077  0.2641E-01  0.3631E-03  0.3964E-01  0.4643E-02  0.1020E-02  0.2825E-02  0.1792E-02  0.7474E-03  0.7678E-04
      0.304  0.2211E-01  0.4476E-03  0.2367E-02  0.1922E-01  0.2578E-02  0.1465E-03  0.2045E-02  0.8742E-04  0.2274E-04
      0.532  0.3743E-01  0.1486E-02  0.5702E-02  0.1717E-02  0.4814E-03  0.1020E-02  0.3666E-02  0.1020E-02  0.2799E-06
      0.760  0.1505E-01  0.4047E-02  0.2768E-01  0.4103E-02  0.2089E-02  0.1095E-02  0.3959E-02  0.1095E-02  0.2213E-05
      0.988  0.1729E-01  0.4836E-03  0.7618E-02  0.2922E-01  0.3614E-02  0.5898E-03  0.4574E-02  0.5540E-03  0.1024E-02
      1.216  0.5736E-02  0.4988E-02  0.5135E-02  0.5258E-01  0.4807E-02  0.4187E-03  0.2865E-02  0.6675E-03  0.7468E-03
      1.444  0.2067E-02  0.1718E-02  0.3361E-03  0.2972E-02  0.3107E-03  0.2001E-04  0.3327E-03  0.5778E-04  0.3430E-03
      1.672  0.3254E-01  0.1986E-01  0.1154E-01  0.3927E-01  0.3707E-02  0.6133E-03  0.9954E-02  0.2218E-02  0.1043E-01
      1.899  0.1862E-01  0.1700E-01  0.2692E-01  0.2139E-01  0.2053E-02  0.2143E-02  0.1539E-01  0.2489E-02  0.5344E-02
      2.127  0.1060E-01  0.2032E-01  0.1507E-01  0.2291E-01  0.1284E-02  0.1062E-02  0.1823E-01  0.1494E-02  0.2311E-01
      2.355  0.1680E-02  0.1682E-01  0.8394E-02  0.1248E-01  0.3757E-03  0.2669E-02  0.9784E-02  0.2335E-02  0.3355E-01
      2.583  0.1246E-03  0.1098E-01  0.4426E-02  0.1060E-01  0.1021E-02  0.2138E-02  0.1018E-01  0.2109E-02  0.2466E-01
      2.811  0.7513E-08  0.4287E-02  0.8572E-03  0.4287E-02  0.2040E-03  0.5642E-03  0.2470E-02  0.5642E-03  0.8480E-02
      3.039  0.2100E-13  0.2258E-02  0.1774E-02  0.2258E-02  0.8345E-04  0.1171E-03  0.9197E-03  0.1171E-03  0.2709E-02
      3.267  0.2305E-15  0.1549E-03  0.1548E-03  0.1549E-03  0.1180E-05  0.1181E-05  0.1299E-04  0.1181E-05  0.1369E-04
      3.495  0.3956E-21  0.4510E-07  0.4510E-07  0.4510E-07  0.2024E-11  0.2024E-11  0.2228E-10  0.2024E-11  0.2230E-10
      3.722  0.3351E-32  0.9162E-15  0.9162E-15  0.9162E-15  0.7348E-31  0.1957E-31  0.6174E-33  0.3895E-31  0.1369E-32
      3.950  0.0000E+00  0.0000E+00  0.0000E+00  0.0000E+00  0.0000E+00  0.0000E+00  0.0000E+00  0.0000E+00  0.0000E+00
      4.178  0.0000E+00  0.0000E+00  0.0000E+00  0.0000E+00  0.0000E+00  0.0000E+00  0.0000E+00  0.0000E+00  0.0000E+00
      4.406  0.0000E+00  0.0000E+00  0.0000E+00  0.0000E+00  0.0000E+00  0.0000E+00  0.0000E+00  0.0000E+00  0.0000E+00
      4.634  0.0000E+00  0.0000E+00  0.0000E+00  0.0000E+00  0.0000E+00  0.0000E+00  0.0000E+00  0.0000E+00  0.0000E+00
      4.862  0.0000E+00  0.0000E+00  0.0000E+00  0.0000E+00  0.0000E+00  0.0000E+00  0.0000E+00  0.0000E+00  0.0000E+00
      5.090  0.0000E+00  0.0000E+00  0.0000E+00  0.0000E+00  0.0000E+00  0.0000E+00  0.0000E+00  0.0000E+00  0.0000E+00
      5.318  0.0000E+00  0.0000E+00  0.0000E+00  0.0000E+00  0.0000E+00  0.0000E+00  0.0000E+00  0.0000E+00  0.0000E+00
      5.545  0.0000E+00  0.0000E+00  0.0000E+00  0.0000E+00  0.0000E+00  0.0000E+00  0.0000E+00  0.0000E+00  0.0000E+00
      5.773  0.0000E+00  0.0000E+00  0.0000E+00  0.0000E+00  0.0000E+00  0.0000E+00  0.0000E+00  0.0000E+00  0.0000E+00
      6.001  0.0000E+00  0.0000E+00  0.0000E+00  0.0000E+00  0.0000E+00  0.0000E+00  0.0000E+00  0.0000E+00  0.0000E+00
      6.229  0.0000E+00  0.0000E+00  0.0000E+00  0.0000E+00  0.0000E+00  0.0000E+00  0.0000E+00  0.0000E+00  0.0000E+00
      6.457  0.0000E+00  0.0000E+00  0.0000E+00  0.0000E+00  0.0000E+00  0.0000E+00  0.0000E+00  0.0000E+00  0.0000E+00
      6.685  0.0000E+00  0.0000E+00  0.0000E+00  0.0000E+00  0.0000E+00  0.0000E+00  0.0000E+00  0.0000E+00  0.0000E+00
      6.913  0.6775E-18  0.5346E-35  0.3604E-35  0.3905E-35  0.3215E-32  0.3273E-32  0.2181E-34  0.3227E-32  0.1969E-35
      7.141  0.1581E-08  0.1247E-25  0.8409E-26  0.9112E-26  0.7500E-23  0.7637E-23  0.5088E-25  0.7529E-23  0.4593E-26
      7.368  0.2208E-03  0.1742E-20  0.1174E-20  0.1272E-20  0.1047E-17  0.1067E-17  0.7106E-20  0.1051E-17  0.6414E-21
      7.596  0.5412E-02  0.4270E-19  0.2879E-19  0.3120E-19  0.2568E-16  0.2615E-16  0.1742E-18  0.2578E-16  0.1572E-19
      7.824  0.4698E-03  0.3707E-20  0.2499E-20  0.2708E-20  0.2229E-17  0.2270E-17  0.1512E-19  0.2238E-17  0.1365E-20
      8.052  0.1022E-07  0.2602E-18  0.2602E-18  0.2602E-18  0.7137E-20  0.7138E-20  0.3288E-24  0.7137E-20  0.2968E-25
      8.280  0.1549E-07  0.6352E-09  0.6352E-09  0.6352E-09  0.1731E-10  0.1731E-10  0.1825E-21  0.1731E-10  0.5923E-21
      8.508  0.1664E-02  0.6822E-04  0.6822E-04  0.6822E-04  0.1859E-05  0.1859E-05  0.1356E-14  0.1859E-05  0.6362E-16
      8.736  0.3396E-01  0.1392E-02  0.1392E-02  0.1392E-02  0.3793E-04  0.3793E-04  0.6487E-07  0.3793E-04  0.1298E-14
      8.963  0.1145E-01  0.1018E-03  0.8869E-03  0.1018E-03  0.2773E-05  0.2773E-05  0.1902E-03  0.2773E-05  0.1118E-15
      9.191  0.1927E-01  0.1706E-08  0.1687E-02  0.1706E-08  0.4649E-10  0.4649E-10  0.4086E-03  0.4649E-10  0.3635E-16
      9.419  0.8553E-04  0.3137E-13  0.7488E-05  0.3137E-13  0.6029E-15  0.3886E-18  0.1814E-05  0.4061E-18  0.1613E-18
      9.647  0.7307E-05  0.1108E-05  0.2974E-11  0.1108E-05  0.2113E-07  0.5276E-17  0.1187E-06  0.5276E-17  0.3069E-22
      9.875  0.1610E-01  0.2441E-02  0.4336E-07  0.2441E-02  0.4655E-04  0.1851E-08  0.2614E-03  0.1851E-08  0.7822E-19
     10.103  0.3208E-01  0.5253E-02  0.8083E-03  0.5253E-02  0.1193E-03  0.3451E-04  0.4760E-03  0.3451E-04  0.2005E-15
     10.331  0.2003E-01  0.5387E-02  0.5559E-02  0.5387E-02  0.2356E-03  0.2261E-03  0.9179E-04  0.2261E-03  0.1438E-14
     10.559  0.7784E-01  0.5619E-02  0.1295E-01  0.5618E-02  0.4680E-03  0.1064E-03  0.3520E-02  0.1064E-03  0.5516E-14
     10.786  0.1228E-01  0.1023E-01  0.1119E-01  0.1023E-01  0.1460E-03  0.9884E-04  0.4593E-03  0.9884E-04  0.1430E-14
     11.014  0.4400E-03  0.1917E-02  0.1916E-02  0.1917E-02  0.1724E-04  0.1728E-04  0.1276E-06  0.1728E-04  0.1439E-15
     11.242  0.1116E-01  0.6948E-02  0.2369E-02  0.6948E-02  0.1023E-04  0.2163E-03  0.6214E-03  0.2163E-03  0.1508E-15
     11.470  0.7553E-01  0.3676E-01  0.2263E-01  0.3676E-01  0.2825E-02  0.6800E-03  0.5465E-02  0.6800E-03  0.1281E-12
     11.698  0.1688E-01  0.4152E-01  0.3096E-01  0.4150E-01  0.3683E-02  0.5154E-03  0.3493E-02  0.5153E-03  0.6457E-06
     11.926  0.4508E-01  0.1700E-01  0.1332E-01  0.5506E-02  0.3101E-03  0.1754E-03  0.3224E-02  0.8996E-04  0.3099E-03
     12.154  0.3354E-01  0.8565E-02  0.7124E-02  0.5676E-06  0.1790E-02  0.6365E-04  0.2146E-02  0.6266E-08  0.2309E-03
     12.382  0.2030E-01  0.1867E-02  0.8008E-03  0.1861E-02  0.2820E-01  0.1054E-05  0.1007E-02  0.1005E-05  0.1775E-06
     12.609  0.1114E+00  0.1048E-01  0.3419E-02  0.1044E-01  0.5037E-01  0.1071E-04  0.4644E-02  0.4450E-05  0.1544E-05
     12.837  0.7378E-01  0.5554E-01  0.2612E-01  0.3635E-01  0.2313E-01  0.3754E-02  0.5128E-02  0.1423E-03  0.8916E-03
     13.065  0.2928E-01  0.6231E-01  0.2408E-01  0.4636E-01  0.3137E-01  0.3205E-02  0.4750E-02  0.1980E-03  0.7423E-03
     13.293  0.1263E-01  0.3203E-03  0.1012E-03  0.9101E-02  0.6113E-01  0.3964E-04  0.1259E-03  0.1499E-03  0.6915E-06
     13.521  0.1470E+00  0.2291E-02  0.6063E-03  0.6065E-02  0.1033E+00  0.3429E-03  0.1125E-02  0.3510E-03  0.5270E-04
     13.749  0.1786E+00  0.1920E-01  0.1954E-02  0.9884E-02  0.3564E-01  0.8513E-03  0.1881E-02  0.7980E-05  0.9891E-03
     13.977  0.1225E-01  0.1299E-01  0.1142E-03  0.2428E-01  0.3074E-01  0.4964E-04  0.6357E-03  0.6432E-04  0.3617E-03
     14.205  0.1148E-04  0.6556E-04  0.1391E-08  0.1736E-01  0.6066E-01  0.6066E-09  0.2912E-05  0.3478E-02  0.1677E-05
     14.432  0.1578E-03  0.8725E-06  0.1203E-04  0.2981E-02  0.1039E-01  0.1387E-04  0.3426E-06  0.6014E-03  0.5694E-06
     14.660  0.9120E-01  0.6500E-03  0.9588E-02  0.1932E-01  0.4605E-01  0.7144E-02  0.1272E-03  0.5863E-02  0.2019E-03
     14.888  0.2831E+00  0.1070E-01  0.7725E-01  0.2182E-01  0.1379E+00  0.5243E-01  0.5138E-03  0.3395E-01  0.9887E-03
     15.116  0.1863E+00  0.2990E-02  0.2506E-01  0.2346E-02  0.1514E-01  0.1863E-01  0.4168E-03  0.9790E-02  0.1324E-02
     15.344  0.9462E-01  0.2602E-02  0.8416E-02  0.2591E-02  0.1375E-01  0.1498E-01  0.4984E-04  0.1487E-01  0.8639E-05
     15.572  0.1161E+00  0.2377E-02  0.1170E+00  0.1850E-02  0.2019E-02  0.2846E-01  0.9231E-03  0.2212E-01  0.3075E-03
     15.800  0.4384E-01  0.1014E-02  0.6558E-01  0.9373E-03  0.7772E-03  0.4599E-02  0.3336E-03  0.3440E-02  0.6041E-04
     16.027  0.2563E+00  0.8669E-02  0.8037E-01  0.1884E-01  0.7050E-02  0.3651E-02  0.1121E-02  0.5624E-03  0.2393E-02
     16.255  0.2489E+00  0.5959E-02  0.1198E+00  0.1399E-01  0.3211E-01  0.3236E-02  0.7264E-03  0.7959E-03  0.1891E-02
     16.483  0.3108E-01  0.6201E-05  0.3788E-01  0.1303E-04  0.1454E-02  0.2103E-03  0.8151E-05  0.2082E-03  0.1608E-05
     16.711  0.5285E-03  0.1161E-02  0.1177E-02  0.1161E-02  0.6421E-02  0.6421E-02  0.3290E-08  0.6421E-02  0.8090E-11
     16.939  0.1084E-02  0.9731E-03  0.1553E-02  0.9344E-03  0.5170E-02  0.5170E-02  0.1087E-04  0.5170E-02  0.1068E-04
     17.167  0.9211E-01  0.5680E-02  0.8465E-01  0.4813E-03  0.8642E-04  0.1363E-03  0.1483E-02  0.9283E-04  0.1437E-02
     17.395  0.1208E+00  0.2216E-01  0.9903E-01  0.2044E-01  0.3509E-02  0.3769E-02  0.1736E-02  0.3755E-02  0.4754E-03
     17.623  0.8530E-01  0.5888E-02  0.1153E+00  0.5888E-02  0.8610E-02  0.7633E-03  0.1865E-02  0.7633E-03  0.9029E-07
     17.850  0.7622E-01  0.2426E-01  0.5352E-01  0.2426E-01  0.5591E-02  0.1653E-02  0.3548E-02  0.1653E-02  0.1328E-13
     18.078  0.5102E-01  0.2645E-01  0.1076E-01  0.2645E-01  0.1222E-02  0.1782E-02  0.3673E-02  0.1782E-02  0.2118E-14
     18.306  0.8476E-04  0.4396E-04  0.1784E-04  0.4396E-04  0.2028E-05  0.2963E-05  0.6103E-05  0.2963E-05  0.3840E-17