    2    2   50    1
  0.9573706E+01  0.3002906E-09  0.3002906E-09  0.3002906E-09  0.5000000E-15
  1.000000000000000E-004
  CAR 
 unknown system                          
      8     20     18
 
  0.0000000E+00  0.0000000E+00  0.0000000E+00  0.2915452E-02
    1      -14.134327   1.000000
    2        3.004818   1.000000
    3        3.004818   1.000000
    4        3.004824   1.000000
    5        7.495450   0.000000
    6       18.664820   0.000000
    7       18.664820   0.000000
    8       18.664820   0.000000
    9       22.517310   0.000000
   10       24.263134   0.000000
   11       24.263134   0.000000
   12       26.781552   0.000000
   13       26.781552   0.000000
   14       26.781568   0.000000
   15       40.783661   0.000000
   16       40.783661   0.000000
   17       40.783821   0.000000
   18       41.188382   0.000000
 
  0.1428571E+00  0.0000000E+00  0.0000000E+00  0.2332362E-01
    1      -13.932295   1.000000
    2        1.830831   1.000000
    3        2.878447   1.000000
    4        2.878452   1.000000
    5        8.628627   0.000000
    6       16.701450   0.000000
    7       19.095097   0.000000
    8       19.095100   0.000000
    9       23.100481   0.000000
   10       23.100481   0.000000
   11       24.808269   0.000000
   12       27.303995   0.000000
   13       28.818077   0.000000
   14       28.818097   0.000000
   15       38.375894   0.000000
   16       40.558669   0.000000
   17       40.558781   0.000000
   18       43.399306   0.000000
 
  0.2857143E+00  0.0000000E+00  0.0000000E+00  0.2332362E-01
    1      -13.435777   1.000000
    2       -0.056438   1.000000
    3        2.609698   1.000000
    4        2.609702   1.000000
    5       10.182016   0.000000
    6       15.219290   0.000000
    7       19.439918   0.000000
    8       19.439925   0.000000
    9       23.115558   0.000000
   10       23.115561   0.000000
   11       24.350867   0.000000
   12       31.356966   0.000000
   13       31.711280   0.000000
   14       31.711318   0.000000
   15       36.741418   0.000000
   16       38.707949   0.000000
   17       38.707967   0.000000
   18       46.329229   0.000000
 
  0.4285714E+00  0.0000000E+00  0.0000000E+00  0.2332362E-01
    1      -12.982773   1.000000
    2       -1.326658   1.000000
    3        2.407350   1.000000
    4        2.407353   1.000000
    5       10.717668   0.000000
    6       15.251831   0.000000
    7       19.124782   0.000000
    8       19.124789   0.000000
    9       23.625000   0.000000
   10       24.805978   0.000000
   11       24.805996   0.000000
   12       31.336251   0.000000
   13       33.383913   0.000000
   14       33.383940   0.000000
   15       35.651533   0.000000
   16       35.651547   0.000000
   17       41.898678   0.000000
   18       48.012248   0.000000
 
  0.1428571E+00  0.1428571E+00  0.0000000E+00  0.1749271E-01
    1      -13.868700   1.000000
    2        1.749233   1.000000
    3        2.717795   1.000000
    4        2.717799   1.000000
    5        8.997209   0.000000
    6       16.127766   0.000000
    7       19.276532   0.000000
    8       19.276537   0.000000
    9       21.044527   0.000000
   10       24.878508   0.000000
   11       26.408994   0.000000
   12       27.785339   0.000000
   13       27.785347   0.000000
   14       29.338992   0.000000
   15       38.607392   0.000000
   16       39.893233   0.000000
   17       39.893311   0.000000
   18       44.444902   0.000000
 
  0.2857143E+00  0.1428571E+00  0.0000000E+00  0.6997085E-01
    1      -13.478723   1.000000
    2        0.408490   1.000000
    3        2.390959   1.000000
    4        2.438338   1.000000
    5       10.472918   0.000000
    6       14.797929   0.000000
    7       18.721384   0.000000
    8       19.767987   0.000000
    9       20.845659   0.000000
   10       24.953827   0.000000
   11       26.962205   0.000000
   12       30.444603   0.000000
   13       30.829343   0.000000
   14       31.456862   0.000000
   15       36.695171   0.000000
   16       37.983697   0.000000
   17       40.857282   0.000000
   18       45.308998   0.000000
 
  0.4285714E+00  0.1428571E+00  0.0000000E+00  0.6997085E-01
    1      -13.010175   1.000000
    2       -0.846260   1.000000
    3        1.944113   1.000000
    4        2.252450   1.000000
    5       11.454545   0.000000
    6       14.794104   0.000000
    7       17.596924   0.000000
    8       19.666504   0.000000
    9       22.392887   0.000000
   10       25.780534   0.000000
   11       26.427362   0.000000
   12       31.552196   0.000000
   13       32.994188   0.000000
   14       33.719516   0.000000
   15       34.472838   0.000000
   16       39.345693   0.000000
   17       40.809132   0.000000
   18       45.073017   0.000000
 
 -0.4285714E+00  0.1428571E+00  0.0000000E+00  0.6997085E-01
    1      -12.848642   1.000000
    2       -1.211683   1.000000
    3        1.682550   1.000000
    4        2.282448   1.000000
    5       11.624652   0.000000
    6       15.161922   0.000000
    7       17.311748   0.000000
    8       19.525180   0.000000
    9       23.700939   0.000000
   10       25.086435   0.000000
   11       26.171565   0.000000
   12       32.437470   0.000000
   13       32.482457   0.000000
   14       33.037628   0.000000
   15       35.873103   0.000000
   16       37.337763   0.000000
   17       45.086907   0.000000
   18       46.084230   0.000000
 
 -0.2857143E+00  0.1428571E+00  0.0000000E+00  0.6997085E-01
    1      -13.151987   1.000000
    2       -0.474628   1.000000
    3        1.805580   1.000000
    4        2.510204   1.000000
    5       11.290793   0.000000
    6       14.845817   0.000000
    7       17.857491   0.000000
    8       19.909747   0.000000
    9       22.426005   0.000000
   10       24.207103   0.000000
   11       26.412312   0.000000
   12       31.613085   0.000000
   13       32.381303   0.000000
   14       33.326791   0.000000
   15       35.385310   0.000000
   16       39.103892   0.000000
   17       40.942554   0.000000
   18       43.192882   0.000000
 
 -0.1428571E+00  0.1428571E+00  0.0000000E+00  0.3498542E-01
    1      -13.634211   1.000000
    2        0.827246   1.000000
    3        2.337518   1.000000
    4        2.780563   1.000000
    5        9.901491   0.000000
    6       15.447905   0.000000
    7       18.815557   0.000000
    8       20.009498   0.000000
    9       21.263301   0.000000
   10       23.663061   0.000000
   11       26.479397   0.000000
   12       28.735546   0.000000
   13       30.654193   0.000000
   14       31.053843   0.000000
   15       36.249271   0.000000
   16       39.615684   0.000000
   17       41.567995   0.000000
   18       43.730412   0.000000
 
  0.2857143E+00  0.2857143E+00  0.0000000E+00  0.1749271E-01
    1      -13.251610   1.000000
    2        0.051491   1.000000
    3        2.146541   1.000000
    4        2.146543   1.000000
    5       11.391344   0.000000
    6       13.576193   0.000000
    7       17.440014   0.000000
    8       20.522229   0.000000
    9       20.522244   0.000000
   10       26.644830   0.000000
   11       30.033683   0.000000
   12       30.718398   0.000000
   13       30.718401   0.000000
   14       33.020848   0.000000
   15       37.862682   0.000000
   16       37.862710   0.000000
   17       38.344593   0.000000
   18       42.810299   0.000000
 
  0.4285714E+00  0.2857143E+00  0.0000000E+00  0.6997085E-01
    1      -12.903796   1.000000
    2       -0.548639   1.000000
    3        1.553302   1.000000
    4        1.955501   1.000000
    5       12.443918   0.000000
    6       13.380722   0.000000
    7       16.227239   0.000000
    8       20.747873   0.000000
    9       21.138437   0.000000
   10       27.591958   0.000000
   11       29.657287   0.000000
   12       30.874999   0.000000
   13       32.546410   0.000000
   14       35.409712   0.000000
   15       36.013688   0.000000
   16       39.530667   0.000000
   17       41.605411   0.000000
   18       42.633721   0.000000
 
 -0.4285714E+00  0.2857143E+00  0.0000000E+00  0.6997085E-01
    1      -12.701186   1.000000
    2       -0.585724   1.000000
    3        0.622539   1.000000
    4        1.989365   1.000000
    5       12.881154   0.000000
    6       14.693447   0.000000
    7       15.542883   0.000000
    8       20.458965   0.000000
    9       21.353263   0.000000
   10       26.977998   0.000000
   11       29.722775   0.000000
   12       30.768235   0.000000
   13       31.347402   0.000000
   14       35.617311   0.000000
   15       38.770103   0.000000
   16       39.391718   0.000000
   17       43.983057   0.000000
   18       45.907309   0.000000
 
 -0.2857143E+00  0.2857143E+00  0.0000000E+00  0.3498542E-01
    1      -12.819837   1.000000
    2       -0.437618   1.000000
    3        0.595793   1.000000
    4        2.228129   1.000000
    5       12.833912   0.000000
    6       14.735523   0.000000
    7       16.008775   0.000000
    8       20.225723   0.000000
    9       22.790514   0.000000
   10       24.025321   0.000000
   11       29.022761   0.000000
   12       31.257270   0.000000
   13       32.042515   0.000000
   14       34.726859   0.000000
   15       37.069217   0.000000
   16       40.861393   0.000000
   17       42.138113   0.000000
   18       43.656911   0.000000
 
  0.4285714E+00  0.4285714E+00  0.0000000E+00  0.1749271E-01
    1      -12.737738   1.000000
    2       -0.866421   1.000000
    3        1.745618   1.000000
    4        1.745620   1.000000
    5       12.259844   0.000000
    6       12.661518   0.000000
    7       15.882006   0.000000
    8       21.465965   0.000000
    9       21.465990   0.000000
   10       28.207544   0.000000
   11       28.982350   0.000000
   12       33.262957   0.000000
   13       33.262959   0.000000
   14       37.772263   0.000000
   15       38.388689   0.000000
   16       38.388691   0.000000
   17       40.685439   0.000000
   18       41.080791   0.000000
 
 -0.4285714E+00  0.4285714E+00  0.0000000E+00  0.3498542E-01
    1      -12.646933   1.000000
    2       -0.785515   1.000000
    3        1.133112   1.000000
    4        1.759626   1.000000
    5       12.520306   0.000000
    6       13.395889   0.000000
    7       15.651671   0.000000
    8       21.144933   0.000000
    9       21.272962   0.000000
   10       28.642858   0.000000
   11       30.009255   0.000000
   12       30.531706   0.000000
   13       32.425655   0.000000
   14       38.861174   0.000000
   15       39.149372   0.000000
   16       41.255578   0.000000
   17       41.352230   0.000000
   18       42.799851   0.000000
 
  0.4285714E+00  0.2857143E+00  0.1428571E+00  0.6997085E-01
    1      -13.107180   1.000000
    2       -0.244714   1.000000
    3        1.597491   1.000000
    4        2.253831   1.000000
    5       11.912726   0.000000
    6       14.129059   0.000000
    7       17.118518   0.000000
    8       20.138128   0.000000
    9       21.436133   0.000000
   10       25.462234   0.000000
   11       29.217063   0.000000
   12       30.661195   0.000000
   13       31.348749   0.000000
   14       34.824469   0.000000
   15       35.371689   0.000000
   16       39.096873   0.000000
   17       40.478939   0.000000
   18       44.406696   0.000000
 
 -0.4285714E+00  0.2857143E+00  0.1428571E+00  0.1399417E+00
    1      -12.782572   1.000000
    2       -0.671725   1.000000
    3        0.973965   1.000000
    4        1.986364   1.000000
    5       12.829139   0.000000
    6       14.638932   0.000000
    7       16.017001   0.000000
    8       19.611203   0.000000
    9       22.984153   0.000000
   10       24.877568   0.000000
   11       29.623495   0.000000
   12       31.107108   0.000000
   13       31.915635   0.000000
   14       34.887699   0.000000
   15       36.435082   0.000000
   16       40.668709   0.000000
   17       42.843384   0.000000
   18       44.176346   0.000000
 
 -0.4285714E+00  0.4285714E+00  0.1428571E+00  0.6997085E-01
    1      -12.691147   1.000000
    2       -0.590127   1.000000
    3        1.087930   1.000000
    4        1.563518   1.000000
    5       13.264739   0.000000
    6       13.634177   0.000000
    7       15.498946   0.000000
    8       19.765964   0.000000
    9       22.361489   0.000000
   10       27.379017   0.000000
   11       29.522406   0.000000
   12       30.836315   0.000000
   13       33.345210   0.000000
   14       36.724500   0.000000
   15       37.616493   0.000000
   16       40.735804   0.000000
   17       43.279577   0.000000
   18       44.033752   0.000000
 
 -0.2857143E+00  0.4285714E+00  0.1428571E+00  0.6997085E-01
    1      -12.637515   1.000000
    2       -0.059119   1.000000
    3        0.139622   1.000000
    4        1.587821   1.000000
    5       13.787940   0.000000
    6       14.857399   0.000000
    7       14.907034   0.000000
    8       18.857115   0.000000
    9       23.270815   0.000000
   10       25.544958   0.000000
   11       29.491952   0.000000
   12       31.433108   0.000000
   13       32.691256   0.000000
   14       37.029525   0.000000
   15       38.689611   0.000000
   16       40.942741   0.000000
   17       42.757116   0.000000
   18       43.478707   0.000000
