       N       E                     dE             d eps       ncg     rms          rms(c)
DAV:   1     0.224564002169E+01    0.22456E+01   -0.49168E+03   738   0.395E+02
DAV:   2    -0.134388875777E+02   -0.15685E+02   -0.15685E+02  1080   0.616E+01
DAV:   3    -0.134688159374E+02   -0.29928E-01   -0.29928E-01   720   0.320E+00
DAV:   4    -0.134688346726E+02   -0.18735E-04   -0.18735E-04  1242   0.759E-02
DAV:   5    -0.134688346728E+02   -0.15496E-09   -0.15493E-09   738   0.173E-04    0.720E+00
DAV:   6    -0.119322232604E+02    0.15366E+01   -0.10257E+01   792   0.997E+00    0.229E+00
DAV:   7    -0.119178688641E+02    0.14354E-01   -0.50795E-02   882   0.133E+00    0.133E+00
DAV:   8    -0.119117426127E+02    0.61263E-02   -0.26593E-02  1026   0.109E+00    0.176E-01
DAV:   9    -0.119116436972E+02    0.98916E-04   -0.10775E-04   936   0.474E-02    0.127E-01
DAV:  10    -0.119116945513E+02   -0.50854E-04   -0.27031E-04   900   0.766E-02    0.609E-03
DAV:  11    -0.119116947791E+02   -0.22778E-06   -0.75864E-06   936   0.113E-02    0.332E-03
DAV:  12    -0.119116947566E+02    0.22445E-07   -0.35634E-07  1080   0.258E-03
   1 F= -.11911695E+02 E0= -.11911695E+02  d E =-.119117E+02
