PROCAR lm decomposed + phase
# of k-points:   20         # of bands:   18         # of ions:    2

 k-point     1 :    0.00000000 0.00000000 0.00000000     weight = 0.00291545

band     1 # energy  -14.13432713 # occ.  2.00000000
 
ion      s     py     pz     px    dxy    dyz    dz2    dxz  x2-y2    tot
    1  0.041  0.000  0.000  0.000  0.000  0.000  0.000  0.000  0.000  0.041
    2  0.672  0.000  0.000  0.000  0.000  0.000  0.000  0.000  0.000  0.672
tot    0.713  0.000  0.000  0.000  0.000  0.000  0.000  0.000  0.000  0.713
ion          s             py             pz             px             dxy            dyz            dz2            dxz          dx2-y2  
    1 -0.193 -0.000  -0.000  0.000  -0.000 -0.000   0.000  0.000   0.000  0.000   0.000  0.000  -0.000  0.000   0.000  0.000   0.000 -0.000   0.037
    2 -0.808 -0.001  -0.000  0.000   0.000 -0.000   0.000  0.000   0.000  0.000   0.000  0.000   0.000  0.000   0.000  0.000   0.000  0.000   0.653
charge 0.690          0.000          0.000          0.000          0.000          0.000          0.000          0.000          0.000          0.690       
 
band     2 # energy    3.00481769 # occ.  2.00000000
 
ion      s     py     pz     px    dxy    dyz    dz2    dxz  x2-y2    tot
    1  0.000  0.004  0.011  0.002  0.000  0.000  0.000  0.000  0.000  0.017
    2  0.000  0.184  0.490  0.073  0.000  0.000  0.000  0.000  0.000  0.747
tot    0.000  0.188  0.501  0.075  0.000  0.000  0.000  0.000  0.000  0.764
ion          s             py             pz             px             dxy            dyz            dz2            dxz          dx2-y2  
    1  0.000 -0.000   0.007 -0.063  -0.012  0.102   0.005 -0.039  -0.000 -0.000   0.000 -0.000  -0.000  0.000   0.000 -0.000   0.000  0.000   0.016
    2 -0.000  0.000  -0.049  0.417   0.079 -0.680  -0.031  0.263   0.000  0.000   0.000  0.000   0.000  0.000   0.000  0.000   0.000  0.000   0.716
charge 0.000          0.181          0.480          0.072          0.000          0.000          0.000          0.000          0.000          0.732       
 
band     3 # energy    3.00481769 # occ.  2.00000000
 
ion      s     py     pz     px    dxy    dyz    dz2    dxz  x2-y2    tot
    1  0.000  0.007  0.000  0.009  0.000  0.000  0.000  0.000  0.000  0.017
    2  0.000  0.314  0.008  0.425  0.000  0.000  0.000  0.000  0.000  0.747
tot    0.000  0.321  0.009  0.434  0.000  0.000  0.000  0.000  0.000  0.764
ion          s             py             pz             px             dxy            dyz            dz2            dxz          dx2-y2  
    1  0.000 -0.000  -0.005  0.082  -0.001  0.013   0.006 -0.096  -0.000 -0.000  -0.000  0.000   0.000  0.000  -0.000 -0.000   0.000 -0.000   0.016
    2 -0.000  0.000   0.033 -0.547   0.005 -0.090  -0.038  0.637   0.000  0.000   0.000  0.000   0.000  0.000   0.000  0.000   0.000  0.000   0.716
charge 0.000          0.307          0.008          0.416          0.000          0.000          0.000          0.000          0.000          0.732       
 
band     4 # energy    3.00482419 # occ.  2.00000000
 
ion      s     py     pz     px    dxy    dyz    dz2    dxz  x2-y2    tot
    1  0.000  0.006  0.006  0.006  0.000  0.000  0.000  0.000  0.000  0.017
    2  0.000  0.249  0.249  0.249  0.000  0.000  0.000  0.000  0.000  0.747
tot    0.000  0.255  0.254  0.255  0.000  0.000  0.000  0.000  0.000  0.764
ion          s             py             pz             px             dxy            dyz            dz2            dxz          dx2-y2  
    1  0.000 -0.000   0.002  0.073   0.002  0.073   0.002  0.073  -0.000 -0.000  -0.000  0.000  -0.000  0.000   0.000  0.000   0.000  0.000   0.016
    2 -0.000  0.000  -0.014 -0.488  -0.014 -0.488  -0.014 -0.488   0.000  0.000   0.000  0.000   0.000  0.000   0.000  0.000   0.000  0.000   0.716
charge 0.000          0.244          0.244          0.244          0.000          0.000          0.000          0.000          0.000          0.732       
 
band     5 # energy    7.49544953 # occ.  0.00000000
 
ion      s     py     pz     px    dxy    dyz    dz2    dxz  x2-y2    tot
    1  0.238  0.000  0.000  0.000  0.000  0.000  0.000  0.000  0.000  0.238
    2  0.253  0.000  0.000  0.000  0.000  0.000  0.000  0.000  0.000  0.253
tot    0.492  0.000  0.000  0.000  0.000  0.000  0.000  0.000  0.000  0.492
ion          s             py             pz             px             dxy            dyz            dz2            dxz          dx2-y2  
    1  0.474  0.001  -0.000  0.000  -0.000 -0.000   0.000  0.000  -0.000 -0.000  -0.000 -0.000   0.000  0.000  -0.000 -0.000  -0.000 -0.000   0.225
    2 -0.498 -0.001  -0.000  0.000   0.000 -0.000   0.000  0.000   0.000  0.000   0.000  0.000   0.000  0.000   0.000  0.000   0.000  0.000   0.248
charge 0.473          0.000          0.000          0.000          0.000          0.000          0.000          0.000          0.000          0.473       
 
band     6 # energy   18.66481953 # occ.  0.00000000
 
ion      s     py     pz     px    dxy    dyz    dz2    dxz  x2-y2    tot
    1  0.000  0.000  0.000  0.000  0.000  0.149  0.000  0.148  0.000  0.296
    2  0.000  0.000  0.000  0.000  0.000  0.000  0.000  0.000  0.000  0.000
tot    0.000  0.000  0.000  0.000  0.000  0.149  0.000  0.148  0.000  0.296
ion          s             py             pz             px             dxy            dyz            dz2            dxz          dx2-y2  
    1 -0.000 -0.000  -0.000  0.000   0.000 -0.000   0.000  0.000   0.000  0.000  -0.116 -0.368   0.000  0.000   0.116  0.366  -0.000 -0.000   0.296
    2 -0.000 -0.000   0.000 -0.000  -0.000  0.000  -0.000 -0.000   0.000  0.000   0.000  0.000   0.000  0.000   0.000  0.000   0.000  0.000   0.000
charge 0.000          0.000          0.000          0.000          0.000          0.149          0.000          0.148          0.000          0.296       
 
band     7 # energy   18.66481957 # occ.  0.00000000
 
ion      s     py     pz     px    dxy    dyz    dz2    dxz  x2-y2    tot
    1  0.000  0.000  0.000  0.000  0.005  0.145  0.000  0.146  0.000  0.296
    2  0.000  0.000  0.000  0.000  0.000  0.000  0.000  0.000  0.000  0.000
tot    0.000  0.000  0.000  0.000  0.005  0.145  0.000  0.146  0.000  0.296
ion          s             py             pz             px             dxy            dyz            dz2            dxz          dx2-y2  
    1 -0.000 -0.000   0.000 -0.000  -0.000  0.000   0.000 -0.000   0.071  0.001  -0.381 -0.007   0.000  0.000  -0.382 -0.007   0.000  0.000   0.296
    2 -0.000 -0.000  -0.000  0.000   0.000 -0.000  -0.000  0.000   0.000  0.000   0.000  0.000   0.000  0.000   0.000  0.000   0.000  0.000   0.000
charge 0.000          0.000          0.000          0.000          0.005          0.145          0.000          0.146          0.000          0.296       
 
band     8 # energy   18.66481983 # occ.  0.00000000
 
ion      s     py     pz     px    dxy    dyz    dz2    dxz  x2-y2    tot
    1  0.000  0.000  0.000  0.000  0.291  0.003  0.000  0.003  0.000  0.296
    2  0.000  0.000  0.000  0.000  0.000  0.000  0.000  0.000  0.000  0.000
tot    0.000  0.000  0.000  0.000  0.291  0.003  0.000  0.003  0.000  0.296
ion          s             py             pz             px             dxy            dyz            dz2            dxz          dx2-y2  
    1  0.000  0.000   0.000  0.000   0.000  0.000   0.000 -0.000   0.540  0.000   0.050  0.000   0.000  0.000   0.050  0.000  -0.000  0.000   0.296
    2  0.000  0.000  -0.000 -0.000  -0.000 -0.000  -0.000  0.000   0.000  0.000   0.000  0.000   0.000  0.000   0.000  0.000   0.000  0.000   0.000
charge 0.000          0.000          0.000          0.000          0.291          0.003          0.000          0.003          0.000          0.296       
 
band     9 # energy   22.51731038 # occ.  0.00000000
 
ion      s     py     pz     px    dxy    dyz    dz2    dxz  x2-y2    tot
    1  0.000  0.000  0.000  0.000  0.000  0.000  0.000  0.000  0.000  0.000
    2  0.000  0.000  0.000  0.000  0.000  0.000  0.000  0.000  0.000  0.000
tot    0.000  0.000  0.000  0.000  0.000  0.000  0.000  0.000  0.000  0.000
ion          s             py             pz             px             dxy            dyz            dz2            dxz          dx2-y2  
    1 -0.000  0.000  -0.000 -0.000  -0.000 -0.000  -0.000 -0.000  -0.000  0.000   0.000  0.000  -0.000 -0.000   0.000  0.000  -0.000  0.000   0.000
    2  0.000 -0.000   0.000  0.000   0.000  0.000   0.000  0.000   0.000  0.000   0.000  0.000   0.000  0.000   0.000  0.000   0.000  0.000   0.000
charge 0.000          0.000          0.000          0.000          0.000          0.000          0.000          0.000          0.000          0.000       
 
band    10 # energy   24.26313358 # occ.  0.00000000
 
ion      s     py     pz     px    dxy    dyz    dz2    dxz  x2-y2    tot
    1  0.000  0.000  0.000  0.000  0.000  0.000  0.000  0.000  0.511  0.511
    2  0.000  0.000  0.000  0.000  0.000  0.000  0.000  0.000  0.000  0.000
tot    0.000  0.000  0.000  0.000  0.000  0.000  0.000  0.000  0.511  0.511
ion          s             py             pz             px             dxy            dyz            dz2            dxz          dx2-y2  
    1 -0.000  0.000   0.000 -0.000  -0.000 -0.000  -0.000 -0.000   0.000 -0.000   0.000 -0.000  -0.013  0.001  -0.000  0.000  -0.713  0.051   0.511
    2  0.000 -0.000   0.000  0.000  -0.000 -0.000  -0.000  0.000   0.000  0.000   0.000  0.000   0.000  0.000   0.000  0.000   0.000  0.000   0.000
charge 0.000          0.000          0.000          0.000          0.000          0.000          0.000          0.000          0.511          0.511       
 
band    11 # energy   24.26313399 # occ.  0.00000000
 
ion      s     py     pz     px    dxy    dyz    dz2    dxz  x2-y2    tot
    1  0.000  0.000  0.000  0.000  0.000  0.000  0.511  0.000  0.000  0.511
    2  0.000  0.000  0.000  0.000  0.000  0.000  0.000  0.000  0.000  0.000
tot    0.000  0.000  0.000  0.000  0.000  0.000  0.511  0.000  0.000  0.511
ion          s             py             pz             px             dxy            dyz            dz2            dxz          dx2-y2  
    1 -0.000 -0.000   0.000  0.000   0.000  0.000   0.000 -0.000  -0.000 -0.000   0.000  0.000   0.569  0.432   0.000  0.000  -0.010 -0.008   0.511
    2  0.000  0.000   0.000  0.000  -0.000  0.000   0.000 -0.000   0.000  0.000   0.000  0.000   0.000  0.000   0.000  0.000   0.000  0.000   0.000
charge 0.000          0.000          0.000          0.000          0.000          0.000          0.511          0.000          0.000          0.511       
 
band    12 # energy   26.78155170 # occ.  0.00000000
 
ion      s     py     pz     px    dxy    dyz    dz2    dxz  x2-y2    tot
    1  0.000  0.166  0.379  0.043  0.000  0.000  0.000  0.000  0.000  0.588
    2  0.000  0.013  0.029  0.003  0.000  0.000  0.000  0.000  0.000  0.045
tot    0.000  0.178  0.408  0.047  0.000  0.000  0.000  0.000  0.000  0.633
ion          s             py             pz             px             dxy            dyz            dz2            dxz          dx2-y2  
    1  0.000  0.000   0.406  0.007  -0.615 -0.011   0.208  0.004   0.000 -0.000  -0.000  0.000   0.000  0.000  -0.000  0.000   0.000  0.000   0.586
    2 -0.000 -0.000   0.109  0.002  -0.166 -0.003   0.056  0.001   0.000  0.000   0.000  0.000   0.000  0.000   0.000  0.000   0.000  0.000   0.043
charge 0.000          0.177          0.406          0.046          0.000          0.000          0.000          0.000          0.000          0.629       
 
band    13 # energy   26.78155172 # occ.  0.00000000
 
ion      s     py     pz     px    dxy    dyz    dz2    dxz  x2-y2    tot
    1  0.000  0.226  0.013  0.349  0.000  0.000  0.000  0.000  0.000  0.588
    2  0.000  0.017  0.001  0.027  0.000  0.000  0.000  0.000  0.000  0.045
tot    0.000  0.244  0.014  0.375  0.000  0.000  0.000  0.000  0.000  0.633
ion          s             py             pz             px             dxy            dyz            dz2            dxz          dx2-y2  
    1  0.000 -0.000  -0.069 -0.470  -0.017 -0.114   0.085  0.583  -0.000 -0.000  -0.000 -0.000  -0.000  0.000   0.000 -0.000   0.000 -0.000   0.586
    2 -0.000  0.000  -0.019 -0.127  -0.004 -0.031   0.023  0.157   0.000  0.000   0.000  0.000   0.000  0.000   0.000  0.000   0.000  0.000   0.043
charge 0.000          0.242          0.014          0.373          0.000          0.000          0.000          0.000          0.000          0.629       
 
band    14 # energy   26.78156811 # occ.  0.00000000
 
ion      s     py     pz     px    dxy    dyz    dz2    dxz  x2-y2    tot
    1  0.000  0.196  0.196  0.196  0.000  0.000  0.000  0.000  0.000  0.588
    2  0.000  0.015  0.015  0.015  0.000  0.000  0.000  0.000  0.000  0.045
tot    0.000  0.211  0.211  0.211  0.000  0.000  0.000  0.000  0.000  0.633
ion          s             py             pz             px             dxy            dyz            dz2            dxz          dx2-y2  
    1  0.000  0.000  -0.129 -0.423  -0.129 -0.423  -0.129 -0.423  -0.000  0.000   0.000 -0.000  -0.000  0.000  -0.000 -0.000   0.000  0.000   0.586
    2 -0.000 -0.000  -0.035 -0.114  -0.035 -0.114  -0.035 -0.114   0.000  0.000   0.000  0.000   0.000  0.000   0.000  0.000   0.000  0.000   0.043
charge 0.000          0.210          0.209          0.210          0.000          0.000          0.000          0.000          0.000          0.629       
 
band    15 # energy   40.78366073 # occ.  0.00000000
 
ion      s     py     pz     px    dxy    dyz    dz2    dxz  x2-y2    tot
    1  0.000  0.000  0.001  0.000  0.000  0.000  0.000  0.000  0.000  0.002
    2  0.000  0.044  0.171  0.042  0.000  0.000  0.000  0.000  0.000  0.257
tot    0.000  0.044  0.172  0.042  0.000  0.000  0.000  0.000  0.000  0.258
ion          s             py             pz             px             dxy            dyz            dz2            dxz          dx2-y2  
    1  0.000  0.000   0.015  0.006  -0.029 -0.013   0.014  0.006   0.000 -0.000   0.000  0.000   0.000  0.000  -0.000  0.000   0.000 -0.000   0.002
    2 -0.000  0.000   0.165  0.071  -0.326 -0.140   0.161  0.069   0.000  0.000   0.000  0.000   0.000  0.000   0.000  0.000   0.000  0.000   0.188
charge 0.000          0.032          0.127          0.031          0.000          0.000          0.000          0.000          0.000          0.190       
 
band    16 # energy   40.78366073 # occ.  0.00000000
 
ion      s     py     pz     px    dxy    dyz    dz2    dxz  x2-y2    tot
    1  0.000  0.001  0.000  0.001  0.000  0.000  0.000  0.000  0.000  0.002
    2  0.000  0.127  0.000  0.129  0.000  0.000  0.000  0.000  0.000  0.257
tot    0.000  0.128  0.000  0.130  0.000  0.000  0.000  0.000  0.000  0.258
ion          s             py             pz             px             dxy            dyz            dz2            dxz          dx2-y2  
    1 -0.000  0.000   0.022  0.016   0.000  0.000  -0.022 -0.016  -0.000  0.000   0.000  0.000  -0.000 -0.000  -0.000  0.000   0.000  0.000   0.002
    2  0.000  0.000   0.247  0.180   0.002  0.001  -0.249 -0.181   0.000  0.000   0.000  0.000   0.000  0.000   0.000  0.000   0.000  0.000   0.188
charge 0.000          0.094          0.000          0.096          0.000          0.000          0.000          0.000          0.000          0.190       
 
band    17 # energy   40.78382074 # occ.  0.00000000
 
ion      s     py     pz     px    dxy    dyz    dz2    dxz  x2-y2    tot
    1  0.000  0.001  0.001  0.001  0.000  0.000  0.000  0.000  0.000  0.002
    2  0.000  0.086  0.086  0.086  0.000  0.000  0.000  0.000  0.000  0.257
tot    0.000  0.086  0.086  0.086  0.000  0.000  0.000  0.000  0.000  0.258
ion          s             py             pz             px             dxy            dyz            dz2            dxz          dx2-y2  
    1 -0.000 -0.000   0.009  0.021   0.009  0.021   0.009  0.021  -0.000 -0.000  -0.000  0.000   0.000 -0.000   0.000  0.000  -0.000 -0.000   0.002
    2  0.000  0.000   0.098  0.230   0.098  0.230   0.098  0.230   0.000  0.000   0.000  0.000   0.000  0.000   0.000  0.000   0.000  0.000   0.188
charge 0.000          0.063          0.063          0.063          0.000          0.000          0.000          0.000          0.000          0.190       
 
band    18 # energy   41.18838235 # occ.  0.00000000
 
ion      s     py     pz     px    dxy    dyz    dz2    dxz  x2-y2    tot
    1  0.479  0.000  0.000  0.000  0.000  0.000  0.000  0.000  0.000  0.479
    2  0.000  0.000  0.000  0.000  0.000  0.000  0.000  0.000  0.000  0.000
tot    0.479  0.000  0.000  0.000  0.000  0.000  0.000  0.000  0.000  0.479
ion          s             py             pz             px             dxy            dyz            dz2            dxz          dx2-y2  
    1  0.688  0.001  -0.000  0.000   0.000 -0.000   0.000  0.000   0.000  0.000   0.000  0.000   0.000  0.000   0.000  0.000  -0.000  0.000   0.473
    2 -0.004 -0.000   0.000 -0.000  -0.000  0.000  -0.000 -0.000   0.000  0.000   0.000  0.000   0.000  0.000   0.000  0.000   0.000  0.000   0.000
charge 0.473          0.000          0.000          0.000          0.000          0.000          0.000          0.000          0.000          0.473       
 

 k-point     2 :    0.14285714 0.00000000 0.00000000     weight = 0.02332362

band     1 # energy  -13.93229482 # occ.  2.00000000
 
ion      s     py     pz     px    dxy    dyz    dz2    dxz  x2-y2    tot
    1  0.035  0.001  0.001  0.001  0.000  0.000  0.000  0.000  0.000  0.038
    2  0.684  0.000  0.000  0.000  0.000  0.000  0.000  0.000  0.000  0.684
tot    0.719  0.001  0.001  0.001  0.000  0.000  0.000  0.000  0.000  0.723
ion          s             py             pz             px             dxy            dyz            dz2            dxz          dx2-y2  
    1  0.150  0.095  -0.017  0.026  -0.017  0.026   0.017 -0.026   0.001  0.000  -0.001 -0.000   0.000  0.000   0.001  0.000  -0.000 -0.000   0.035
    2  0.689  0.437  -0.006  0.010  -0.006  0.010   0.006 -0.010   0.000  0.000   0.000  0.000   0.000  0.000   0.000  0.000   0.000  0.000   0.666
charge 0.697          0.001          0.001          0.001          0.000          0.000          0.000          0.000          0.000          0.700       
 
band     2 # energy    1.83083145 # occ.  2.00000000
 
ion      s     py     pz     px    dxy    dyz    dz2    dxz  x2-y2    tot
    1  0.044  0.003  0.003  0.003  0.001  0.001  0.000  0.001  0.000  0.056
    2  0.034  0.199  0.199  0.199  0.000  0.000  0.000  0.000  0.000  0.631
tot    0.078  0.202  0.202  0.202  0.001  0.001  0.000  0.001  0.000  0.687
ion          s             py             pz             px             dxy            dyz            dz2            dxz          dx2-y2  
    1  0.171  0.108   0.029 -0.046   0.029 -0.046  -0.029  0.046   0.025  0.016  -0.025 -0.016  -0.000 -0.000   0.025  0.016   0.000  0.000   0.053
    2 -0.156 -0.098  -0.232  0.368  -0.232  0.368   0.232 -0.368   0.000  0.000   0.000  0.000   0.000  0.000   0.000  0.000   0.000  0.000   0.602
charge 0.075          0.192          0.192          0.192          0.001          0.001          0.000          0.001          0.000          0.654       
 
band     3 # energy    2.87844666 # occ.  2.00000000
 
ion      s     py     pz     px    dxy    dyz    dz2    dxz  x2-y2    tot
    1  0.000  0.007  0.007  0.000  0.000  0.000  0.004  0.000  0.001  0.019
    2  0.000  0.369  0.369  0.000  0.000  0.000  0.000  0.000  0.000  0.737
tot    0.000  0.375  0.375  0.000  0.000  0.000  0.004  0.000  0.001  0.757
ion          s             py             pz             px             dxy            dyz            dz2            dxz          dx2-y2  
    1 -0.000  0.000   0.073  0.034  -0.073 -0.034   0.000  0.000  -0.008  0.017   0.000 -0.000   0.027 -0.058   0.008 -0.017   0.015 -0.034   0.019
    2  0.000  0.000  -0.540 -0.249   0.539  0.249  -0.000 -0.000   0.000  0.000   0.000  0.000   0.000  0.000   0.000  0.000   0.000  0.000   0.706
charge 0.000          0.360          0.359          0.000          0.000          0.000          0.004          0.000          0.001          0.725       
 
band     4 # energy    2.87845170 # occ.  2.00000000
 
ion      s     py     pz     px    dxy    dyz    dz2    dxz  x2-y2    tot
    1  0.000  0.002  0.002  0.009  0.000  0.000  0.001  0.000  0.004  0.019
    2  0.000  0.123  0.123  0.492  0.000  0.000  0.000  0.000  0.000  0.737
tot    0.000  0.125  0.125  0.500  0.000  0.000  0.001  0.000  0.004  0.757
ion          s             py             pz             px             dxy            dyz            dz2            dxz          dx2-y2  
    1  0.000  0.000   0.021 -0.041   0.021 -0.041   0.042 -0.083  -0.010 -0.005  -0.020 -0.010   0.033  0.017  -0.010 -0.005  -0.057 -0.029   0.019
    2 -0.000 -0.000  -0.155  0.306  -0.155  0.306  -0.309  0.612   0.000  0.000   0.000  0.000   0.000  0.000   0.000  0.000   0.000  0.000   0.706
charge 0.000          0.120          0.120          0.479          0.000          0.000          0.001          0.000          0.004          0.725       
 
band     5 # energy    8.62862727 # occ.  0.00000000
 
ion      s     py     pz     px    dxy    dyz    dz2    dxz  x2-y2    tot
    1  0.186  0.008  0.008  0.008  0.000  0.000  0.000  0.000  0.000  0.210
    2  0.200  0.042  0.042  0.042  0.000  0.000  0.000  0.000  0.000  0.325
tot    0.386  0.050  0.050  0.050  0.000  0.000  0.000  0.000  0.000  0.535
ion          s             py             pz             px             dxy            dyz            dz2            dxz          dx2-y2  
    1  0.354  0.225  -0.046  0.073  -0.046  0.073   0.046 -0.073  -0.012 -0.008   0.012  0.008  -0.000 -0.000  -0.012 -0.008   0.000  0.000   0.199
    2 -0.372 -0.237   0.109 -0.171   0.109 -0.171  -0.109  0.171   0.000  0.000   0.000  0.000   0.000  0.000   0.000  0.000   0.000  0.000   0.318
charge 0.370          0.049          0.049          0.049          0.000          0.000          0.000          0.000          0.000          0.517       
 
band     6 # energy   16.70145000 # occ.  0.00000000
 
ion      s     py     pz     px    dxy    dyz    dz2    dxz  x2-y2    tot
    1  0.005  0.010  0.010  0.010  0.057  0.057  0.000  0.057  0.000  0.205
    2  0.000  0.016  0.016  0.016  0.000  0.000  0.000  0.000  0.000  0.048
tot    0.005  0.026  0.026  0.026  0.057  0.057  0.000  0.057  0.000  0.253
ion          s             py             pz             px             dxy            dyz            dz2            dxz          dx2-y2  
    1  0.056  0.035   0.054 -0.085   0.054 -0.085  -0.054  0.085   0.201  0.127  -0.201 -0.127   0.000  0.000   0.201  0.127  -0.000 -0.000   0.205
    2  0.002  0.001   0.068 -0.107   0.068 -0.107  -0.068  0.107   0.000  0.000   0.000  0.000   0.000  0.000   0.000  0.000   0.000  0.000   0.048
charge 0.004          0.026          0.026          0.026          0.057          0.057          0.000          0.057          0.000          0.253       
 
band     7 # energy   19.09509738 # occ.  0.00000000
 
ion      s     py     pz     px    dxy    dyz    dz2    dxz  x2-y2    tot
    1  0.000  0.015  0.014  0.000  0.129  0.000  0.002  0.136  0.001  0.297
    2  0.000  0.006  0.006  0.000  0.000  0.000  0.000  0.000  0.000  0.012
tot    0.000  0.021  0.020  0.000  0.129  0.000  0.002  0.136  0.001  0.309
ion          s             py             pz             px             dxy            dyz            dz2            dxz          dx2-y2  
    1  0.000  0.000  -0.007  0.122   0.007 -0.119  -0.000  0.003  -0.359 -0.021   0.010  0.001  -0.039 -0.002   0.369  0.021  -0.024 -0.001   0.297
    2  0.000  0.000  -0.005  0.079   0.004 -0.077  -0.000  0.002   0.000  0.000   0.000  0.000   0.000  0.000   0.000  0.000   0.000  0.000   0.012
charge 0.000          0.021          0.020          0.000          0.129          0.000          0.002          0.136          0.001          0.309       
 
band     8 # energy   19.09510037 # occ.  0.00000000
 
ion      s     py     pz     px    dxy    dyz    dz2    dxz  x2-y2    tot
    1  0.000  0.005  0.005  0.020  0.048  0.177  0.001  0.041  0.002  0.297
    2  0.000  0.002  0.002  0.008  0.000  0.000  0.000  0.000  0.000  0.012
tot    0.000  0.006  0.008  0.028  0.048  0.177  0.001  0.041  0.002  0.309
ion          s             py             pz             px             dxy            dyz            dz2            dxz          dx2-y2  
    1  0.000  0.000  -0.035  0.057  -0.038  0.062  -0.072  0.119   0.187  0.113   0.360  0.218   0.020  0.012   0.173  0.104  -0.033 -0.020   0.297
    2  0.000  0.000  -0.022  0.037  -0.024  0.040  -0.046  0.077   0.000  0.000   0.000  0.000   0.000  0.000   0.000  0.000   0.000  0.000   0.012
charge 0.000          0.006          0.007          0.028          0.048          0.177          0.001          0.041          0.002          0.309       
 
band     9 # energy   23.10048055 # occ.  0.00000000
 
ion      s     py     pz     px    dxy    dyz    dz2    dxz  x2-y2    tot
    1  0.000  0.120  0.005  0.077  0.001  0.010  0.009  0.016  0.246  0.483
    2  0.000  0.000  0.000  0.000  0.000  0.000  0.000  0.000  0.000  0.001
tot    0.000  0.121  0.005  0.077  0.001  0.010  0.009  0.016  0.246  0.484
ion          s             py             pz             px             dxy            dyz            dz2            dxz          dx2-y2  
    1 -0.000 -0.000   0.199 -0.282  -0.040  0.056   0.159 -0.226  -0.020 -0.014   0.082  0.058   0.078  0.055   0.102  0.072   0.406  0.285   0.482
    2  0.000  0.000  -0.011  0.016   0.002 -0.003  -0.009  0.013   0.000  0.000   0.000  0.000   0.000  0.000   0.000  0.000   0.000  0.000   0.001
charge 0.000          0.120          0.005          0.077          0.001          0.010          0.009          0.016          0.246          0.482       
 
band    10 # energy   23.10048075 # occ.  0.00000000
 
ion      s     py     pz     px    dxy    dyz    dz2    dxz  x2-y2    tot
    1  0.000  0.014  0.130  0.058  0.017  0.007  0.246  0.002  0.009  0.483
    2  0.000  0.000  0.000  0.000  0.000  0.000  0.000  0.000  0.000  0.001
tot    0.000  0.015  0.130  0.058  0.017  0.007  0.246  0.002  0.009  0.484
ion          s             py             pz             px             dxy            dyz            dz2            dxz          dx2-y2  
    1  0.000  0.000   0.060 -0.104  -0.179  0.311  -0.119  0.207  -0.113 -0.065  -0.075 -0.043   0.430  0.247   0.038  0.022  -0.082 -0.047   0.482
    2 -0.000 -0.000  -0.003  0.006   0.010 -0.018   0.007 -0.012   0.000  0.000   0.000  0.000   0.000  0.000   0.000  0.000   0.000  0.000   0.001
charge 0.000          0.014          0.129          0.057          0.017          0.007          0.246          0.002          0.009          0.482       
 
band    11 # energy   24.80826852 # occ.  0.00000000
 
ion      s     py     pz     px    dxy    dyz    dz2    dxz  x2-y2    tot
    1  0.033  0.063  0.063  0.063  0.001  0.001  0.000  0.001  0.000  0.223
    2  0.001  0.009  0.009  0.009  0.000  0.000  0.000  0.000  0.000  0.029
tot    0.033  0.072  0.072  0.072  0.001  0.001  0.000  0.001  0.000  0.252
ion          s             py             pz             px             dxy            dyz            dz2            dxz          dx2-y2  
    1 -0.152 -0.096  -0.133  0.211  -0.133  0.211   0.133 -0.211  -0.026 -0.016   0.026  0.016   0.000  0.000  -0.026 -0.016  -0.000 -0.000   0.222
    2 -0.020 -0.013  -0.051  0.080  -0.051  0.080   0.051 -0.080   0.000  0.000   0.000  0.000   0.000  0.000   0.000  0.000   0.000  0.000   0.027
charge 0.033          0.071          0.071          0.071          0.001          0.001          0.000          0.001          0.000          0.249       
 
band    12 # energy   27.30399544 # occ.  0.00000000
 
ion      s     py     pz     px    dxy    dyz    dz2    dxz  x2-y2    tot
    1  0.061  0.079  0.079  0.079  0.058  0.058  0.000  0.058  0.000  0.474
    2  0.000  0.002  0.002  0.002  0.000  0.000  0.000  0.000  0.000  0.007
tot    0.062  0.082  0.082  0.082  0.058  0.058  0.000  0.058  0.000  0.481
ion          s             py             pz             px             dxy            dyz            dz2            dxz          dx2-y2  
    1  0.241  0.053   0.060 -0.275   0.060 -0.275  -0.060  0.275  -0.236 -0.052   0.236  0.052  -0.000 -0.000  -0.236 -0.052   0.000  0.000   0.473
    2  0.017  0.004   0.010 -0.045   0.010 -0.045  -0.010  0.045   0.000  0.000   0.000  0.000   0.000  0.000   0.000  0.000   0.000  0.000   0.007
charge 0.061          0.081          0.081          0.081          0.058          0.058          0.000          0.058          0.000          0.479       
 
band    13 # energy   28.81807671 # occ.  0.00000000
 
ion      s     py     pz     px    dxy    dyz    dz2    dxz  x2-y2    tot
    1  0.000  0.173  0.171  0.000  0.010  0.000  0.213  0.010  0.073  0.650
    2  0.000  0.033  0.033  0.000  0.000  0.000  0.000  0.000  0.000  0.066
tot    0.000  0.206  0.203  0.000  0.010  0.000  0.213  0.010  0.073  0.716
ion          s             py             pz             px             dxy            dyz            dz2            dxz          dx2-y2  
    1 -0.000  0.000   0.063  0.410  -0.062 -0.408   0.000  0.002   0.100 -0.015  -0.001  0.000   0.456 -0.070  -0.101  0.015   0.267 -0.041   0.649
    2 -0.000  0.000   0.026  0.173  -0.026 -0.172   0.000  0.001   0.000  0.000   0.000  0.000   0.000  0.000   0.000  0.000   0.000  0.000   0.061
charge 0.000          0.203          0.201          0.000          0.010          0.000          0.213          0.010          0.073          0.710       
 
band    14 # energy   28.81809707 # occ.  0.00000000
 
ion      s     py     pz     px    dxy    dyz    dz2    dxz  x2-y2    tot
    1  0.000  0.056  0.058  0.229  0.004  0.014  0.073  0.003  0.213  0.650
    2  0.000  0.011  0.011  0.044  0.000  0.000  0.000  0.000  0.000  0.066