<?xml version="1.0" encoding="ISO-8859-1"?>
<modeling>
 <generator>
  <i name="program" type="string">vasp </i>
  <i name="version" type="string">5.4.4.18Apr17-6-g9f103f2a35  </i>
  <i name="subversion" type="string">(build Apr 25 2017 10:43:04) complex            parallel </i>
  <i name="platform" type="string">LinuxIFC </i>
  <i name="date" type="string">2019 10 28 </i>
  <i name="time" type="string">21:34:28 </i>
 </generator>
 <incar>
  <i type="string" name="PREC">n</i>
  <i type="string" name="ALGO">  N</i>
  <i type="int" name="ISPIN">     1</i>
  <i type="int" name="NELM">   100</i>
  <i type="int" name="IBRION">     2</i>
  <i name="EDIFF">      0.00000010</i>
  <i name="EDIFFG">     -0.00500000</i>
  <i type="int" name="NSW">    50</i>
  <i type="int" name="ISIF">     3</i>
  <i name="ENCUT">    520.00000000</i>
  <i type="logical" name="LREAL"> F  </i>
  <i type="int" name="ISMEAR">     0</i>
  <i name="SIGMA">      0.10000000</i>
  <i type="logical" name="LWAVE"> F  </i>
  <i type="logical" name="LCHARG"> F  </i>
  <i type="int" name="LORBIT">    12</i>
  <i type="logical" name="LASPH"> T  </i>
  <v type="int" name="KPOINT_BSE">    -1     0     0     0</v>
  <i type="int" name="NELM">   100</i>
  <i type="logical" name="LASPH"> T  </i>
 </incar>
 <structure name="primitive_cell" >
  <crystal>
   <varray name="basis" >
    <v>       0.00000000       2.12337500       2.12337500 </v>
    <v>       2.12337500       0.00000000       2.12337500 </v>
    <v>       2.12337500       2.12337500       0.00000000 </v>
   </varray>
   <i name="volume">     19.14741257 </i>
   <varray name="rec_basis" >
    <v>      -0.23547419       0.23547419       0.23547419 </v>
    <v>       0.23547419      -0.23547419       0.23547419 </v>
    <v>       0.23547419       0.23547419      -0.23547419 </v>
   </varray>
  </crystal>
  <varray name="positions" >
   <v>       0.00000000       0.00000000       0.00000000 </v>
   <v>      -0.50000000      -0.50000000      -0.50000000 </v>
  </varray>
 </structure>
 <varray name="primitive_index" >
  <v type="int" >        1 </v>
  <v type="int" >        2 </v>
 </varray>
 <kpoints>
  <generation param="Gamma">
   <v type="int" name="divisions">       7        7        7 </v>
   <v name="usershift">      0.00000000       0.00000000       0.00000000 </v>
   <v name="genvec1">      0.14285714       0.00000000       0.00000000 </v>
   <v name="genvec2">      0.00000000       0.14285714       0.00000000 </v>
   <v name="genvec3">      0.00000000       0.00000000       0.14285714 </v>
   <v name="shift">      0.00000000       0.00000000       0.00000000 </v>
  </generation>
  <varray name="kpointlist" >
   <v>       0.00000000       0.00000000       0.00000000 </v>
   <v>       0.14285714       0.00000000       0.00000000 </v>
   <v>       0.28571429       0.00000000       0.00000000 </v>
   <v>       0.42857143       0.00000000       0.00000000 </v>
   <v>       0.14285714       0.14285714       0.00000000 </v>
   <v>       0.28571429       0.14285714       0.00000000 </v>
   <v>       0.42857143       0.14285714       0.00000000 </v>
   <v>      -0.42857143       0.14285714       0.00000000 </v>
   <v>      -0.28571429       0.14285714       0.00000000 </v>
   <v>      -0.14285714       0.14285714       0.00000000 </v>
   <v>       0.28571429       0.28571429       0.00000000 </v>
   <v>       0.42857143       0.28571429       0.00000000 </v>
   <v>      -0.42857143       0.28571429       0.00000000 </v>
   <v>      -0.28571429       0.28571429       0.00000000 </v>
   <v>       0.42857143       0.42857143       0.00000000 </v>
   <v>      -0.42857143       0.42857143       0.00000000 </v>
   <v>       0.42857143       0.28571429       0.14285714 </v>
   <v>      -0.42857143       0.28571429       0.14285714 </v>
   <v>      -0.42857143       0.42857143       0.14285714 </v>
   <v>      -0.28571429       0.42857143       0.14285714 </v>
  </varray>
  <varray name="weights" >
   <v>       0.00291545 </v>
   <v>       0.02332362 </v>
   <v>       0.02332362 </v>
   <v>       0.02332362 </v>
   <v>       0.01749271 </v>
   <v>       0.06997085 </v>
   <v>       0.06997085 </v>
   <v>       0.06997085 </v>
   <v>       0.06997085 </v>
   <v>       0.03498542 </v>
   <v>       0.01749271 </v>
   <v>       0.06997085 </v>
   <v>       0.06997085 </v>
   <v>       0.03498542 </v>
   <v>       0.01749271 </v>
   <v>       0.03498542 </v>
   <v>       0.06997085 </v>
   <v>       0.13994169 </v>
   <v>       0.06997085 </v>
   <v>       0.06997085 </v>
  </varray>
 </kpoints>
 <parameters>
  <separator name="general" >
   <i type="string" name="SYSTEM">unknown system</i>
   <i type="logical" name="LCOMPAT"> F  </i>
  </separator>
  <separator name="electronic" >
   <i type="string" name="PREC">n</i>
   <i name="ENMAX">    520.00000000</i>
   <i name="ENAUG">    605.39200000</i>
   <i name="EDIFF">      0.00000010</i>
   <i type="int" name="IALGO">    38</i>
   <i type="int" name="IWAVPR">    11</i>
   <i type="int" name="NBANDS">    18</i>
   <i name="NELECT">      8.00000000</i>
   <i type="int" name="TURBO">     0</i>
   <i type="int" name="IRESTART">     0</i>
   <i type="int" name="NREBOOT">     0</i>
   <i type="int" name="NMIN">     0</i>
   <i name="EREF">      0.00000000</i>
   <separator name="electronic smearing" >
    <i type="int" name="ISMEAR">     0</i>
    <i name="SIGMA">      0.10000000</i>
    <i name="KSPACING">      0.50000000</i>
    <i type="logical" name="KGAMMA"> T  </i>
   </separator>
   <separator name="electronic projectors" >
    <i type="logical" name="LREAL"> F  </i>
    <v name="ROPT">      0.00000000      0.00000000</v>
    <i type="int" name="LMAXPAW">  -100</i>
    <i type="int" name="LMAXMIX">     2</i>
    <i type="logical" name="NLSPLINE"> F  </i>
   </separator>
   <separator name="electronic startup" >
    <i type="int" name="ISTART">     0</i>
    <i type="int" name="ICHARG">     2</i>
    <i type="int" name="INIWAV">     1</i>
   </separator>
   <separator name="electronic spin" >
    <i type="int" name="ISPIN">     1</i>
    <i type="logical" name="LNONCOLLINEAR"> F  </i>
    <v name="MAGMOM">      1.00000000      1.00000000</v>
    <i name="NUPDOWN">     -1.00000000</i>
    <i type="logical" name="LSORBIT"> F  </i>
    <v name="SAXIS">      0.00000000      0.00000000      1.00000000</v>
    <i type="logical" name="LSPIRAL"> F  </i>
    <v name="QSPIRAL">      0.00000000      0.00000000      0.00000000</v>
    <i type="logical" name="LZEROZ"> F  </i>
   </separator>
   <separator name="electronic exchange-correlation" >
    <i type="logical" name="LASPH"> T  </i>
    <i type="logical" name="LMETAGGA"> F  </i>
   </separator>
   <separator name="electronic convergence" >
    <i type="int" name="NELM">   100</i>
    <i type="int" name="NELMDL">    -5</i>
    <i type="int" name="NELMIN">     2</i>
    <i name="ENINI">    520.00000000</i>
    <separator name="electronic convergence detail" >
     <i type="logical" name="LDIAG"> T  </i>
     <i type="logical" name="LSUBROT"> F  </i>
     <i name="WEIMIN">      0.00100000</i>
     <i name="EBREAK">      0.00000000</i>
     <i name="DEPER">      0.30000000</i>
     <i type="int" name="NRMM">     4</i>
     <i name="TIME">      0.40000000</i>
    </separator>
   </separator>
   <separator name="electronic mixer" >
    <i name="AMIX">      0.40000000</i>
    <i name="BMIX">      1.00000000</i>
    <i name="AMIN">      0.10000000</i>
    <i name="AMIX_MAG">      1.60000000</i>
    <i name="BMIX_MAG">      1.00000000</i>
    <separator name="electronic mixer details" >
     <i type="int" name="IMIX">     4</i>
     <i type="logical" name="MIXFIRST"> F  </i>
     <i type="int" name="MAXMIX">   -45</i>
     <i name="WC">    100.00000000</i>
     <i type="int" name="INIMIX">     1</i>
     <i type="int" name="MIXPRE">     1</i>
     <i type="int" name="MREMOVE">     5</i>
    </separator>
   </separator>
   <separator name="electronic dipolcorrection" >
    <i type="logical" name="LDIPOL"> F  </i>
    <i type="logical" name="LMONO"> F  </i>
    <i type="int" name="IDIPOL">     0</i>
    <i name="EPSILON">      1.00000000</i>
    <v name="DIPOL">   -100.00000000   -100.00000000   -100.00000000</v>
    <i name="EFIELD">      0.00000000</i>
   </separator>
  </separator>
  <separator name="grids" >
   <i type="int" name="NGX">    18</i>
   <i type="int" name="NGY">    18</i>
   <i type="int" name="NGZ">    18</i>
   <i type="int" name="NGXF">    36</i>
   <i type="int" name="NGYF">    36</i>
   <i type="int" name="NGZF">    36</i>
   <i type="logical" name="ADDGRID"> F  </i>
  </separator>
  <separator name="ionic" >
   <i type="int" name="NSW">    50</i>
   <i type="int" name="IBRION">     2</i>
   <i type="int" name="MDALGO">     0</i>
   <i type="int" name="ISIF">     3</i>
   <i name="PSTRESS">      0.00000000</i>
   <i name="EDIFFG">     -0.00500000</i>
   <i type="int" name="NFREE">     1</i>
   <i name="POTIM">      0.50000000</i>
   <i name="SMASS">     -3.00000000</i>
   <i name="SCALEE">      1.00000000</i>
  </separator>
  <separator name="ionic md" >
   <i name="TEBEG">      0.00010000</i>
   <i name="TEEND">      0.00010000</i>
   <i type="int" name="NBLOCK">     1</i>
   <i type="int" name="KBLOCK">    50</i>
   <i type="int" name="NPACO">   256</i>
   <i name="APACO">     16.00000000</i>
  </separator>
  <separator name="symmetry" >
   <i type="int" name="ISYM">     2</i>
   <i name="SYMPREC">      0.00001000</i>
  </separator>
  <separator name="dos" >
   <i type="int" name="LORBIT">    12</i>
   <v name="RWIGS">     -1.00000000     -1.00000000</v>
   <i type="int" name="NEDOS">   301</i>
   <i name="EMIN">     10.00000000</i>
   <i name="EMAX">    -10.00000000</i>
   <i name="EFERMI">      0.00000000</i>
  </separator>
  <separator name="writing" >
   <i type="int" name="NWRITE">     2</i>
   <i type="logical" name="LWAVE"> F  </i>
   <i type="logical" name="LDOWNSAMPLE"> F  </i>
   <i type="logical" name="LCHARG"> F  </i>
   <i type="logical" name="LPARD"> F  </i>
   <i type="logical" name="LVTOT"> F  </i>
   <i type="logical" name="LVHAR"> F  </i>
   <i type="logical" name="LELF"> F  </i>
   <i type="logical" name="LOPTICS"> F  </i>
   <v name="STM">      0.00000000      0.00000000      0.00000000      0.00000000      0.00000000      0.00000000      0.00000000</v>
  </separator>
  <separator name="performance" >
   <i type="int" name="NPAR">    18</i>
   <i type="int" name="NSIM">     4</i>
   <i type="int" name="NBLK">    -1</i>
   <i type="logical" name="LPLANE"> T  </i>
   <i type="logical" name="LSCALAPACK"> T  </i>
   <i type="logical" name="LSCAAWARE"> F  </i>
   <i type="logical" name="LSCALU"> F  </i>
   <i type="logical" name="LASYNC"> F  </i>
   <i type="logical" name="LORBITALREAL"> F  </i>
  </separator>
  <separator name="miscellaneous" >
   <i type="int" name="IDIOT">     3</i>
   <i type="int" name="ISPECIAL">     0</i>
   <i type="logical" name="LMUSIC"> F  </i>
   <v name="POMASS">     24.30500000     16.00000000</v>
   <v name="DARWINR">      0.00000000      0.00000000</v>
   <v name="DARWINV">      1.00000000      1.00000000</v>
   <i type="logical" name="LCORR"> T  </i>
  </separator>
  <i type="logical" name="GGA_COMPAT"> T  </i>
  <i type="logical" name="LBERRY"> F  </i>
  <i type="int" name="ICORELEVEL">     0</i>
  <i type="logical" name="LDAU"> F  </i>
  <i type="int" name="I_CONSTRAINED_M">     0</i>
  <separator name="electronic exchange-correlation" >
   <i type="string" name="GGA">--</i>
   <i type="int" name="VOSKOWN">     0</i>
   <i type="logical" name="LHFCALC"> F  </i>
   <i type="string" name="PRECFOCK"></i>
   <i type="logical" name="LSYMGRAD"> F  </i>
   <i type="logical" name="LHFONE"> F  </i>
   <i type="logical" name="LRHFCALC"> F  </i>
   <i type="logical" name="LTHOMAS"> F  </i>
   <i type="logical" name="LMODELHF"> F  </i>
   <i name="ENCUT4O">     -1.00000000</i>
   <i type="int" name="EXXOEP">     0</i>
   <i type="int" name="FOURORBIT">     0</i>
   <i name="AEXX">      0.00000000</i>
   <i name="HFALPHA">      0.00000000</i>
   <i name="MCALPHA">      0.00000000</i>
   <i name="ALDAX">      1.00000000</i>
   <i name="AGGAX">      1.00000000</i>
   <i name="ALDAC">      1.00000000</i>
   <i name="AGGAC">      1.00000000</i>
   <i type="int" name="NKREDX">     1</i>
   <i type="int" name="NKREDY">     1</i>
   <i type="int" name="NKREDZ">     1</i>
   <i type="logical" name="SHIFTRED"> F  </i>
   <i type="logical" name="ODDONLY"> F  </i>
   <i type="logical" name="EVENONLY"> F  </i>
   <i type="int" name="LMAXFOCK">     0</i>
   <i type="int" name="NMAXFOCKAE">     0</i>
   <i type="logical" name="LFOCKAEDFT"> F  </i>
   <i name="HFSCREEN">      0.00000000</i>
   <i name="HFSCREENC">      0.00000000</i>
   <i type="int" name="NBANDSGWLOW">     0</i>
  </separator>
  <separator name="vdW DFT" >
   <i type="logical" name="LUSE_VDW"> F  </i>
   <i name="Zab_VDW">     -0.84910000</i>
   <i name="PARAM1">      0.12340000</i>
   <i name="PARAM2">      1.00000000</i>
   <i name="PARAM3">      0.00000000</i>
  </separator>
  <separator name="model GW" >
   <i type="int" name="MODEL_GW">     0</i>
   <i name="MODEL_EPS0">      5.74422377</i>
   <i name="MODEL_ALPHA">      1.00000000</i>
  </separator>
  <separator name="linear response parameters" >
   <i type="logical" name="LEPSILON"> F  </i>
   <i type="logical" name="LRPA"> F  </i>
   <i type="logical" name="LNABLA"> F  </i>
   <i type="logical" name="LVEL"> F  </i>
   <i type="int" name="KINTER">     0</i>
   <i name="CSHIFT">      0.10000000</i>
   <i name="OMEGAMAX">     -1.00000000</i>
   <i name="DEG_THRESHOLD">      0.00200000</i>
   <i name="RTIME">     -0.10000000</i>
   <i name="WPLASMAI">      0.00000000</i>
   <v name="DFIELD">      0.00000000      0.00000000      0.00000000</v>
   <v name="WPLASMA">      0.00000000      0.00000000      0.00000000      0.00000000      0.00000000      0.00000000      0.00000000      0.00000000      0.00000000</v>
  </separator>
  <separator name="orbital magnetization" >
   <i type="logical" name="NUCIND"> F  </i>
   <v name="MAGPOS">      0.00000000      0.00000000      0.00000000</v>
   <i type="logical" name="LNICSALL"> T  </i>
   <i type="logical" name="ORBITALMAG"> F  </i>
   <i type="logical" name="LMAGBLOCH"> F  </i>
   <i type="logical" name="LCHIMAG"> F  </i>
   <i type="logical" name="LGAUGE"> T  </i>
   <i type="int" name="MAGATOM">     0</i>
   <v name="MAGDIPOL">      0.00000000      0.00000000      0.00000000</v>
   <v name="AVECCONST">      0.00000000      0.00000000      0.00000000</v>
  </separator>
  <separator name="response functions" >
   <i type="logical" name="LADDER"> F  </i>
   <i type="logical" name="LRPAFORCE"> F  </i>
   <i type="logical" name="LFXC"> F  </i>
   <i type="logical" name="LHARTREE"> T  </i>
   <i type="int" name="IBSE">     0</i>
   <v type="int" name="KPOINT">    -1     0     0     0</v>
   <i type="logical" name="LTCTE"> F  </i>
   <i type="logical" name="LTETE"> F  </i>
   <i type="logical" name="LTRIPLET"> F  </i>
   <i type="logical" name="LFXCEPS"> F  </i>
   <i type="logical" name="LFXHEG"> F  </i>
   <i type="int" name="NATURALO">     2</i>
   <i type="logical" name="L2ORDER"> F  </i>
   <i type="logical" name="LMP2LT"> F  </i>
   <i type="logical" name="LUSEW"> F  </i>
   <i name="ENCUTGW">     -2.00000000</i>
   <i name="ENCUTGWSOFT">     -2.00000000</i>
   <i name="ENCUTLF">     -1.00000000</i>
   <i type="int" name="LMAXMP2">    -1</i>
   <i name="SCISSOR">      0.00000000</i>
   <i type="int" name="NOMEGA">     0</i>
   <i type="int" name="NOMEGAR">     0</i>
   <i type="int" name="NBANDSGW">    -1</i>
   <i type="int" name="NBANDSO">    -1</i>
   <i type="int" name="NBANDSV">    -1</i>
   <i type="int" name="NELM">   100</i>
   <i type="int" name="NELMHF">     1</i>
   <i type="int" name="DIM">     3</i>
   <i type="int" name="ANTIRES">     0</i>
   <i name="OMEGAMAX">    -30.00000000</i>
   <i name="OMEGAMIN">    -30.00000000</i>
   <i name="OMEGATL">   -200.00000000</i>
   <i type="int" name="OMEGAGRID">   140</i>
   <i name="CSHIFT">     -0.10000000</i>
   <i type="logical" name="SELFENERGY"> F  </i>
   <i type="logical" name="LSPECTRAL"> F  </i>
   <i type="logical" name="LSPECTRALGW"> F  </i>
   <i type="logical" name="LSINGLES"> F  </i>
   <i type="logical" name="LFERMIGW"> F  </i>
   <i type="logical" name="ODDONLYGW"> F  </i>
   <i type="logical" name="EVENONLYGW"> F  </i>
   <i type="int" name="NKREDLFX">     1</i>
   <i type="int" name="NKREDLFY">     1</i>
   <i type="int" name="NKREDLFZ">     1</i>
   <i type="int" name="MAXMEM">  2800</i>
   <i type="int" name="TELESCOPE">     0</i>
   <i type="int" name="TAUPAR">     1</i>
   <i type="int" name="OMEGAPAR">    -1</i>
   <i name="LAMBDA">      1.00000000</i>
  </separator>
  <separator name="External order field" >
   <i name="OFIELD_KAPPA">      0.00000000</i>
   <v name="OFIELD_K">      0.00000000      0.00000000      0.00000000</v>
   <i name="OFIELD_Q6_NEAR">      0.00000000</i>
   <i name="OFIELD_Q6_FAR">      0.00000000</i>
   <i name="OFIELD_A">      0.00000000</i>
  </separator>
 </parameters>
 <atominfo>
  <atoms>       2 </atoms>
  <types>       2 </types>
  <array name="atoms" >
   <dimension dim="1">ion</dimension>
   <field type="string">element</field>
   <field type="int">atomtype</field>
   <set>
    <rc><c>Mg</c><c>   1</c></rc>
    <rc><c>O </c><c>   2</c></rc>
   </set>
  </array>
  <array name="atomtypes" >
   <dimension dim="1">type</dimension>
   <field type="int">atomspertype</field>
   <field type="string">element</field>
   <field>mass</field>
   <field>valence</field>
   <field type="string">pseudopotential</field>
   <set>
    <rc><c>   1</c><c>Mg</c><c>     24.30500000</c><c>      2.00000000</c><c>  PAW_PBE Mg 13Apr2007                  </c></rc>
    <rc><c>   1</c><c>O </c><c>     16.00000000</c><c>      6.00000000</c><c>  PAW_PBE O 08Apr2002                   </c></rc>
   </set>
  </array>
 </atominfo>
 <structure name="initialpos" >
  <crystal>
   <varray name="basis" >
    <v>       0.00000000       2.12337500       2.12337500 </v>
    <v>       2.12337500       0.00000000       2.12337500 </v>
    <v>       2.12337500       2.12337500       0.00000000 </v>
   </varray>
   <i name="volume">     19.14741257 </i>
   <varray name="rec_basis" >
    <v>      -0.23547419       0.23547419       0.23547419 </v>
    <v>       0.23547419      -0.23547419       0.23547419 </v>
    <v>       0.23547419       0.23547419      -0.23547419 </v>
   </varray>
  </crystal>
  <varray name="positions" >
   <v>       0.00000000       0.00000000       0.00000000 </v>
   <v>       0.50000000       0.50000000       0.50000000 </v>
  </varray>
 </structure>
 <calculation>
  <scstep>
   <time name="dav">    0.04    0.04</time>
   <time name="total">    0.18    0.18</time>
   <energy>
    <i name="alphaZ">     19.07805803 </i>
    <i name="ewald">   -355.26551564 </i>
    <i name="hartreedc">   -122.44930271 </i>
    <i name="XCdc">    -20.50704350 </i>
    <i name="pawpsdc">    411.85617216 </i>
    <i name="pawaedc">   -361.79210629 </i>
    <i name="eentropy">     -0.00000000 </i>
    <i name="bandstr">    -24.06947231 </i>
    <i name="atom">    455.39485029 </i>
    <i name="e_fr_energy">      2.24564002 </i>
    <i name="e_wo_entrp">      2.24564002 </i>
    <i name="e_0_energy">      2.24564002 </i>
   </energy>
  </scstep>
  <scstep>
   <time name="dav">    0.06    0.07</time>
   <time name="total">    0.06    0.07</time>
   <energy>
    <i name="e_fr_energy">    -13.43888758 </i>
    <i name="e_wo_entrp">    -13.43888758 </i>
    <i name="e_0_energy">    -13.43888758 </i>
   </energy>
  </scstep>
  <scstep>
   <time name="dav">    0.04    0.04</time>
   <time name="total">    0.04    0.04</time>
   <energy>
    <i name="e_fr_energy">    -13.46881594 </i>
    <i name="e_wo_entrp">    -13.46881594 </i>
    <i name="e_0_energy">    -13.46881594 </i>
   </energy>
  </scstep>
  <scstep>
   <time name="dav">    0.08    0.08</time>
   <time name="total">    0.08    0.08</time>
   <energy>
    <i name="e_fr_energy">    -13.46883467 </i>
    <i name="e_wo_entrp">    -13.46883467 </i>
    <i name="e_0_energy">    -13.46883467 </i>
   </energy>
  </scstep>
  <scstep>
   <time name="dav">    0.06    0.07</time>
   <time name="total">    0.06    0.08</time>
   <energy>
    <i name="e_fr_energy">    -13.46883467 </i>
    <i name="e_wo_entrp">    -13.46883467 </i>
    <i name="e_0_energy">    -13.46883467 </i>
   </energy>
  </scstep>
  <scstep>
   <time name="dav">    0.07    0.07</time>
   <time name="total">    0.18    0.19</time>
   <energy>
    <i name="e_fr_energy">    -11.93222326 </i>
    <i name="e_wo_entrp">    -11.93222326 </i>
    <i name="e_0_energy">    -11.93222326 </i>
   </energy>
  </scstep>
  <scstep>
   <time name="dav">    0.05    0.06</time>
   <time name="total">    0.16    0.16</time>
   <energy>
    <i name="e_fr_energy">    -11.91786886 </i>
    <i name="e_wo_entrp">    -11.91786886 </i>
    <i name="e_0_energy">    -11.91786886 </i>
   </energy>
  </scstep>
  <scstep>
   <time name="dav">    0.06    0.06</time>
   <time name="total">    0.17    0.17</time>
   <energy>
    <i name="e_fr_energy">    -11.91174261 </i>
    <i name="e_wo_entrp">    -11.91174261 </i>
    <i name="e_0_energy">    -11.91174261 </i>
   </energy>
  </scstep>
  <scstep>
   <time name="dav">    0.06    0.06</time>
   <time name="total">    0.16    0.16</time>
   <energy>
    <i name="e_fr_energy">    -11.91164370 </i>
    <i name="e_wo_entrp">    -11.91164370 </i>
    <i name="e_0_energy">    -11.91164370 </i>
   </energy>
  </scstep>
  <scstep>
   <time name="dav">    0.05    0.05</time>
   <time name="total">    0.16    0.16</time>
   <energy>
    <i name="e_fr_energy">    -11.91169455 </i>
    <i name="e_wo_entrp">    -11.91169455 </i>
    <i name="e_0_energy">    -11.91169455 </i>
   </energy>
  </scstep>
  <scstep>
   <time name="dav">    0.06    0.06</time>
   <time name="total">    0.16    0.17</time>
   <energy>
    <i name="e_fr_energy">    -11.91169478 </i>
    <i name="e_wo_entrp">    -11.91169478 </i>
    <i name="e_0_energy">    -11.91169478 </i>
   </energy>
  </scstep>
  <scstep>
   <time name="dav">    0.06    0.07</time>
   <time name="total">    0.17    0.17</time>
   <energy>
    <i name="alphaZ">     19.07805803 </i>
    <i name="ewald">   -355.26551564 </i>
    <i name="hartreedc">   -142.47463852 </i>
    <i name="XCdc">    -18.96256439 </i>
    <i name="pawpsdc">    543.05334526 </i>
    <i name="pawaedc">   -493.28041762 </i>
    <i name="eentropy">     -0.00000000 </i>
    <i name="bandstr">    -19.45481216 </i>
    <i name="atom">    455.39485029 </i>
    <i name="e_fr_energy">    -11.91169476 </i>
    <i name="e_wo_entrp">    -11.91169476 </i>
    <i name="e_0_energy">    -11.91169476 </i>
   </energy>
  </scstep>
  <structure>
   <crystal>
    <varray name="basis" >
     <v>       0.00000000       2.12337500       2.12337500 </v>
     <v>       2.12337500       0.00000000       2.12337500 </v>
     <v>       2.12337500       2.12337500       0.00000000 </v>
    </varray>
    <i name="volume">     19.14741257 </i>
    <varray name="rec_basis" >
     <v>      -0.23547419       0.23547419       0.23547419 </v>
     <v>       0.23547419      -0.23547419       0.23547419 </v>
     <v>       0.23547419       0.23547419      -0.23547419 </v>
    </varray>
   </crystal>
   <varray name="positions" >
    <v>       0.00000000       0.00000000       0.00000000 </v>
    <v>       0.50000000       0.50000000       0.50000000 </v>
   </varray>
  </structure>
  <varray name="forces" >
   <v>      -0.00000000       0.00000000      -0.00000000 </v>
   <v>       0.00000000      -0.00000000       0.00000000 </v>
  </varray>
  <varray name="stress" >
   <v>       0.16462390       0.00000000       0.00000000 </v>
   <v>       0.00000000       0.16462390      -0.00000000 </v>
   <v>       0.00000000       0.00000000       0.16462390 </v>
  </varray>
  <energy>
   <i name="e_fr_energy">    -11.91169476 </i>
   <i name="e_wo_entrp">    -11.91169476 </i>
   <i name="e_0_energy">     -0.00000000 </i>
  </energy>
  <time name="totalsc">    1.84    1.88</time>
  <eigenvalues>
   <array>
    <dimension dim="1">band</dimension>
    <dimension dim="2">kpoint</dimension>
    <dimension dim="3">spin</dimension>
    <field>eigene</field>
    <field>occ</field>
    <set>
     <set comment="spin 1">
      <set comment="kpoint 1">
       <r>  -14.1343    1.0000 </r>
       <r>    3.0048    1.0000 </r>
       <r>    3.0048    1.0000 </r>
       <r>    3.0048    1.0000 </r>
       <r>    7.4954    0.0000 </r>
       <r>   18.6648    0.0000 </r>
       <r>   18.6648    0.0000 </r>
       <r>   18.6648    0.0000 </r>
       <r>   22.5173    0.0000 </r>
       <r>   24.2631    0.0000 </r>
       <r>   24.2631    0.0000 </r>
       <r>   26.7816    0.0000 </r>
       <r>   26.7816    0.0000 </r>
       <r>   26.7816    0.0000 </r>
       <r>   40.7837    0.0000 </r>
       <r>   40.7837    0.0000 </r>
       <r>   40.7838    0.0000 </r>
       <r>   41.1884    0.0000 </r>
      </set>
      <set comment="kpoint 2">
       <r>  -13.9323    1.0000 </r>
       <r>    1.8308    1.0000 </r>
       <r>    2.8784    1.0000 </r>
       <r>    2.8785    1.0000 </r>
       <r>    8.6286    0.0000 </r>
       <r>   16.7014    0.0000 </r>
       <r>   19.0951    0.0000 </r>
       <r>   19.0951    0.0000 </r>
       <r>   23.1005    0.0000 </r>
       <r>   23.1005    0.0000 </r>
       <r>   24.8083    0.0000 </r>
       <r>   27.3040    0.0000 </r>
       <r>   28.8181    0.0000 </r>
       <r>   28.8181    0.0000 </r>
       <r>   38.3759    0.0000 </r>
       <r>   40.5587    0.0000 </r>
       <r>   40.5588    0.0000 </r>
       <r>   43.3993    0.0000 </r>
      </set>
      <set comment="kpoint 3">
       <r>  -13.4358    1.0000 </r>
       <r>   -0.0564    1.0000 </r>
       <r>    2.6097    1.0000 </r>
       <r>    2.6097    1.0000 </r>
       <r>   10.1820    0.0000 </r>
       <r>   15.2193    0.0000 </r>
       <r>   19.4399    0.0000 </r>
       <r>   19.4399    0.0000 </r>
       <r>   23.1156    0.0000 </r>
       <r>   23.1156    0.0000 </r>
       <r>   24.3509    0.0000 </r>
       <r>   31.3570    0.0000 </r>
       <r>   31.7113    0.0000 </r>
       <r>   31.7113    0.0000 </r>
       <r>   36.7414    0.0000 </r>
       <r>   38.7079    0.0000 </r>
       <r>   38.7080    0.0000 </r>
       <r>   46.3292    0.0000 </r>
      </set>
      <set comment="kpoint 4">
       <r>  -12.9828    1.0000 </r>
       <r>   -1.3267    1.0000 </r>
       <r>    2.4074    1.0000 </r>
       <r>    2.4074    1.0000 </r>
       <r>   10.7177    0.0000 </r>
       <r>   15.2518    0.0000 </r>
       <r>   19.1248    0.0000 </r>
       <r>   19.1248    0.0000 </r>
       <r>   23.6250    0.0000 </r>
       <r>   24.8060    0.0000 </r>
       <r>   24.8060    0.0000 </r>
       <r>   31.3363    0.0000 </r>
       <r>   33.3839    0.0000 </r>
       <r>   33.3839    0.0000 </r>
       <r>   35.6515    0.0000 </r>
       <r>   35.6515    0.0000 </r>
       <r>   41.8987    0.0000 </r>
       <r>   48.0122    0.0000 </r>
      </set>
      <set comment="kpoint 5">
       <r>  -13.8687    1.0000 </r>
       <r>    1.7492    1.0000 </r>
       <r>    2.7178    1.0000 </r>
       <r>    2.7178    1.0000 </r>
       <r>    8.9972    0.0000 </r>
       <r>   16.1278    0.0000 </r>
       <r>   19.2765    0.0000 </r>
       <r>   19.2765    0.0000 </r>
       <r>   21.0445    0.0000 </r>
       <r>   24.8785    0.0000 </r>
       <r>   26.4090    0.0000 </r>
       <r>   27.7853    0.0000 </r>
       <r>   27.7853    0.0000 </r>
       <r>   29.3390    0.0000 </r>
       <r>   38.6074    0.0000 </r>
       <r>   39.8932    0.0000 </r>
       <r>   39.8933    0.0000 </r>
       <r>   44.4449    0.0000 </r>
      </set>
      <set comment="kpoint 6">
       <r>  -13.4787    1.0000 </r>
       <r>    0.4085    1.0000 </r>
       <r>    2.3910    1.0000 </r>
       <r>    2.4383    1.0000 </r>
       <r>   10.4729    0.0000 </r>
       <r>   14.7979    0.0000 </r>
       <r>   18.7214    0.0000 </r>
       <r>   19.7680    0.0000 </r>
       <r>   20.8457    0.0000 </r>
       <r>   24.9538    0.0000 </r>
       <r>   26.9622    0.0000 </r>
       <r>   30.4446    0.0000 </r>
       <r>   30.8293    0.0000 </r>
       <r>   31.4569    0.0000 </r>
       <r>   36.6952    0.0000 </r>
       <r>   37.9837    0.0000 </r>
       <r>   40.8573    0.0000 </r>
       <r>   45.3090    0.0000 </r>
      </set>
      <set comment="kpoint 7">
       <r>  -13.0102    1.0000 </r>
       <r>   -0.8463    1.0000 </r>
       <r>    1.9441    1.0000 </r>
       <r>    2.2524    1.0000 </r>
       <r>   11.4545    0.0000 </r>
       <r>   14.7941    0.0000 </r>
       <r>   17.5969    0.0000 </r>
       <r>   19.6665    0.0000 </r>
       <r>   22.3929    0.0000 </r>
       <r>   25.7805    0.0000 </r>
       <r>   26.4274    0.0000 </r>
       <r>   31.5522    0.0000 </r>
       <r>   32.9942    0.0000 </r>
       <r>   33.7195    0.0000 </r>
       <r>   34.4728    0.0000 </r>
       <r>   39.3457    0.0000 </r>
       <r>   40.8091    0.0000 </r>
       <r>   45.0730    0.0000 </r>
      </set>
      <set comment="kpoint 8">
       <r>  -12.8486    1.0000 </r>
       <r>   -1.2117    1.0000 </r>
       <r>    1.6826    1.0000 </r>
       <r>    2.2824    1.0000 </r>
       <r>   11.6247    0.0000 </r>
       <r>   15.1619    0.0000 </r>
       <r>   17.3117    0.0000 </r>
       <r>   19.5252    0.0000 </r>
       <r>   23.7009    0.0000 </r>
       <r>   25.0864    0.0000 </r>
       <r>   26.1716    0.0000 </r>
       <r>   32.4375    0.0000 </r>
       <r>   32.4825    0.0000 </r>
       <r>   33.0376    0.0000 </r>
       <r>   35.8731    0.0000 </r>
       <r>   37.3378    0.0000 </r>
       <r>   45.0869    0.0000 </r>
       <r>   46.0842    0.0000 </r>
      </set>
      <set comment="kpoint 9">
       <r>  -13.1520    1.0000 </r>
       <r>   -0.4746    1.0000 </r>
       <r>    1.8056    1.0000 </r>
       <r>    2.5102    1.0000 </r>
       <r>   11.2908    0.0000 </r>
       <r>   14.8458    0.0000 </r>
       <r>   17.8575    0.0000 </r>
       <r>   19.9097    0.0000 </r>
       <r>   22.4260    0.0000 </r>
       <r>   24.2071    0.0000 </r>
       <r>   26.4123    0.0000 </r>
       <r>   31.6131    0.0000 </r>
       <r>   32.3813    0.0000 </r>
       <r>   33.3268    0.0000 </r>
       <r>   35.3853    0.0000 </r>
       <r>   39.1039    0.0000 </r>
       <r>   40.9426    0.0000 </r>
       <r>   43.1929    0.0000 </r>
      </set>
      <set comment="kpoint 10">
       <r>  -13.6342    1.0000 </r>
       <r>    0.8272    1.0000 </r>
       <r>    2.3375    1.0000 </r>
       <r>    2.7806    1.0000 </r>
       <r>    9.9015    0.0000 </r>
       <r>   15.4479    0.0000 </r>
       <r>   18.8156    0.0000 </r>
       <r>   20.0095    0.0000 </r>
       <r>   21.2633    0.0000 </r>
       <r>   23.6631    0.0000 </r>
       <r>   26.4794    0.0000 </r>
       <r>   28.7355    0.0000 </r>
       <r>   30.6542    0.0000 </r>
       <r>   31.0538    0.0000 </r>
       <r>   36.2493    0.0000 </r>
       <r>   39.6157    0.0000 </r>
       <r>   41.5680    0.0000 </r>
       <r>   43.7304    0.0000 </r>
      </set>
      <set comment="kpoint 11">
       <r>  -13.2516    1.0000 </r>
       <r>    0.0515    1.0000 </r>
       <r>    2.1465    1.0000 </r>
       <r>    2.1465    1.0000 </r>
       <r>   11.3913    0.0000 </r>
       <r>   13.5762    0.0000 </r>
       <r>   17.4400    0.0000 </r>
       <r>   20.5222    0.0000 </r>
       <r>   20.5222    0.0000 </r>
       <r>   26.6448    0.0000 </r>
       <r>   30.0337    0.0000 </r>
       <r>   30.7184    0.0000 </r>
       <r>   30.7184    0.0000 </r>
       <r>   33.0208    0.0000 </r>
       <r>   37.8627    0.0000 </r>
       <r>   37.8627    0.0000 </r>
       <r>   38.3446    0.0000 </r>
       <r>   42.8103    0.0000 </r>
      </set>
      <set comment="kpoint 12">
       <r>  -12.9038    1.0000 </r>
       <r>   -0.5486    1.0000 </r>
       <r>    1.5533    1.0000 </r>
       <r>    1.9555    1.0000 </r>
       <r>   12.4439    0.0000 </r>
       <r>   13.3807    0.0000 </r>
       <r>   16.2272    0.0000 </r>
       <r>   20.7479    0.0000 </r>
       <r>   21.1384    0.0000 </r>
       <r>   27.5920    0.0000 </r>
       <r>   29.6573    0.0000 </r>
       <r>   30.8750    0.0000 </r>
       <r>   32.5464    0.0000 </r>
       <r>   35.4097    0.0000 </r>
       <r>   36.0137    0.0000 </r>
       <r>   39.5307    0.0000 </r>
       <r>   41.6054    0.0000 </r>
       <r>   42.6337    0.0000 </r>
      </set>
      <set comment="kpoint 13">
       <r>  -12.7012    1.0000 </r>
       <r>   -0.5857    1.0000 </r>
       <r>    0.6225    1.0000 </r>
       <r>    1.9894    1.0000 </r>
       <r>   12.8812    0.0000 </r>
       <r>   14.6934    0.0000 </r>
       <r>   15.5429    0.0000 </r>
       <r>   20.4590    0.0000 </r>
       <r>   21.3533    0.0000 </r>
       <r>   26.9780    0.0000 </r>
       <r>   29.7228    0.0000 </r>
       <r>   30.7682    0.0000 </r>
       <r>   31.3474    0.0000 </r>
       <r>   35.6173    0.0000 </r>
       <r>   38.7701    0.0000 </r>
       <r>   39.3917    0.0000 </r>
       <r>   43.9831    0.0000 </r>
       <r>   45.9073    0.0000 </r>
      </set>
      <set comment="kpoint 14">
       <r>  -12.8198    1.0000 </r>
       <r>   -0.4376    1.0000 </r>
       <r>    0.5958    1.0000 </r>
       <r>    2.2281    1.0000 </r>
       <r>   12.8339    0.0000 </r>
       <r>   14.7355    0.0000 </r>
       <r>   16.0088    0.0000 </r>
       <r>   20.2257    0.0000 </r>
       <r>   22.7905    0.0000 </r>
       <r>   24.0253    0.0000 </r>
       <r>   29.0228    0.0000 </r>
       <r>   31.2573    0.0000 </r>
       <r>   32.0425    0.0000 </r>
       <r>   34.7269    0.0000 </r>
       <r>   37.0692    0.0000 </r>
       <r>   40.8614    0.0000 </r>
       <r>   42.1381    0.0000 </r>
       <r>   43.6569    0.0000 </r>
      </set>
      <set comment="kpoint 15">
       <r>  -12.7377    1.0000 </r>
       <r>   -0.8664    1.0000 </r>
       <r>    1.7456    1.0000 </r>
       <r>    1.7456    1.0000 </r>
       <r>   12.2598    0.0000 </r>
       <r>   12.6615    0.0000 </r>
       <r>   15.8820    0.0000 </r>
       <r>   21.4660    0.0000 </r>
       <r>   21.4660    0.0000 </r>
       <r>   28.2075    0.0000 </r>
       <r>   28.9824    0.0000 </r>
       <r>   33.2630    0.0000 </r>
       <r>   33.2630    0.0000 </r>
       <r>   37.7723    0.0000 </r>
       <r>   38.3887    0.0000 </r>
       <r>   38.3887    0.0000 </r>
       <r>   40.6854    0.0000 </r>
       <r>   41.0808    0.0000 </r>
      </set>
      <set comment="kpoint 16">
       <r>  -12.6469    1.0000 </r>
       <r>   -0.7855    1.0000 </r>
       <r>    1.1331    1.0000 </r>
       <r>    1.7596    1.0000 </r>
       <r>   12.5203    0.0000 </r>
       <r>   13.3959    0.0000 </r>
       <r>   15.6517    0.0000 </r>
       <r>   21.1449    0.0000 </r>
       <r>   21.2730    0.0000 </r>
       <r>   28.6429    0.0000 </r>
       <r>   30.0093    0.0000 </r>
       <r>   30.5317    0.0000 </r>
       <r>   32.4257    0.0000 </r>
       <r>   38.8612    0.0000 </r>
       <r>   39.1494    0.0000 </r>
       <r>   41.2556    0.0000 </r>
       <r>   41.3522    0.0000 </r>
       <r>   42.7999    0.0000 </r>
      </set>
      <set comment="kpoint 17">
       <r>  -13.1072    1.0000 </r>
       <r>   -0.2447    1.0000 </r>
       <r>    1.5975    1.0000 </r>
       <r>    2.2538    1.0000 </r>
       <r>   11.9127    0.0000 </r>
       <r>   14.1291    0.0000 </r>
       <r>   17.1185    0.0000 </r>
       <r>   20.1381    0.0000 </r>
       <r>   21.4361    0.0000 </r>
       <r>   25.4622    0.0000 </r>
       <r>   29.2171    0.0000 </r>
       <r>   30.6612    0.0000 </r>
       <r>   31.3487    0.0000 </r>
       <r>   34.8245    0.0000 </r>
       <r>   35.3717    0.0000 </r>
       <r>   39.0969    0.0000 </r>
       <r>   40.4789    0.0000 </r>
       <r>   44.4067    0.0000 </r>
      </set>
      <set comment="kpoint 18">
       <r>  -12.7826    1.0000 </r>
       <r>   -0.6717    1.0000 </r>
       <r>    0.9740    1.0000 </r>
       <r>    1.9864    1.0000 </r>
       <r>   12.8291    0.0000 </r>
       <r>   14.6389    0.0000 </r>
       <r>   16.0170    0.0000 </r>
       <r>   19.6112    0.0000 </r>
       <r>   22.9842    0.0000 </r>
       <r>   24.8776    0.0000 </r>
       <r>   29.6235    0.0000 </r>
       <r>   31.1071    0.0000 </r>
       <r>   31.9156    0.0000 </r>
       <r>   34.8877    0.0000 </r>
       <r>   36.4351    0.0000 </r>
       <r>   40.6687    0.0000 </r>
       <r>   42.8434    0.0000 </r>
       <r>   44.1763    0.0000 </r>
      </set>
      <set comment="kpoint 19">
       <r>  -12.6911    1.0000 </r>
       <r>   -0.5901    1.0000 </r>
       <r>    1.0879    1.0000 </r>
       <r>    1.5635    1.0000 </r>
       <r>   13.2647    0.0000 </r>
       <r>   13.6342    0.0000 </r>
       <r>   15.4989    0.0000 </r>
       <r>   19.7660    0.0000 </r>
       <r>   22.3615    0.0000 </r>
       <r>   27.3790    0.0000 </r>
       <r>   29.5224    0.0000 </r>
       <r>   30.8363    0.0000 </r>
       <r>   33.3452    0.0000 </r>
       <r>   36.7245    0.0000 </r>
       <r>   37.6165    0.0000 </r>
       <r>   40.7358    0.0000 </r>
       <r>   43.2796    0.0000 </r>
       <r>   44.0338    0.0000 </r>
      </set>
      <set comment="kpoint 20">
       <r>  -12.6375    1.0000 </r>
       <r>   -0.0591    1.0000 </r>
       <r>    0.1396    1.0000 </r>
       <r>    1.5878    1.0000 </r>
       <r>   13.7879    0.0000 </r>
       <r>   14.8574    0.0000 </r>
       <r>   14.9070    0.0000 </r>
       <r>   18.8571    0.0000 </r>
       <r>   23.2708    0.0000 </r>
       <r>   25.5450    0.0000 </r>
       <r>   29.4920    0.0000 </r>
       <r>   31.4331    0.0000 </r>
       <r>   32.6913    0.0000 </r>
       <r>   37.0295    0.0000 </r>
       <r>   38.6896    0.0000 </r>
       <r>   40.9427    0.0000 </r>
       <r>   42.7571    0.0000 </r>
       <r>   43.4787    0.0000 </r>
      </set>
     </set>
    </set>
   </array>
  </eigenvalues>
  <separator name="orbital magnetization" >
   <v name="MAGDIPOLOUT">      0.00000000      0.00000000      0.00000000</v>
  </separator>
  <dos>
   <i name="efermi">      3.50882667 </i>
   <total>
    <array>
     <dimension dim="1">gridpoints</dimension>
     <dimension dim="2">spin</dimension>
     <field>energy</field>
     <field>total</field>
     <field>integrated</field>
     <set>
      <set comment="spin 1">
       <r>   -17.2417     0.0000     0.0000 </r>
       <r>   -17.0138     0.0000     0.0000 </r>
       <r>   -16.7859     0.0000     0.0000 </r>
       <r>   -16.5580     0.0000     0.0000 </r>
       <r>   -16.3302     0.0000     0.0000 </r>
       <r>   -16.1023     0.0000     0.0000 </r>
       <r>   -15.8744     0.0000     0.0000 </r>
       <r>   -15.6466     0.0000     0.0000 </r>
       <r>   -15.4187     0.0000     0.0000 </r>
       <r>   -15.1908     0.0000     0.0000 </r>
       <r>   -14.9629     0.0000     0.0000 </r>
       <r>   -14.7351     0.0000     0.0000 </r>
       <r>   -14.5072     0.0000     0.0000 </r>
       <r>   -14.2793     0.0005     0.0001 </r>
       <r>   -14.0515     0.0321     0.0074 </r>
       <r>   -13.8236     0.2994     0.0757 </r>
       <r>   -13.5957     0.3013     0.1443 </r>
       <r>   -13.3679     0.8144     0.3299 </r>
       <r>   -13.1400     0.7758     0.5067 </r>
       <r>   -12.9121     1.8663     0.9320 </r>
       <r>   -12.6842     3.3311     1.6910 </r>
       <r>   -12.4564     1.3512     1.9989 </r>
       <r>   -12.2285     0.0047     2.0000 </r>
       <r>   -12.0006     0.0000     2.0000 </r>
       <r>   -11.7728     0.0000     2.0000 </r>
       <r>   -11.5449     0.0000     2.0000 </r>
       <r>   -11.3170     0.0000     2.0000 </r>
       <r>   -11.0891     0.0000     2.0000 </r>
       <r>   -10.8613     0.0000     2.0000 </r>
       <r>   -10.6334     0.0000     2.0000 </r>
       <r>   -10.4055     0.0000     2.0000 </r>
       <r>   -10.1777     0.0000     2.0000 </r>
       <r>    -9.9498     0.0000     2.0000 </r>
       <r>    -9.7219     0.0000     2.0000 </r>
       <r>    -9.4940     0.0000     2.0000 </r>
       <r>    -9.2662     0.0000     2.0000 </r>
       <r>    -9.0383     0.0000     2.0000 </r>
       <r>    -8.8104     0.0000     2.0000 </r>
       <r>    -8.5826     0.0000     2.0000 </r>
       <r>    -8.3547     0.0000     2.0000 </r>
       <r>    -8.1268     0.0000     2.0000 </r>
       <r>    -7.8990     0.0000     2.0000 </r>
       <r>    -7.6711     0.0000     2.0000 </r>
       <r>    -7.4432     0.0000     2.0000 </r>
       <r>    -7.2153     0.0000     2.0000 </r>
       <r>    -6.9875     0.0000     2.0000 </r>
       <r>    -6.7596     0.0000     2.0000 </r>
       <r>    -6.5317     0.0000     2.0000 </r>
       <r>    -6.3039     0.0000     2.0000 </r>
       <r>    -6.0760     0.0000     2.0000 </r>
       <r>    -5.8481     0.0000     2.0000 </r>
       <r>    -5.6202     0.0000     2.0000 </r>
       <r>    -5.3924     0.0000     2.0000 </r>
       <r>    -5.1645     0.0000     2.0000 </r>
       <r>    -4.9366     0.0000     2.0000 </r>
       <r>    -4.7088     0.0000     2.0000 </r>
       <r>    -4.4809     0.0000     2.0000 </r>
       <r>    -4.2530     0.0000     2.0000 </r>
       <r>    -4.0252     0.0000     2.0000 </r>
       <r>    -3.7973     0.0000     2.0000 </r>
       <r>    -3.5694     0.0000     2.0000 </r>
       <r>    -3.3415     0.0000     2.0000 </r>
       <r>    -3.1137     0.0000     2.0000 </r>
       <r>    -2.8858     0.0000     2.0000 </r>
       <r>    -2.6579     0.0000     2.0000 </r>
       <r>    -2.4301     0.0000     2.0000 </r>
       <r>    -2.2022     0.0000     2.0000 </r>
       <r>    -1.9743     0.0000     2.0000 </r>
       <r>    -1.7464     0.0000     2.0000 </r>
       <r>    -1.5186     0.0007     2.0002 </r>
       <r>    -1.2907     0.2225     2.0509 </r>
       <r>    -1.0628     0.5859     2.1844 </r>
       <r>    -0.8350     0.5465     2.3089 </r>
       <r>    -0.6071     2.1724     2.8039 </r>
       <r>    -0.3792     2.2507     3.3168 </r>
       <r>    -0.1513     0.7412     3.4857 </r>
       <r>     0.0765     0.9877     3.7108 </r>
       <r>     0.3044     0.6156     3.8510 </r>
       <r>     0.5323     0.6709     4.0039 </r>
       <r>     0.7601     0.8624     4.2004 </r>
       <r>     0.9880     1.0337     4.4360 </r>
       <r>     1.2159     1.3285     4.7387 </r>
       <r>     1.4437     0.1462     4.7720 </r>
       <r>     1.6716     2.5275     5.3480 </r>
       <r>     1.8995     2.4278     5.9012 </r>
       <r>     2.1274     2.8336     6.5469 </r>
       <r>     2.3552     2.6612     7.1533 </r>
       <r>     2.5831     2.2500     7.6660 </r>
       <r>     2.8110     0.9172     7.8750 </r>
       <r>     3.0388     0.5195     7.9934 </r>
       <r>     3.2667     0.0290     8.0000 </r>
       <r>     3.4946     0.0000     8.0000 </r>
       <r>     3.7225     0.0000     8.0000 </r>
       <r>     3.9503     0.0000     8.0000 </r>
       <r>     4.1782     0.0000     8.0000 </r>
       <r>     4.4061     0.0000     8.0000 </r>
       <r>     4.6339     0.0000     8.0000 </r>
       <r>     4.8618     0.0000     8.0000 </r>
       <r>     5.0897     0.0000     8.0000 </r>
       <r>     5.3176     0.0000     8.0000 </r>
       <r>     5.5454     0.0000     8.0000 </r>
       <r>     5.7733     0.0000     8.0000 </r>
       <r>     6.0012     0.0000     8.0000 </r>
       <r>     6.2290     0.0000     8.0000 </r>
       <r>     6.4569     0.0000     8.0000 </r>
       <r>     6.6848     0.0000     8.0000 </r>
       <r>     6.9126     0.0000     8.0000 </r>
       <r>     7.1405     0.0000     8.0000 </r>
       <r>     7.3684     0.0009     8.0002 </r>
       <r>     7.5963     0.0227     8.0054 </r>
       <r>     7.8241     0.0020     8.0058 </r>
       <r>     8.0520     0.0000     8.0058 </r>
       <r>     8.2799     0.0000     8.0058 </r>
       <r>     8.5077     0.0089     8.0079 </r>
       <r>     8.7356     0.1825     8.0494 </r>
       <r>     8.9635     0.0619     8.0636 </r>
       <r>     9.1914     0.1044     8.0874 </r>
       <r>     9.4192     0.0005     8.0875 </r>
       <r>     9.6471     0.0000     8.0875 </r>
       <r>     9.8750     0.1086     8.1122 </r>
       <r>    10.1028     0.2246     8.1634 </r>
       <r>    10.3307     0.1885     8.2064 </r>
       <r>    10.5586     0.5373     8.3288 </r>
       <r>    10.7864     0.2377     8.3830 </r>
       <r>    11.0143     0.0339     8.3907 </r>
       <r>    11.2422     0.1545     8.4259 </r>
       <r>    11.4701     0.9585     8.6443 </r>
       <r>    11.6979     0.7913     8.8246 </r>
       <r>    11.9258     0.4437     8.9257 </r>
       <r>    12.1537     0.2721     8.9877 </r>
       <r>    12.3815     0.2606     9.0471 </r>
       <r>    12.6094     0.8032     9.2301 </r>
       <r>    12.8373     1.1476     9.4916 </r>
       <r>    13.0652     1.1543     9.7546 </r>
       <r>    13.2930     0.4930     9.8670 </r>
       <r>    13.5209     1.0848    10.1142 </r>
       <r>    13.7488     0.8718    10.3128 </r>
       <r>    13.9766     0.4768    10.4215 </r>
       <r>    14.2045     0.5191    10.5398 </r>
       <r>    14.4324     0.0900    10.5603 </r>
       <r>    14.6603     1.0359    10.7963 </r>
       <r>    14.8881     3.3123    11.5511 </r>
       <r>    15.1160     1.0474    11.7898 </r>
       <r>    15.3439     0.8469    11.9827 </r>
       <r>    15.5717     1.2588    12.2696 </r>
       <r>    15.7996     0.5974    12.4057 </r>
       <r>    16.0275     1.0211    12.6384 </r>
       <r>    16.2553     1.2024    12.9124 </r>
       <r>    16.4832     0.2183    12.9621 </r>
       <r>    16.7111     0.1133    12.9880 </r>
       <r>    16.9390     0.0946    13.0095 </r>
       <r>    17.1668     0.4714    13.1169 </r>
       <r>    17.3947     0.7209    13.2812 </r>
       <r>    17.6226     0.5797    13.4133 </r>
       <r>    17.8504     0.5032    13.5279 </r>
       <r>    18.0783     0.3310    13.6034 </r>
       <r>    18.3062     0.0005    13.6035 </r>
       <r>    18.5341     0.0050    13.6046 </r>
       <r>    18.7619     0.6290    13.7480 </r>
       <r>    18.9898     0.9968    13.9751 </r>
       <r>    19.2177     0.8070    14.1590 </r>
       <r>    19.4455     0.6074    14.2974 </r>
       <r>    19.6734     2.1459    14.7864 </r>
       <r>    19.9013     1.9028    15.2200 </r>
       <r>    20.1292     0.9474    15.4359 </r>
       <r>    20.3570     0.6718    15.5890 </r>
       <r>    20.5849     0.8086    15.7732 </r>
       <r>    20.8128     0.7752    15.9498 </r>
       <r>    21.0406     0.6718    16.1029 </r>
       <r>    21.2685     1.2828    16.3952 </r>
       <r>    21.4964     1.5596    16.7506 </r>
       <r>    21.7242     0.2370    16.8047 </r>
       <r>    21.9521     0.0001    16.8047 </r>
       <r>    22.1800     0.0041    16.8056 </r>
       <r>    22.4079     1.0578    17.0466 </r>
       <r>    22.6357     0.8081    17.2308 </r>
       <r>    22.8636     0.3132    17.3022 </r>
       <r>    23.0915     1.4783    17.6390 </r>
       <r>    23.3193     1.0223    17.8720 </r>
       <r>    23.5472     0.2049    17.9187 </r>
       <r>    23.7751     0.9623    18.1379 </r>
       <r>    24.0030     0.2278    18.1898 </r>
       <r>    24.2308     0.6034    18.3273 </r>
       <r>    24.4587     0.4438    18.4285 </r>
       <r>    24.6866     0.0455    18.4388 </r>
       <r>    24.9144     1.6897    18.8239 </r>
       <r>    25.1423     1.3679    19.1356 </r>
       <r>    25.3702     0.1977    19.1806 </r>
       <r>    25.5981     1.0121    19.4112 </r>
       <r>    25.8259     0.6070    19.5495 </r>
       <r>    26.0538     0.1894    19.5927 </r>
       <r>    26.2817     0.5863    19.7263 </r>
       <r>    26.5095     1.4496    20.0566 </r>
       <r>    26.7374     0.3977    20.1472 </r>
       <r>    26.9653     0.6509    20.2956 </r>
       <r>    27.1931     0.6612    20.4462 </r>
       <r>    27.4210     0.6304    20.5899 </r>
       <r>    27.6489     0.6680    20.7421 </r>
       <r>    27.8768     0.3980    20.8328 </r>
       <r>    28.1046     0.0413    20.8422 </r>
       <r>    28.3325     0.1364    20.8733 </r>
       <r>    28.5604     0.0454    20.8836 </r>
       <r>    28.7882     0.6369    21.0288 </r>
       <r>    29.0161     0.5945    21.1642 </r>
       <r>    29.2440     0.6251    21.3067 </r>
       <r>    29.4719     0.7577    21.4793 </r>
       <r>    29.6997     2.5517    22.0608 </r>
       <r>    29.9276     0.7784    22.2381 </r>
       <r>    30.1555     0.4010    22.3295 </r>
       <r>    30.3833     0.1366    22.3607 </r>
       <r>    30.6112     1.0111    22.5911 </r>
       <r>    30.8391     2.3582    23.1284 </r>
       <r>    31.0669     1.6373    23.5015 </r>
       <r>    31.2948     1.6167    23.8699 </r>
       <r>    31.5227     2.6557    24.4751 </r>
       <r>    31.7506     1.4249    24.7997 </r>
       <r>    31.9784     1.1782    25.0682 </r>
       <r>    32.2063     0.4826    25.1782 </r>
       <r>    32.4342     1.1234    25.4342 </r>
       <r>    32.6620     1.8120    25.8471 </r>
       <r>    32.8899     0.4985    25.9607 </r>
       <r>    33.1178     1.2149    26.2375 </r>
       <r>    33.3457     1.1797    26.5063 </r>
       <r>    33.5735     0.8841    26.7078 </r>
       <r>    33.8014     0.5284    26.8282 </r>
       <r>    34.0293     0.0758    26.8455 </r>
       <r>    34.2571     0.0007    26.8456 </r>
       <r>    34.4850     0.3484    26.9250 </r>
       <r>    34.7129     0.4377    27.0248 </r>
       <r>    34.9408     1.6674    27.4047 </r>
       <r>    35.1686     0.3114    27.4757 </r>
       <r>    35.3965     0.9970    27.7029 </r>
       <r>    35.6244     1.3173    28.0030 </r>
       <r>    35.8522     0.7910    28.1833 </r>
       <r>    36.0801     0.8816    28.3842 </r>
       <r>    36.3080     0.3942    28.4740 </r>
       <r>    36.5358     1.1618    28.7388 </r>
       <r>    36.7637     1.1606    29.0032 </r>
       <r>    36.9916     0.5802    29.1354 </r>
       <r>    37.2195     0.7194    29.2994 </r>
       <r>    37.4473     0.5605    29.4271 </r>
       <r>    37.6752     0.5357    29.5492 </r>
       <r>    37.9031     0.5570    29.6761 </r>
       <r>    38.1309     0.6170    29.8167 </r>
       <r>    38.3588     0.2863    29.8819 </r>
       <r>    38.5867     0.5134    29.9989 </r>
       <r>    38.8146     1.5327    30.3482 </r>
       <r>    39.0424     0.7144    30.5110 </r>
       <r>    39.2703     1.3542    30.8196 </r>
       <r>    39.4982     1.3003    31.1159 </r>
       <r>    39.7260     0.7410    31.2847 </r>
       <r>    39.9539     0.2642    31.3449 </r>
       <r>    40.1818     0.0601    31.3586 </r>
       <r>    40.4097     0.1078    31.3832 </r>
       <r>    40.6375     1.3544    31.6918 </r>
       <r>    40.8654     2.7474    32.3179 </r>
       <r>    41.0933     1.7225    32.7104 </r>
       <r>    41.3211     0.4601    32.8152 </r>
       <r>    41.5490     0.5115    32.9318 </r>
       <r>    41.7769     0.6740    33.0853 </r>
       <r>    42.0047     0.1966    33.1302 </r>
       <r>    42.2326     0.2838    33.1948 </r>
       <r>    42.4605     0.0322    33.2022 </r>
       <r>    42.6884     0.6178    33.3430 </r>
       <r>    42.9162     2.0757    33.8160 </r>
       <r>    43.1441     0.3867    33.9041 </r>
       <r>    43.3720     1.1103    34.1571 </r>
       <r>    43.5998     0.8165    34.3431 </r>
       <r>    43.8277     0.5482    34.4681 </r>
       <r>    44.0556     0.9744    34.6901 </r>
       <r>    44.2835     1.4475    35.0200 </r>
       <r>    44.5113     0.7515    35.1912 </r>
       <r>    44.7392     0.0693    35.2070 </r>
       <r>    44.9671     0.0688    35.2227 </r>
       <r>    45.1949     1.1273    35.4796 </r>
       <r>    45.4228     0.6132    35.6193 </r>
       <r>    45.6507     0.0331    35.6268 </r>
       <r>    45.8785     0.2111    35.6750 </r>
       <r>    46.1064     0.7843    35.8537 </r>
       <r>    46.3343     0.3408    35.9313 </r>
       <r>    46.5622     0.0965    35.9533 </r>
       <r>    46.7900     0.0001    35.9534 </r>
       <r>    47.0179     0.0000    35.9534 </r>
       <r>    47.2458     0.0000    35.9534 </r>
       <r>    47.4736     0.0000    35.9534 </r>
       <r>    47.7015     0.0000    35.9534 </r>
       <r>    47.9294     0.0247    35.9590 </r>
       <r>    48.1573     0.1759    35.9991 </r>
       <r>    48.3851     0.0041    36.0000 </r>
       <r>    48.6130     0.0000    36.0000 </r>
       <r>    48.8409     0.0000    36.0000 </r>
       <r>    49.0687     0.0000    36.0000 </r>
       <r>    49.2966     0.0000    36.0000 </r>
       <r>    49.5245     0.0000    36.0000 </r>
       <r>    49.7524     0.0000    36.0000 </r>
       <r>    49.9802     0.0000    36.0000 </r>
       <r>    50.2081     0.0000    36.0000 </r>
       <r>    50.4360     0.0000    36.0000 </r>
       <r>    50.6638     0.0000    36.0000 </r>
       <r>    50.8917     0.0000    36.0000 </r>
       <r>    51.1196     0.0000    36.0000 </r>
      </set>
     </set>
    </array>
   </total>
   <partial>
    <array>
     <dimension dim="1">gridpoints</dimension>
     <dimension dim="2">spin</dimension>
     <dimension dim="3">ion</dimension>
     <field>energy</field>
     <field>    s</field>
     <field>   py</field>
     <field>   pz</field>
     <field>   px</field>
     <field>  dxy</field>
     <field>  dyz</field>
     <field>  dz2</field>
     <field>  dxz</field>
     <field>x2-y2</field>
     <set>
      <set comment="ion 1">
       <set comment="spin 1">
        <r>   -17.2417     0.0000     0.0000     0.0000     0.0000     0.0000     0.0000     0.0000     0.0000     0.0000 </r>
        <r>   -17.0138     0.0000     0.0000     0.0000     0.0000     0.0000     0.0000     0.0000     0.0000     0.0000 </r>
        <r>   -16.7859     0.0000     0.0000     0.0000     0.0000     0.0000     0.0000     0.0000     0.0000     0.0000 </r>
        <r>   -16.5580     0.0000     0.0000     0.0000     0.0000     0.0000     0.0000     0.0000     0.0000     0.0000 </r>
        <r>   -16.3302     0.0000     0.0000     0.0000     0.0000     0.0000     0.0000     0.0000     0.0000     0.0000 </r>
        <r>   -16.1023     0.0000     0.0000     0.0000     0.0000     0.0000     0.0000     0.0000     0.0000     0.0000 </r>
        <r>   -15.8744     0.0000     0.0000     0.0000     0.0000     0.0000     0.0000     0.0000     0.0000     0.0000 </r>
        <r>   -15.6466     0.0000     0.0000     0.0000     0.0000     0.0000     0.0000     0.0000     0.0000     0.0000 </r>
        <r>   -15.4187     0.0000     0.0000     0.0000     0.0000     0.0000     0.0000     0.0000     0.0000     0.0000 </r>
        <r>   -15.1908     0.0000     0.0000     0.0000     0.0000     0.0000     0.0000     0.0000     0.0000     0.0000 </r>
        <r>   -14.9629     0.0000     0.0000     0.0000     0.0000     0.0000     0.0000     0.0000     0.0000     0.0000 </r>
        <r>   -14.7351     0.0000     0.0000     0.0000     0.0000     0.0000     0.0000     0.0000     0.0000     0.0000 </r>
        <r>   -14.5072     0.0000     0.0000     0.0000     0.0000     0.0000     0.0000     0.0000     0.0000     0.0000 </r>
        <r>   -14.2793     0.0000     0.0000     0.0000     0.0000     0.0000     0.0000     0.0000     0.0000     0.0000 </r>
        <r>   -14.0515     0.0013     0.0000     0.0000     0.0000     0.0000     0.0000     0.0000     0.0000     0.0000 </r>
        <r>   -13.8236     0.0104     0.0002     0.0006     0.0002     0.0000     0.0000     0.0000     0.0000     0.0000 </r>
        <r>   -13.5957     0.0081     0.0008     0.0003     0.0008     0.0000     0.0000     0.0001     0.0000     0.0000 </r>
        <r>   -13.3679     0.0176     0.0015     0.0038     0.0015     0.0000     0.0000     0.0004     0.0000     0.0000 </r>
        <r>   -13.1400     0.0097     0.0029     0.0030     0.0022     0.0000     0.0000     0.0011     0.0000     0.0000 </r>
        <r>   -12.9121     0.0136     0.0073     0.0092     0.0056     0.0000     0.0000     0.0034     0.0000     0.0001 </r>
        <r>   -12.6842     0.0074     0.0148     0.0096     0.0081     0.0000     0.0000     0.0122     0.0000     0.0009 </r>
        <r>   -12.4564     0.0020     0.0054     0.0012     0.0019     0.0000     0.0000     0.0074     0.0000     0.0005 </r>
        <r>   -12.2285     0.0000     0.0000     0.0000     0.0000     0.0000     0.0000     0.0000     0.0000     0.0000 </r>
        <r>   -12.0006     0.0000     0.0000     0.0000     0.0000     0.0000     0.0000     0.0000     0.0000     0.0000 </r>
        <r>   -11.7728     0.0000     0.0000     0.0000     0.0000     0.0000     0.0000     0.0000     0.0000     0.0000 </r>
        <r>   -11.5449     0.0000     0.0000     0.0000     0.0000     0.0000     0.0000     0.0000     0.0000     0.0000 </r>
        <r>   -11.3170     0.0000     0.0000     0.0000     0.0000     0.0000     0.0000     0.0000     0.0000     0.0000 </r>
        <r>   -11.0891     0.0000     0.0000     0.0000     0.0000     0.0000     0.0000     0.0000     0.0000     0.0000 </r>
        <r>   -10.8613     0.0000     0.0000     0.0000     0.0000     0.0000     0.0000     0.0000     0.0000     0.0000 </r>
        <r>   -10.6334     0.0000     0.0000     0.0000     0.0000     0.0000     0.0000     0.0000     0.0000     0.0000 </r>
        <r>   -10.4055     0.0000     0.0000     0.0000     0.0000     0.0000     0.0000     0.0000     0.0000     0.0000 </r>
        <r>   -10.1777     0.0000     0.0000     0.0000     0.0000     0.0000     0.0000     0.0000     0.0000     0.0000 </r>
        <r>    -9.9498     0.0000     0.0000     0.0000     0.0000     0.0000     0.0000     0.0000     0.0000     0.0000 </r>
        <r>    -9.7219     0.0000     0.0000     0.0000     0.0000     0.0000     0.0000     0.0000     0.0000     0.0000 </r>
        <r>    -9.4940     0.0000     0.0000     0.0000     0.0000     0.0000     0.0000     0.0000     0.0000     0.0000 </r>
        <r>    -9.2662     0.0000     0.0000     0.0000     0.0000     0.0000     0.0000     0.0000     0.0000     0.0000 </r>
        <r>    -9.0383     0.0000     0.0000     0.0000     0.0000     0.0000     0.0000     0.0000     0.0000     0.0000 </r>
        <r>    -8.8104     0.0000     0.0000     0.0000     0.0000     0.0000     0.0000     0.0000     0.0000     0.0000 </r>
        <r>    -8.5826     0.0000     0.0000     0.0000     0.0000     0.0000     0.0000     0.0000     0.0000     0.0000 </r>
        <r>    -8.3547     0.0000     0.0000     0.0000     0.0000     0.0000     0.0000     0.0000     0.0000     0.0000 </r>
        <r>    -8.1268     0.0000     0.0000     0.0000     0.0000     0.0000     0.0000     0.0000     0.0000     0.0000 </r>
        <r>    -7.8990     0.0000     0.0000     0.0000     0.0000     0.0000     0.0000     0.0000     0.0000     0.0000 </r>
        <r>    -7.6711     0.0000     0.0000     0.0000     0.0000     0.0000     0.0000     0.0000     0.0000     0.0000 </r>
        <r>    -7.4432     0.0000     0.0000     0.0000     0.0000     0.0000     0.0000     0.0000     0.0000     0.0000 </r>
        <r>    -7.2153     0.0000     0.0000     0.0000     0.0000     0.0000     0.0000     0.0000     0.0000     0.0000 </r>
        <r>    -6.9875     0.0000     0.0000     0.0000     0.0000     0.0000     0.0000     0.0000     0.0000     0.0000 </r>
        <r>    -6.7596     0.0000     0.0000     0.0000     0.0000     0.0000     0.0000     0.0000     0.0000     0.0000 </r>
        <r>    -6.5317     0.0000     0.0000     0.0000     0.0000     0.0000     0.0000     0.0000     0.0000     0.0000 </r>
        <r>    -6.3039     0.0000     0.0000     0.0000     0.0000     0.0000     0.0000     0.0000     0.0000     0.0000 </r>
        <r>    -6.0760     0.0000     0.0000     0.0000     0.0000     0.0000     0.0000     0.0000     0.0000     0.0000 </r>
        <r>    -5.8481     0.0000     0.0000     0.0000     0.0000     0.0000     0.0000     0.0000     0.0000     0.0000 </r>
        <r>    -5.6202     0.0000     0.0000     0.0000     0.0000     0.0000     0.0000     0.0000     0.0000     0.0000 </r>
        <r>    -5.3924     0.0000     0.0000     0.0000     0.0000     0.0000     0.0000     0.0000     0.0000     0.0000 </r>
        <r>    -5.1645     0.0000     0.0000     0.0000     0.0000     0.0000     0.0000     0.0000     0.0000     0.0000 </r>
        <r>    -4.9366     0.0000     0.0000     0.0000     0.0000     0.0000     0.0000     0.0000     0.0000     0.0000 </r>
        <r>    -4.7088     0.0000     0.0000     0.0000     0.0000     0.0000     0.0000     0.0000     0.0000     0.0000 </r>
        <r>    -4.4809     0.0000     0.0000     0.0000     0.0000     0.0000     0.0000     0.0000     0.0000     0.0000 </r>
        <r>    -4.2530     0.0000     0.0000     0.0000     0.0000     0.0000     0.0000     0.0000     0.0000     0.0000 </r>
        <r>    -4.0252     0.0000     0.0000     0.0000     0.0000     0.0000     0.0000     0.0000     0.0000     0.0000 </r>
        <r>    -3.7973     0.0000     0.0000     0.0000     0.0000     0.0000     0.0000     0.0000     0.0000     0.0000 </r>
        <r>    -3.5694     0.0000     0.0000     0.0000     0.0000     0.0000     0.0000     0.0000     0.0000     0.0000 </r>
        <r>    -3.3415     0.0000     0.0000     0.0000     0.0000     0.0000     0.0000     0.0000     0.0000     0.0000 </r>
        <r>    -3.1137     0.0000     0.0000     0.0000     0.0000     0.0000     0.0000     0.0000     0.0000     0.0000 </r>
        <r>    -2.8858     0.0000     0.0000     0.0000     0.0000     0.0000     0.0000     0.0000     0.0000     0.0000 </r>
        <r>    -2.6579     0.0000     0.0000     0.0000     0.0000     0.0000     0.0000     0.0000     0.0000     0.0000 </r>
        <r>    -2.4301     0.0000     0.0000     0.0000     0.0000     0.0000     0.0000     0.0000     0.0000     0.0000 </r>
        <r>    -2.2022     0.0000     0.0000     0.0000     0.0000     0.0000     0.0000     0.0000     0.0000     0.0000 </r>
        <r>    -1.9743     0.0000     0.0000     0.0000     0.0000     0.0000     0.0000     0.0000     0.0000     0.0000 </r>
        <r>    -1.7464     0.0000     0.0000     0.0000     0.0000     0.0000     0.0000     0.0000     0.0000     0.0000 </r>
        <r>    -1.5186     0.0001     0.0000     0.0000     0.0000     0.0000     0.0000     0.0000     0.0000     0.0000 </r>
        <r>    -1.2907     0.0214     0.0001     0.0005     0.0001     0.0008     0.0007     0.0000     0.0007     0.0000 </r>
        <r>    -1.0628     0.0533     0.0006     0.0032     0.0006     0.0021     0.0017     0.0001     0.0017     0.0000 </r>
        <r>    -0.8350     0.0311     0.0008     0.0153     0.0009     0.0008     0.0011     0.0006     0.0011     0.0000 </r>
        <r>    -0.6071     0.1062     0.0017     0.0692     0.0079     0.0026     0.0060     0.0023     0.0027     0.0009 </r>
        <r>    -0.3792     0.1186     0.0028     0.0612     0.0040     0.0047     0.0038     0.0063     0.0022     0.0003 </r>
        <r>    -0.1513     0.0465     0.0009     0.0108     0.0003     0.0006     0.0022     0.0036     0.0002     0.0007 </r>
        <r>     0.0765     0.0264     0.0004     0.0396     0.0046     0.0010     0.0028     0.0018     0.0007     0.0001 </r>
        <r>     0.3044     0.0221     0.0004     0.0024     0.0192     0.0026     0.0001     0.0020     0.0001     0.0000 </r>
        <r>     0.5323     0.0374     0.0015     0.0057     0.0017     0.0005     0.0010     0.0037     0.0010     0.0000 </r>
        <r>     0.7601     0.0151     0.0040     0.0277     0.0041     0.0021     0.0011     0.0040     0.0011     0.0000 </r>
        <r>     0.9880     0.0173     0.0005     0.0076     0.0292     0.0036     0.0006     0.0046     0.0006     0.0010 </r>
        <r>     1.2159     0.0057     0.0050     0.0051     0.0526     0.0048     0.0004     0.0029     0.0007     0.0007 </r>
        <r>     1.4437     0.0021     0.0017     0.0003     0.0030     0.0003     0.0000     0.0003     0.0001     0.0003 </r>
        <r>     1.6716     0.0325     0.0199     0.0115     0.0393     0.0037     0.0006     0.0100     0.0022     0.0104 </r>
        <r>     1.8995     0.0186     0.0170     0.0269     0.0214     0.0021     0.0021     0.0154     0.0025     0.0053 </r>
        <r>     2.1274     0.0106     0.0203     0.0151     0.0229     0.0013     0.0011     0.0182     0.0015     0.0231 </r>
        <r>     2.3552     0.0017     0.0168     0.0084     0.0125     0.0004     0.0027     0.0098     0.0023     0.0335 </r>
        <r>     2.5831     0.0001     0.0110     0.0044     0.0106     0.0010     0.0021     0.0102     0.0021     0.0247 </r>
        <r>     2.8110     0.0000     0.0043     0.0009     0.0043     0.0002     0.0006     0.0025     0.0006     0.0085 </r>
        <r>     3.0388     0.0000     0.0023     0.0018     0.0023     0.0001     0.0001     0.0009     0.0001     0.0027 </r>
        <r>     3.2667     0.0000     0.0002     0.0002     0.0002     0.0000     0.0000     0.0000     0.0000     0.0000 </r>
        <r>     3.4946     0.0000     0.0000     0.0000     0.0000     0.0000     0.0000     0.0000     0.0000     0.0000 </r>
        <r>     3.7225     0.0000     0.0000     0.0000     0.0000     0.0000     0.0000     0.0000     0.0000     0.0000 </r>
        <r>     3.9503     0.0000     0.0000     0.0000     0.0000     0.0000     0.0000     0.0000     0.0000     0.0000 </r>
        <r>     4.1782     0.0000     0.0000     0.0000     0.0000     0.0000     0.0000     0.0000     0.0000     0.0000 </r>
        <r>     4.4061     0.0000     0.0000     0.0000     0.0000     0.0000     0.0000     0.0000     0.0000     0.0000 </r>
        <r>     4.6339     0.0000     0.0000     0.0000     0.0000     0.0000     0.0000     0.0000     0.0000     0.0000 </r>
        <r>     4.8618     0.0000     0.0000     0.0000     0.0000     0.0000     0.0000     0.0000     0.0000     0.0000 </r>
        <r>     5.0897     0.0000     0.0000     0.0000     0.0000     0.0000     0.0000     0.0000     0.0000     0.0000 </r>
        <r>     5.3176     0.0000     0.0000     0.0000     0.0000     0.0000     0.0000     0.0000     0.0000     0.0000 </r>
        <r>     5.5454     0.0000     0.0000     0.0000     0.0000     0.0000     0.0000     0.0000     0.0000     0.0000 </r>
        <r>     5.7733     0.0000     0.0000     0.0000     0.0000     0.0000     0.0000     0.0000     0.0000     0.0000 </r>
        <r>     6.0012     0.0000     0.0000     0.0000     0.0000     0.0000     0.0000     0.0000     0.0000     0.0000 </r>
        <r>     6.2290     0.0000     0.0000     0.0000     0.0000     0.0000     0.0000     0.0000     0.0000     0.0000 </r>
        <r>     6.4569     0.0000     0.0000     0.0000     0.0000     0.0000     0.0000     0.0000     0.0000     0.0000 </r>
        <r>     6.6848     0.0000     0.0000     0.0000     0.0000     0.0000     0.0000     0.0000     0.0000     0.0000 </r>
        <r>     6.9126     0.0000     0.0000     0.0000     0.0000     0.0000     0.0000     0.0000     0.0000     0.0000 </r>
        <r>     7.1405     0.0000     0.0000     0.0000     0.0000     0.0000     0.0000     0.0000     0.0000     0.0000 </r>
        <r>     7.3684     0.0002     0.0000     0.0000     0.0000     0.0000     0.0000     0.0000     0.0000     0.0000 </r>
        <r>     7.5963     0.0054     0.0000     0.0000     0.0000     0.0000     0.0000     0.0000     0.0000     0.0000 </r>
        <r>     7.8241     0.0005     0.0000     0.0000     0.0000     0.0000     0.0000     0.0000     0.0000     0.0000 </r>
        <r>     8.0520     0.0000     0.0000     0.0000     0.0000     0.0000     0.0000     0.0000     0.0000     0.0000 </r>
        <r>     8.2799     0.0000     0.0000     0.0000     0.0000     0.0000     0.0000     0.0000     0.0000     0.0000 </r>
        <r>     8.5077     0.0017     0.0001     0.0001     0.0001     0.0000     0.0000     0.0000     0.0000     0.0000 </r>
        <r>     8.7356     0.0340     0.0014     0.0014     0.0014     0.0000     0.0000     0.0000     0.0000     0.0000 </r>
        <r>     8.9635     0.0114     0.0001     0.0009     0.0001     0.0000     0.0000     0.0002     0.0000     0.0000 </r>
        <r>     9.1914     0.0193     0.0000     0.0017     0.0000     0.0000     0.0000     0.0004     0.0000     0.0000 </r>
        <r>     9.4192     0.0001     0.0000     0.0000     0.0000     0.0000     0.0000     0.0000     0.0000     0.0000 </r>
        <r>     9.6471     0.0000     0.0000     0.0000     0.0000     0.0000     0.0000     0.0000     0.0000     0.0000 </r>
        <r>     9.8750     0.0161     0.0024     0.0000     0.0024     0.0000     0.0000     0.0003     0.0000     0.0000 </r>
        <r>    10.1028     0.0321     0.0053     0.0008     0.0053     0.0001     0.0000     0.0005     0.0000     0.0000 </r>
        <r>    10.3307     0.0200     0.0054     0.0056     0.0054     0.0002     0.0002     0.0001     0.0002     0.0000 </r>
        <r>    10.5586     0.0778     0.0056     0.0130     0.0056     0.0005     0.0001     0.0035     0.0001     0.0000 </r>
        <r>    10.7864     0.0123     0.0102     0.0112     0.0102     0.0001     0.0001     0.0005     0.0001     0.0000 </r>
        <r>    11.0143     0.0004     0.0019     0.0019     0.0019     0.0000     0.0000     0.0000     0.0000     0.0000 </r>
        <r>    11.2422     0.0112     0.0069     0.0024     0.0069     0.0000     0.0002     0.0006     0.0002     0.0000 </r>
        <r>    11.4701     0.0755     0.0368     0.0226     0.0368     0.0028     0.0007     0.0055     0.0007     0.0000 </r>
        <r>    11.6979     0.0169     0.0415     0.0310     0.0415     0.0037     0.0005     0.0035     0.0005     0.0000 </r>
        <r>    11.9258     0.0451     0.0170     0.0133     0.0055     0.0003     0.0002     0.0032     0.0001     0.0003 </r>
        <r>    12.1537     0.0335     0.0086     0.0071     0.0000     0.0018     0.0001     0.0021     0.0000     0.0002 </r>
        <r>    12.3815     0.0203     0.0019     0.0008     0.0019     0.0282     0.0000     0.0010     0.0000     0.0000 </r>
        <r>    12.6094     0.1114     0.0105     0.0034     0.0104     0.0504     0.0000     0.0046     0.0000     0.0000 </r>
        <r>    12.8373     0.0738     0.0555     0.0261     0.0363     0.0231     0.0038     0.0051     0.0001     0.0009 </r>
        <r>    13.0652     0.0293     0.0623     0.0241     0.0464     0.0314     0.0032     0.0048     0.0002     0.0007 </r>
        <r>    13.2930     0.0126     0.0003     0.0001     0.0091     0.0611     0.0000     0.0001     0.0001     0.0000 </r>
        <r>    13.5209     0.1470     0.0023     0.0006     0.0061     0.1033     0.0003     0.0011     0.0004     0.0001 </r>
        <r>    13.7488     0.1786     0.0192     0.0020     0.0099     0.0356     0.0009     0.0019     0.0000     0.0010 </r>
        <r>    13.9766     0.0122     0.0130     0.0001     0.0243     0.0307     0.0000     0.0006     0.0001     0.0004 </r>
        <r>    14.2045     0.0000     0.0001     0.0000     0.0174     0.0607     0.0000     0.0000     0.0035     0.0000 </r>
        <r>    14.4324     0.0002     0.0000     0.0000     0.0030     0.0104     0.0000     0.0000     0.0006     0.0000 </r>
        <r>    14.6603     0.0912     0.0007     0.0096     0.0193     0.0461     0.0071     0.0001     0.0059     0.0002 </r>
        <r>    14.8881     0.2831     0.0107     0.0773     0.0218     0.1379     0.0524     0.0005     0.0340     0.0010 </r>
        <r>    15.1160     0.1863     0.0030     0.0251     0.0023     0.0151     0.0186     0.0004     0.0098     0.0013 </r>
        <r>    15.3439     0.0946     0.0026     0.0084     0.0026     0.0137     0.0150     0.0000     0.0149     0.0000 </r>
        <r>    15.5717     0.1161     0.0024     0.1170     0.0018     0.0020     0.0285     0.0009     0.0221     0.0003 </r>
        <r>    15.7996     0.0438     0.0010     0.0656     0.0009     0.0008     0.0046     0.0003     0.0034     0.0001 </r>
        <r>    16.0275     0.2563     0.0087     0.0804     0.0188     0.0071     0.0037     0.0011     0.0006     0.0024 </r>
        <r>    16.2553     0.2489     0.0060     0.1198     0.0140     0.0321     0.0032     0.0007     0.0008     0.0019 </r>
        <r>    16.4832     0.0311     0.0000     0.0379     0.0000     0.0015     0.0002     0.0000     0.0002     0.0000 </r>
        <r>    16.7111     0.0005     0.0012     0.0012     0.0012     0.0064     0.0064     0.0000     0.0064     0.0000 </r>
        <r>    16.9390     0.0011     0.0010     0.0016     0.0009     0.0052     0.0052     0.0000     0.0052     0.0000 </r>
        <r>    17.1668     0.0921     0.0057     0.0847     0.0005     0.0001     0.0001     0.0015     0.0001     0.0014 </r>
        <r>    17.3947     0.1208     0.0222     0.0990     0.0204     0.0035     0.0038     0.0017     0.0038     0.0005 </r>
        <r>    17.6226     0.0853     0.0059     0.1153     0.0059     0.0086     0.0008     0.0019     0.0008     0.0000 </r>
        <r>    17.8504     0.0762     0.0243     0.0535     0.0243     0.0056     0.0017     0.0035     0.0017     0.0000 </r>
        <r>    18.0783     0.0510     0.0265     0.0108     0.0265     0.0012     0.0018     0.0037     0.0018     0.0000 </r>
        <r>    18.3062     0.0001     0.0000     0.0000     0.0000     0.0000     0.0000     0.0000     0.0000     0.0000 </r>
        <r>    18.5341     0.0002     0.0000     0.0006     0.0000     0.0003     0.0003     0.0000     0.0003     0.0000 </r>
        <r>    18.7619     0.0480     0.0225     0.0993     0.0068     0.0223     0.0106     0.0104     0.0106     0.0000 </r>
        <r>    18.9898     0.0352     0.1818     0.0410     0.0269     0.0363     0.0047     0.0145     0.0047     0.0001 </r>
        <r>    19.2177     0.0003     0.0522     0.0443     0.0468     0.0337     0.0400     0.0013     0.0400     0.0010 </r>
        <r>    19.4455     0.0000     0.0460     0.0204     0.0429     0.0088     0.0356     0.0020     0.0355     0.0019 </r>
        <r>    19.6734     0.0021     0.4515     0.0517     0.1787     0.0084     0.0261     0.0066     0.0129     0.0061 </r>
        <r>    19.9013     0.0100     0.3607     0.0108     0.1435     0.0005     0.0467     0.0094     0.0403     0.0132 </r>
        <r>    20.1292     0.0006     0.1372     0.0128     0.0625     0.0000     0.0567     0.0032     0.0477     0.0071 </r>
        <r>    20.3570     0.0004     0.1467     0.0156     0.0614     0.0000     0.0132     0.0036     0.0022     0.0028 </r>
        <r>    20.5849     0.0000     0.1258     0.0000     0.1257     0.0000     0.0099     0.0000     0.0099     0.0020 </r>
        <r>    20.8128     0.0007     0.0925     0.0110     0.0925     0.0099     0.0184     0.0054     0.0184     0.0036 </r>
        <r>    21.0406     0.0058     0.0453     0.0445     0.0453     0.0236     0.0254     0.0211     0.0254     0.0008 </r>
        <r>    21.2685     0.0150     0.1528     0.0249     0.1535     0.0397     0.0096     0.0253     0.0101     0.0170 </r>
        <r>    21.4964     0.0114     0.1246     0.0004     0.1852     0.1155     0.0036     0.0227     0.0487     0.0152 </r>
        <r>    21.7242     0.0003     0.0165     0.0000     0.0316     0.0127     0.0004     0.0006     0.0116     0.0000 </r>
        <r>    21.9521     0.0000     0.0000     0.0000     0.0000     0.0000     0.0000     0.0000     0.0000     0.0000 </r>
        <r>    22.1800     0.0000     0.0000     0.0000     0.0008     0.0003     0.0000     0.0000     0.0001     0.0000 </r>
        <r>    22.4079     0.0022     0.0255     0.0042     0.1398     0.0834     0.0461     0.0105     0.0501     0.0043 </r>
        <r>    22.6357     0.0017     0.0233     0.0030     0.0629     0.0492     0.0603     0.0078     0.0617     0.0065 </r>
        <r>    22.8636     0.0043     0.0066     0.0002     0.0126     0.0683     0.0018     0.0197     0.0015     0.0004 </r>
        <r>    23.0915     0.0018     0.0197     0.0230     0.1412     0.1834     0.0450     0.0585     0.0401     0.0392 </r>
        <r>    23.3193     0.0018     0.0276     0.0259     0.1247     0.0953     0.0222     0.0547     0.0218     0.0437 </r>
        <r>    23.5472     0.0096     0.0016     0.0003     0.0307     0.0283     0.0021     0.0070     0.0021     0.0003 </r>
        <r>    23.7751     0.0732     0.0218     0.0018     0.0218     0.1924     0.0173     0.0797     0.0173     0.0000 </r>
        <r>    24.0030     0.0037     0.0027     0.0001     0.0027     0.0264     0.0199     0.0084     0.0199     0.0000 </r>
        <r>    24.2308     0.0127     0.0005     0.0011     0.0005     0.1103     0.0328     0.0476     0.0328     0.0042 </r>
        <r>    24.4587     0.0442     0.0109     0.0112     0.0109     0.0708     0.0073     0.0342     0.0073     0.0088 </r>
        <r>    24.6866     0.0030     0.0014     0.0017     0.0015     0.0027     0.0035     0.0008     0.0027     0.0012 </r>
        <r>    24.9144     0.0152     0.0225     0.0801     0.0324     0.0572     0.2263     0.0207     0.0753     0.1709 </r>
        <r>    25.1423     0.0044     0.0183     0.0299     0.0225     0.0096     0.1885     0.0040     0.1231     0.2031 </r>
        <r>    25.3702     0.0005     0.0017     0.0015     0.0004     0.0000     0.0371     0.0007     0.0233     0.0190 </r>
        <r>    25.5981     0.0049     0.0114     0.0667     0.0000     0.0000     0.2263     0.0060     0.0084     0.1117 </r>
        <r>    25.8259     0.0002     0.0042     0.0172     0.0039     0.0000     0.1015     0.0002     0.0679     0.0772 </r>
        <r>    26.0538     0.0037     0.0016     0.0041     0.0016     0.0003     0.0266     0.0006     0.0266     0.0261 </r>
        <r>    26.2817     0.0729     0.0052     0.0814     0.0052     0.0061     0.0649     0.0112     0.0649     0.0000 </r>
        <r>    26.5095     0.1214     0.0262     0.2356     0.0262     0.0253     0.1070     0.0191     0.1070     0.0024 </r>
        <r>    26.7374     0.0146     0.0078     0.0563     0.0078     0.0024     0.0138     0.0018     0.0138     0.0766 </r>
        <r>    26.9653     0.0229     0.0498     0.0110     0.0498     0.0004     0.0725     0.0031     0.0725     0.0211 </r>
        <r>    27.1931     0.0222     0.0373     0.0012     0.0372     0.0011     0.0871     0.0031     0.0866     0.0174 </r>
        <r>    27.4210     0.0113     0.0222     0.0394     0.0146     0.0106     0.1035     0.0326     0.0111     0.0571 </r>
        <r>    27.6489     0.0007     0.0076     0.0104     0.0047     0.0006     0.0689     0.0125     0.0334     0.2195 </r>
        <r>    27.8768     0.0000     0.0666     0.0000     0.0666     0.0000     0.0273     0.0000     0.0273     0.0534 </r>
        <r>    28.1046     0.0007     0.0074     0.0000     0.0074     0.0000     0.0021     0.0057     0.0021     0.0000 </r>
        <r>    28.3325     0.0080     0.0000     0.0004     0.0000     0.0000     0.0000     0.0693     0.0000     0.0000 </r>
        <r>    28.5604     0.0019     0.0008     0.0000     0.0008     0.0003     0.0000     0.0226     0.0000     0.0000 </r>
        <r>    28.7882     0.0355     0.0314     0.0158     0.0314     0.0283     0.0010     0.2350     0.0010     0.0200 </r>
[...]
       </set>
       <set comment="band 6">
        <r>  0.3820  0.0032  0.0000  0.0032  0.0185  0.0000  0.0012  0.0000  0.0000 </r>
        <r>  0.0333  0.0356  0.0000  0.0356  0.0000  0.0000  0.0000  0.0000  0.0000 </r>
       </set>
       <set comment="band 7">
        <r>  0.0000  0.0000  0.1156  0.0000  0.0000  0.0039  0.0000  0.0039  0.0000 </r>
        <r>  0.0000  0.0000  0.4233  0.0000  0.0000  0.0000  0.0000  0.0000  0.0000 </r>
       </set>
       <set comment="band 8">
        <r>  0.0190  0.1280  0.0000  0.1280  0.0330  0.0000  0.0243  0.0000  0.0000 </r>
        <r>  0.0371  0.0783  0.0000  0.0783  0.0000  0.0000  0.0000  0.0000  0.0000 </r>
       </set>
       <set comment="band 9">
        <r>  0.0000  0.1647  0.0000  0.1647  0.0000  0.0000  0.0000  0.0000  0.0042 </r>
        <r>  0.0000  0.1025  0.0000  0.1025  0.0000  0.0000  0.0000  0.0000  0.0000 </r>
       </set>
       <set comment="band 10">
        <r>  0.0359  0.0178  0.0000  0.0178  0.0021  0.0000  0.5050  0.0000  0.0000 </r>
        <r>  0.1122  0.0227  0.0000  0.0227  0.0000  0.0000  0.0000  0.0000  0.0000 </r>
       </set>
       <set comment="band 11">
        <r>  0.0000  0.0010  0.0000  0.0010  0.0000  0.0000  0.0000  0.0000  0.7291 </r>
        <r>  0.0000  0.0210  0.0000  0.0210  0.0000  0.0000  0.0000  0.0000  0.0000 </r>
       </set>
       <set comment="band 12">
        <r>  0.0000  0.0000  0.0000  0.0000  0.0000  0.2289  0.0000  0.2289  0.0000 </r>
        <r>  0.0000  0.0000  0.0000  0.0000  0.0000  0.0000  0.0000  0.0000  0.0000 </r>
       </set>
       <set comment="band 13">
        <r>  0.0000  0.0000  0.0939  0.0000  0.0000  0.3131  0.0000  0.3131  0.0000 </r>
        <r>  0.0000  0.0000  0.0158  0.0000  0.0000  0.0000  0.0000  0.0000  0.0000 </r>
       </set>
       <set comment="band 14">
        <r>  0.0000  0.0000  0.0003  0.0000  0.0000  0.1723  0.0000  0.1723  0.0000 </r>
        <r>  0.0000  0.0000  0.0117  0.0000  0.0000  0.0000  0.0000  0.0000  0.0000 </r>
       </set>
       <set comment="band 15">
        <r>  0.0000  0.0000  0.0000  0.0000  0.0000  0.3752  0.0000  0.3752  0.0000 </r>
        <r>  0.0000  0.0000  0.0000  0.0000  0.0000  0.0000  0.0000  0.0000  0.0000 </r>
       </set>
       <set comment="band 16">
        <r>  0.0000  0.0000  0.0000  0.0000  0.0000  0.0029  0.0000  0.0029  0.0000 </r>
        <r>  0.0000  0.0000  0.0000  0.0000  0.0000  0.0000  0.0000  0.0000  0.0000 </r>
       </set>
       <set comment="band 17">
        <r>  0.0552  0.0779  0.0000  0.0779  0.0014  0.0000  0.0335  0.0000  0.0000 </r>
        <r>  0.0003  0.0066  0.0000  0.0066  0.0000  0.0000  0.0000  0.0000  0.0000 </r>
       </set>
       <set comment="band 18">
        <r>  0.0000  0.0000  0.2399  0.0000  0.0000  0.0825  0.0000  0.0825  0.0000 </r>
        <r>  0.0000  0.0000  0.0131  0.0000  0.0000  0.0000  0.0000  0.0000  0.0000 </r>
       </set>
      </set>
      <set comment="kpoint 17">
       <set comment="band 1">
        <r>  0.0111  0.0035  0.0063  0.0000  0.0000  0.0000  0.0019  0.0000  0.0002 </r>
        <r>  0.7431  0.0002  0.0008  0.0000  0.0000  0.0000  0.0000  0.0000  0.0000 </r>
       </set>
       <set comment="band 2">
        <r>  0.0654  0.0011  0.0117  0.0000  0.0000  0.0035  0.0056  0.0000  0.0012 </r>
        <r>  0.0275  0.1112  0.3642  0.0000  0.0000  0.0000  0.0000  0.0000  0.0000 </r>
       </set>
       <set comment="band 3">
        <r>  0.0000  0.0000  0.0000  0.0418  0.0035  0.0000  0.0000  0.0033  0.0000 </r>
        <r>  0.0000  0.0000  0.0000  0.6210  0.0000  0.0000  0.0000  0.0000  0.0000 </r>
       </set>
       <set comment="band 4">
        <r>  0.0027  0.0081  0.0051  0.0000  0.0000  0.0006  0.0116  0.0000  0.0060 </r>
        <r>  0.0003  0.5292  0.1574  0.0000  0.0000  0.0000  0.0000  0.0000  0.0000 </r>
       </set>
       <set comment="band 5">
        <r>  0.1281  0.0327  0.0272  0.0000  0.0000  0.0002  0.0082  0.0000  0.0009 </r>
        <r>  0.1063  0.0410  0.2129  0.0000  0.0000  0.0000  0.0000  0.0000  0.0000 </r>
       </set>
       <set comment="band 6">
        <r>  0.0000  0.0000  0.0000  0.0333  0.1171  0.0000  0.0000  0.0067  0.0000 </r>
        <r>  0.0000  0.0000  0.0000  0.1213  0.0000  0.0000  0.0000  0.0000  0.0000 </r>
       </set>
       <set comment="band 7">
        <r>  0.1963  0.0113  0.1813  0.0000  0.0000  0.0001  0.0032  0.0000  0.0031 </r>
        <r>  0.0009  0.0585  0.0052  0.0000  0.0000  0.0000  0.0000  0.0000  0.0000 </r>
       </set>
       <set comment="band 8">
        <r>  0.0010  0.2528  0.0462  0.0000  0.0000  0.0324  0.0108  0.0000  0.0067 </r>
        <r>  0.0068  0.0405  0.0724  0.0000  0.0000  0.0000  0.0000  0.0000  0.0000 </r>
       </set>
       <set comment="band 9">
        <r>  0.0000  0.0000  0.0000  0.1243  0.0905  0.0000  0.0000  0.0925  0.0000 </r>
        <r>  0.0000  0.0000  0.0000  0.0818  0.0000  0.0000  0.0000  0.0000  0.0000 </r>
       </set>
       <set comment="band 10">
        <r>  0.0091  0.0211  0.0172  0.0000  0.0000  0.2163  0.0111  0.0000  0.2067 </r>
        <r>  0.0115  0.0456  0.0063  0.0000  0.0000  0.0000  0.0000  0.0000  0.0000 </r>
       </set>
       <set comment="band 11">
        <r>  0.0000  0.0000  0.0000  0.2765  0.0001  0.0000  0.0000  0.2779  0.0000 </r>
        <r>  0.0000  0.0000  0.0000  0.0199  0.0000  0.0000  0.0000  0.0000  0.0000 </r>
       </set>
       <set comment="band 12">
        <r>  0.1024  0.0020  0.0001  0.0000  0.0000  0.1750  0.3126  0.0000  0.1206 </r>
        <r>  0.0222  0.0038  0.0619  0.0000  0.0000  0.0000  0.0000  0.0000  0.0000 </r>
       </set>
       <set comment="band 13">
        <r>  0.0013  0.0393  0.0633  0.0000  0.0000  0.0799  0.1873  0.0000  0.2895 </r>
        <r>  0.0225  0.0487  0.0409  0.0000  0.0000  0.0000  0.0000  0.0000  0.0000 </r>
       </set>
       <set comment="band 14">
        <r>  0.0042  0.1109  0.0115  0.0000  0.0000  0.0040  0.0568  0.0000  0.0001 </r>
        <r>  0.0129  0.0249  0.0129  0.0000  0.0000  0.0000  0.0000  0.0000  0.0000 </r>
       </set>
       <set comment="band 15">
        <r>  0.0000  0.0000  0.0000  0.0077  0.1227  0.0000  0.0000  0.2551  0.0000 </r>
        <r>  0.0000  0.0000  0.0000  0.0326  0.0000  0.0000  0.0000  0.0000  0.0000 </r>
       </set>
       <set comment="band 16">
        <r>  0.0000  0.0000  0.0000  0.0397  0.0440  0.0000  0.0000  0.0060  0.0000 </r>
        <r>  0.0000  0.0000  0.0000  0.0560  0.0000  0.0000  0.0000  0.0000  0.0000 </r>
       </set>
       <set comment="band 17">
        <r>  0.0651  0.0056  0.0352  0.0000  0.0000  0.1608  0.0207  0.0000  0.0920 </r>
        <r>  0.0218  0.0038  0.0024  0.0000  0.0000  0.0000  0.0000  0.0000  0.0000 </r>
       </set>
       <set comment="band 18">
        <r>  0.0004  0.0217  0.0041  0.0000  0.0000  0.0238  0.1203  0.0000  0.0035 </r>
        <r>  0.0073  0.0833  0.0004  0.0000  0.0000  0.0000  0.0000  0.0000  0.0000 </r>
       </set>
      </set>
      <set comment="kpoint 18">
       <set comment="band 1">
        <r>  0.0015  0.0056  0.0041  0.0012  0.0000  0.0000  0.0028  0.0000  0.0007 </r>
        <r>  0.7719  0.0000  0.0002  0.0000  0.0000  0.0000  0.0000  0.0000  0.0000 </r>
       </set>
       <set comment="band 2">
        <r>  0.0643  0.0001  0.0171  0.0064  0.0015  0.0039  0.0008  0.0012  0.0009 </r>
        <r>  0.0048  0.1256  0.2589  0.0808  0.0000  0.0000  0.0000  0.0000  0.0000 </r>
       </set>
       <set comment="band 3">
        <r>  0.0000  0.0001  0.0099  0.0370  0.0035  0.0008  0.0049  0.0007  0.0014 </r>
        <r>  0.0032  0.0001  0.1368  0.4327  0.0000  0.0000  0.0000  0.0000  0.0000 </r>
       </set>
       <set comment="band 4">
        <r>  0.0082  0.0010  0.0088  0.0036  0.0000  0.0001  0.0083  0.0005  0.0109 </r>
        <r>  0.0001  0.4867  0.1325  0.0464  0.0000  0.0000  0.0000  0.0000  0.0000 </r>
       </set>
       <set comment="band 5">
        <r>  0.0247  0.0549  0.0371  0.0263  0.0127  0.0055  0.0045  0.0001  0.0013 </r>
        <r>  0.0648  0.0110  0.1334  0.0395  0.0000  0.0000  0.0000  0.0000  0.0000 </r>
       </set>
       <set comment="band 6">
        <r>  0.0675  0.0004  0.0052  0.0250  0.0501  0.0063  0.0002  0.0047  0.0003 </r>
        <r>  0.0025  0.0693  0.0876  0.1744  0.0000  0.0000  0.0000  0.0000  0.0000 </r>
       </set>
       <set comment="band 7">
        <r>  0.2757  0.0030  0.0884  0.0178  0.0066  0.0053  0.0001  0.0008  0.0035 </r>
        <r>  0.0004  0.0747  0.0038  0.0005  0.0000  0.0000  0.0000  0.0000  0.0000 </r>
       </set>
       <set comment="band 8">
        <r>  0.0011  0.2749  0.0386  0.0148  0.0021  0.0131  0.0041  0.0001  0.0002 </r>
        <r>  0.0212  0.0080  0.0709  0.0172  0.0000  0.0000  0.0000  0.0000  0.0000 </r>
       </set>
       <set comment="band 9">
        <r>  0.0009  0.0001  0.0041  0.1104  0.1462  0.0302  0.0217  0.0258  0.0071 </r>
        <r>  0.0229  0.0001  0.0117  0.0307  0.0000  0.0000  0.0000  0.0000  0.0000 </r>
       </set>
       <set comment="band 10">
        <r>  0.0108  0.0039  0.0783  0.0155  0.0180  0.2020  0.0083  0.0252  0.0542 </r>
        <r>  0.0174  0.0287  0.0060  0.0301  0.0000  0.0000  0.0000  0.0000  0.0000 </r>
       </set>
       <set comment="band 11">
        <r>  0.0400  0.0005  0.0324  0.1106  0.0040  0.0273  0.0034  0.3309  0.0797 </r>
        <r>  0.0018  0.0084  0.0019  0.0003  0.0000  0.0000  0.0000  0.0000  0.0000 </r>
       </set>
       <set comment="band 12">
        <r>  0.0060  0.0457  0.0007  0.0137  0.0080  0.0338  0.5092  0.0184  0.0111 </r>
        <r>  0.0283  0.0321  0.0652  0.0122  0.0000  0.0000  0.0000  0.0000  0.0000 </r>
       </set>
       <set comment="band 13">
        <r>  0.0080  0.0034  0.0244  0.0066  0.0001  0.0105  0.0207  0.0658  0.4496 </r>
        <r>  0.0013  0.0849  0.0008  0.0075  0.0000  0.0000  0.0000  0.0000  0.0000 </r>
       </set>
       <set comment="band 14">
        <r>  0.0183  0.0010  0.0283  0.0454  0.0108  0.0019  0.0089  0.0218  0.0006 </r>
        <r>  0.0050  0.0020  0.0037  0.0388  0.0000  0.0000  0.0000  0.0000  0.0000 </r>
       </set>
       <set comment="band 15">
        <r>  0.0353  0.0306  0.0006  0.0115  0.0074  0.1770  0.0113  0.1434  0.1249 </r>
        <r>  0.0140  0.0045  0.0159  0.0001  0.0000  0.0000  0.0000  0.0000  0.0000 </r>
       </set>
       <set comment="band 16">
        <r>  0.0181  0.0021  0.0119  0.0075  0.3268  0.0437  0.1000  0.1094  0.0066 </r>
        <r>  0.0137  0.0027  0.0022  0.0104  0.0000  0.0000  0.0000  0.0000  0.0000 </r>
       </set>
       <set comment="band 17">
        <r>  0.0228  0.0011  0.0352  0.0058  0.0538  0.1651  0.0156  0.0748  0.0288 </r>
        <r>  0.0139  0.0064  0.0023  0.0193  0.0000  0.0000  0.0000  0.0000  0.0000 </r>
       </set>
       <set comment="band 18">
        <r>  0.0018  0.0000  0.0065  0.0001  0.0914  0.0113  0.0007  0.1618  0.0012 </r>
        <r>  0.0019  0.0001  0.0034  0.0041  0.0000  0.0000  0.0000  0.0000  0.0000 </r>
       </set>
      </set>
      <set comment="kpoint 19">
       <set comment="band 1">
        <r>  0.0027  0.0035  0.0014  0.0000  0.0000  0.0000  0.0060  0.0000  0.0002 </r>
        <r>  0.7804  0.0000  0.0002  0.0000  0.0000  0.0000  0.0000  0.0000  0.0000 </r>
       </set>
       <set comment="band 2">
        <r>  0.0146  0.0004  0.0626  0.0000  0.0000  0.0025  0.0016  0.0000  0.0002 </r>
        <r>  0.0042  0.0208  0.4511  0.0000  0.0000  0.0000  0.0000  0.0000  0.0000 </r>
       </set>
       <set comment="band 3">
        <r>  0.0000  0.0000  0.0000  0.0524  0.0041  0.0000  0.0000  0.0005  0.0000 </r>
        <r>  0.0000  0.0000  0.0000  0.5846  0.0000  0.0000  0.0000  0.0000  0.0000 </r>
       </set>
       <set comment="band 4">
        <r>  0.0266  0.0153  0.0040  0.0000  0.0000  0.0001  0.0034  0.0000  0.0065 </r>
        <r>  0.0000  0.6009  0.0277  0.0000  0.0000  0.0000  0.0000  0.0000  0.0000 </r>
       </set>
       <set comment="band 5">
        <r>  0.0000  0.0000  0.0000  0.0219  0.1311  0.0000  0.0000  0.0003  0.0000 </r>
        <r>  0.0000  0.0000  0.0000  0.1246  0.0000  0.0000  0.0000  0.0000  0.0000 </r>
       </set>
       <set comment="band 6">
        <r>  0.3142  0.0258  0.0035  0.0000  0.0000  0.0015  0.0030  0.0000  0.0016 </r>
        <r>  0.0464  0.0576  0.1049  0.0000  0.0000  0.0000  0.0000  0.0000  0.0000 </r>
       </set>
       <set comment="band 7">
        <r>  0.0918  0.0010  0.1191  0.0000  0.0000  0.0124  0.0009  0.0000  0.0006 </r>
        <r>  0.0010  0.0194  0.2520  0.0000  0.0000  0.0000  0.0000  0.0000  0.0000 </r>
       </set>
       <set comment="band 8">
        <r>  0.0181  0.2908  0.0034  0.0000  0.0000  0.0063  0.0157  0.0000  0.0019 </r>
        <r>  0.0412  0.1023  0.0295  0.0000  0.0000  0.0000  0.0000  0.0000  0.0000 </r>
       </set>
       <set comment="band 9">
        <r>  0.0000  0.0000  0.0000  0.2520  0.0682  0.0000  0.0000  0.0088  0.0000 </r>
        <r>  0.0000  0.0000  0.0000  0.1718  0.0000  0.0000  0.0000  0.0000  0.0000 </r>
       </set>
       <set comment="band 10">
        <r>  0.0003  0.0173  0.0564  0.0000  0.0000  0.2092  0.0738  0.0000  0.1247 </r>
        <r>  0.0305  0.0059  0.0032  0.0000  0.0000  0.0000  0.0000  0.0000  0.0000 </r>
       </set>
       <set comment="band 11">
        <r>  0.0293  0.0281  0.0085  0.0000  0.0000  0.0972  0.4249  0.0000  0.0033 </r>
        <r>  0.0626  0.0419  0.0351  0.0000  0.0000  0.0000  0.0000  0.0000  0.0000 </r>
       </set>
       <set comment="band 12">
        <r>  0.0009  0.0000  0.0261  0.0000  0.0000  0.0568  0.0267  0.0000  0.5640 </r>
        <r>  0.0026  0.0664  0.0020  0.0000  0.0000  0.0000  0.0000  0.0000  0.0000 </r>
       </set>
       <set comment="band 13">
        <r>  0.0000  0.0000  0.0000  0.0433  0.0002  0.0000  0.0000  0.8763  0.0000 </r>
        <r>  0.0000  0.0000  0.0000  0.0002  0.0000  0.0000  0.0000  0.0000  0.0000 </r>
       </set>
       <set comment="band 14">
        <r>  0.0000  0.0000  0.0000  0.0501  0.0045  0.0000  0.0000  0.0011  0.0000 </r>
        <r>  0.0000  0.0000  0.0000  0.0128  0.0000  0.0000  0.0000  0.0000  0.0000 </r>
       </set>
       <set comment="band 15">
        <r>  0.0404  0.0456  0.0390  0.0000  0.0000  0.2335  0.0045  0.0000  0.0147 </r>
        <r>  0.0001  0.0000  0.0018  0.0000  0.0000  0.0000  0.0000  0.0000  0.0000 </r>
       </set>
       <set comment="band 16">
        <r>  0.0012  0.0115  0.0994  0.0000  0.0000  0.1505  0.0180  0.0000  0.0426 </r>
        <r>  0.0062  0.0045  0.0240  0.0000  0.0000  0.0000  0.0000  0.0000  0.0000 </r>
       </set>
       <set comment="band 17">
        <r>  0.0000  0.0000  0.0000  0.0926  0.0019  0.0000  0.0000  0.2705  0.0000 </r>
        <r>  0.0000  0.0000  0.0000  0.0152  0.0000  0.0000  0.0000  0.0000  0.0000 </r>
       </set>
       <set comment="band 18">
        <r>  0.0000  0.0000  0.0000  0.0366  0.4542  0.0000  0.0000  0.0064  0.0000 </r>
        <r>  0.0000  0.0000  0.0000  0.0249  0.0000  0.0000  0.0000  0.0000  0.0000 </r>
       </set>
      </set>
      <set comment="kpoint 20">
       <set comment="band 1">
        <r>  0.0001  0.0056  0.0000  0.0012  0.0000  0.0000  0.0051  0.0000  0.0007 </r>
        <r>  0.7851  0.0000  0.0000  0.0000  0.0000  0.0000  0.0000  0.0000  0.0000 </r>
       </set>
       <set comment="band 2">
        <r>  0.0000  0.0000  0.0683  0.0000  0.0000  0.0041  0.0000  0.0006  0.0000 </r>
        <r>  0.0000  0.0000  0.5033  0.0000  0.0000  0.0000  0.0000  0.0000  0.0000 </r>
       </set>
       <set comment="band 3">
        <r>  0.0328  0.0007  0.0000  0.0387  0.0052  0.0000  0.0022  0.0000  0.0000 </r>
        <r>  0.0008  0.1182  0.0000  0.3966  0.0000  0.0000  0.0000  0.0000  0.0000 </r>
       </set>
       <set comment="band 4">
        <r>  0.0246  0.0019  0.0000  0.0137  0.0001  0.0000  0.0015  0.0000  0.0127 </r>
        <r>  0.0001  0.4861  0.0000  0.1441  0.0000  0.0000  0.0000  0.0000  0.0000 </r>
       </set>
       <set comment="band 5">
        <r>  0.0049  0.0280  0.0000  0.0552  0.0678  0.0000  0.0012  0.0000  0.0007 </r>
        <r>  0.0196  0.0038  0.0000  0.1848  0.0000  0.0000  0.0000  0.0000  0.0000 </r>
       </set>
       <set comment="band 6">
        <r>  0.0000  0.0000  0.0810  0.0000  0.0000  0.0452  0.0000  0.0018  0.0000 </r>
        <r>  0.0000  0.0000  0.3263  0.0000  0.0000  0.0000  0.0000  0.0000  0.0000 </r>
       </set>
       <set comment="band 7">
        <r>  0.4065  0.0044  0.0000  0.0027  0.0012  0.0000  0.0010  0.0000  0.0036 </r>
        <r>  0.0031  0.1549  0.0000  0.0288  0.0000  0.0000  0.0000  0.0000  0.0000 </r>
       </set>
       <set comment="band 8">
        <r>  0.0067  0.2967  0.0000  0.0102  0.0178  0.0000  0.0148  0.0000  0.0002 </r>
        <r>  0.0708  0.0152  0.0000  0.0257  0.0000  0.0000  0.0000  0.0000  0.0000 </r>
       </set>
       <set comment="band 9">
        <r>  0.0038  0.0043  0.0000  0.1967  0.1391  0.0000  0.0228  0.0000  0.0016 </r>
        <r>  0.0172  0.0039  0.0000  0.0826  0.0000  0.0000  0.0000  0.0000  0.0000 </r>
       </set>
       <set comment="band 10">
        <r>  0.0000  0.0000  0.1219  0.0000  0.0000  0.2325  0.0000  0.0170  0.0000 </r>
        <r>  0.0000  0.0000  0.0555  0.0000  0.0000  0.0000  0.0000  0.0000  0.0000 </r>
       </set>
       <set comment="band 11">
        <r>  0.0007  0.0658  0.0000  0.0085  0.0130  0.0000  0.4211  0.0000  0.1363 </r>
        <r>  0.0595  0.0011  0.0000  0.0359  0.0000  0.0000  0.0000  0.0000  0.0000 </r>
       </set>
       <set comment="band 12">
        <r>  0.0075  0.0000  0.0000  0.0082  0.0006  0.0000  0.1314  0.0000  0.5105 </r>
        <r>  0.0007  0.1624  0.0000  0.0015  0.0000  0.0000  0.0000  0.0000  0.0000 </r>
       </set>
       <set comment="band 13">
        <r>  0.0000  0.0000  0.0928  0.0000  0.0000  0.0126  0.0000  0.6673  0.0000 </r>
        <r>  0.0000  0.0000  0.0071  0.0000  0.0000  0.0000  0.0000  0.0000  0.0000 </r>
       </set>
       <set comment="band 14">
        <r>  0.0000  0.0000  0.0087  0.0000  0.0000  0.0043  0.0000  0.1940  0.0000 </r>
        <r>  0.0000  0.0000  0.0163  0.0000  0.0000  0.0000  0.0000  0.0000  0.0000 </r>
       </set>
       <set comment="band 15">
        <r>  0.0944  0.0007  0.0000  0.0714  0.0698  0.0000  0.0423  0.0000  0.0210 </r>
        <r>  0.0009  0.0038  0.0000  0.0047  0.0000  0.0000  0.0000  0.0000  0.0000 </r>
       </set>
       <set comment="band 16">
        <r>  0.0000  0.0000  0.0547  0.0000  0.0000  0.3556  0.0000  0.1671  0.0000 </r>
        <r>  0.0000  0.0000  0.0120  0.0000  0.0000  0.0000  0.0000  0.0000  0.0000 </r>
       </set>
       <set comment="band 17">
        <r>  0.0066  0.0001  0.0000  0.0681  0.2777  0.0000  0.0238  0.0000  0.0669 </r>
        <r>  0.0174  0.0016  0.0000  0.0248  0.0000  0.0000  0.0000  0.0000  0.0000 </r>
       </set>
       <set comment="band 18">
        <r>  0.0000  0.0000  0.0586  0.0000  0.0000  0.3135  0.0000  0.0521  0.0000 </r>
        <r>  0.0000  0.0000  0.0216  0.0000  0.0000  0.0000  0.0000  0.0000  0.0000 </r>
       </set>
      </set>
     </set>
    </set>
   </array>
  </projected>
 </calculation>
 <structure name="finalpos" >
  <crystal>
   <varray name="basis" >
    <v>       0.00000000       2.12337500       2.12337500 </v>
    <v>       2.12337500       0.00000000       2.12337500 </v>
    <v>       2.12337500       2.12337500       0.00000000 </v>
   </varray>
   <i name="volume">     19.14741257 </i>
   <varray name="rec_basis" >
    <v>      -0.23547419       0.23547419       0.23547419 </v>
    <v>       0.23547419      -0.23547419       0.23547419 </v>
    <v>       0.23547419       0.23547419      -0.23547419 </v>
   </varray>
  </crystal>
  <varray name="positions" >
   <v>       0.00000000       0.00000000       0.00000000 </v>
   <v>       0.50000000       0.50000000       0.50000000 </v>
  </varray>
 </structure>
</modeling>
