unknown system                          
           1
     0.000000    2.123375    2.123375
     2.123375    0.000000    2.123375
     2.123375    2.123375    0.000000
   Mg   O 
   1   1
Direct configuration=     1
   0.00000000  0.00000000  0.00000000
   0.50000000  0.50000000  0.50000000
