       N       E                     dE             d eps       ncg     rms          ort
DAV:   1     0.530632065072E+02    0.53063E+02   -0.43658E+03    36   0.298E+02
DAV:   2     0.695441079592E+01   -0.46109E+02   -0.46096E+02    36   0.637E+01
DAV:   3     0.220301600446E+01   -0.47514E+01   -0.47512E+01    36   0.241E+01
DAV:   4     0.138829371801E+01   -0.81472E+00   -0.67678E+00    36   0.752E+00
DAV:   5     0.668020901364E+00   -0.72027E+00   -0.72027E+00    36   0.326E+00
SDA:   6     0.580208843513E+00   -0.87812E-01   -0.67676E+00    36   0.169E+01 0.000E+00
DMP:   7     0.899982015703E-01   -0.49021E+00   -0.30490E+00    36   0.485E+00 0.727E+00
DMP:   8    -0.960237694935E-01   -0.18602E+00   -0.63229E-01    36   0.115E+00 0.113E+00
DMP:   9    -0.136296733407E+00   -0.40273E-01   -0.32902E-01    36   0.804E-01 0.496E-02
DMP:  10    -0.161158667983E+00   -0.24862E-01   -0.19547E-01    36   0.381E-01 0.281E-01
DMP:  11    -0.175457965111E+00   -0.14299E-01   -0.86204E-02    36   0.141E-01 0.195E-01
DMP:  12    -0.182456058309E+00   -0.69981E-02   -0.56469E-02    36   0.866E-02 0.143E-01
DMP:  13    -0.189192038948E+00   -0.67360E-02   -0.66337E-02    36   0.871E-02 0.206E-01
DMP:  14    -0.197183442245E+00   -0.79914E-02   -0.68184E-02    36   0.829E-02 0.229E-01
DMP:  15    -0.204328077977E+00   -0.71446E-02   -0.50867E-02    36   0.589E-02 0.179E-01
DMP:  16    -0.209109789037E+00   -0.47817E-02   -0.29656E-02    36   0.331E-02 0.108E-01
DMP:  17    -0.211721744705E+00   -0.26120E-02   -0.14712E-02    36   0.158E-02 0.549E-02
DMP:  18    -0.212968597061E+00   -0.12469E-02   -0.65733E-03    36   0.685E-03 0.251E-02
DMP:  19    -0.213512701614E+00   -0.54410E-03   -0.27361E-03    36   0.277E-03 0.106E-02
DMP:  20    -0.213735493814E+00   -0.22279E-03   -0.10770E-03    36   0.106E-03 0.427E-03
DMP:  21    -0.213822072197E+00   -0.86578E-04   -0.40415E-04    36   0.389E-04 0.163E-03
DMP:  22    -0.213854725399E+00   -0.32653E-04   -0.16333E-04    36   0.181E-04 0.594E-04
   1 F= -.21385473E+00 E0= -.19974580E+00  d E =-.213855E+00  mag=     1.0000
