<?xml version="1.0" encoding="ISO-8859-1"?>
<modeling>
 <generator>
  <i name="program" type="string">vasp </i>
  <i name="version" type="string">5.4.4.18Apr17-6-g9f103f2a35  </i>
  <i name="subversion" type="string">(build Nov 08 2019 15:19:53) gamma-only         parallel </i>
  <i name="platform" type="string">LinuxIFC </i>
  <i name="date" type="string">2020 11 30 </i>
  <i name="time" type="string">09:30:49 </i>
 </generator>
 <incar>
  <i type="string" name="PREC">accurate</i>
  <i type="string" name="ALGO"> D</i>
  <i type="int" name="ISPIN">     2</i>
  <i type="int" name="NELM">   300</i>
  <i type="int" name="IBRION">     2</i>
  <i name="EDIFF">      0.00005000</i>
  <i type="int" name="NSW">    99</i>
  <i type="int" name="ISIF">     2</i>
  <i name="ENCUT">    520.00000000</i>
  <v name="MAGMOM">      0.60000000</v>
  <i type="string" name="LREAL"> Auto</i>
  <i type="int" name="ISMEAR">     0</i>
  <i name="SIGMA">      0.05000000</i>
  <i type="logical" name="LWAVE"> F  </i>
  <i type="int" name="LORBIT">    11</i>
  <i type="logical" name="LASPH"> T  </i>
  <v type="int" name="KPOINT_BSE">    -1     0     0     0</v>
  <i type="int" name="NELM">   300</i>
  <i type="logical" name="LASPH"> T  </i>
 </incar>
 <structure name="primitive_cell" >
  <crystal>
   <varray name="basis" >
    <v>      10.00000000       0.00000000       0.00000000 </v>
    <v>       0.00000000      10.00000000       0.00000000 </v>
    <v>       0.00000000       0.00000000      10.00000000 </v>
   </varray>
   <i name="volume">   1000.00000000 </i>
   <varray name="rec_basis" >
    <v>       0.10000000       0.00000000       0.00000000 </v>
    <v>       0.00000000       0.10000000       0.00000000 </v>
    <v>       0.00000000       0.00000000       0.10000000 </v>
   </varray>
  </crystal>
  <varray name="positions" >
   <v>      -0.50000000      -0.50000000      -0.50000000 </v>
  </varray>
 </structure>
 <varray name="primitive_index" >
  <v type="int" >        1 </v>
 </varray>
 <kpoints>
  <generation param="Gamma">
   <v type="int" name="divisions">       1        1        1 </v>
   <v name="usershift">      0.00000000       0.00000000       0.00000000 </v>
   <v name="genvec1">      1.00000000       0.00000000       0.00000000 </v>
   <v name="genvec2">      0.00000000       1.00000000       0.00000000 </v>
   <v name="genvec3">      0.00000000       0.00000000       1.00000000 </v>
   <v name="shift">      0.00000000       0.00000000       0.00000000 </v>
  </generation>
  <varray name="kpointlist" >
   <v>       0.00000000       0.00000000       0.00000000 </v>
  </varray>
  <varray name="weights" >
   <v>       1.00000000 </v>
  </varray>
 </kpoints>
 <parameters>
  <separator name="general" >
   <i type="string" name="SYSTEM">unknown system</i>
   <i type="logical" name="LCOMPAT"> F  </i>
  </separator>
  <separator name="electronic" >
   <i type="string" name="PREC">accura</i>
   <i name="ENMAX">    520.00000000</i>
   <i name="ENAUG">    490.69000000</i>
   <i name="EDIFF">      0.00005000</i>
   <i type="int" name="IALGO">    53</i>
   <i type="int" name="IWAVPR">    11</i>
   <i type="int" name="NBANDS">    36</i>
   <i name="NELECT">     13.00000000</i>
   <i type="int" name="TURBO">     0</i>
   <i type="int" name="IRESTART">     0</i>
   <i type="int" name="NREBOOT">     0</i>
   <i type="int" name="NMIN">     0</i>
   <i name="EREF">      0.00000000</i>
   <separator name="electronic smearing" >
    <i type="int" name="ISMEAR">     0</i>
    <i name="SIGMA">      0.05000000</i>
    <i name="KSPACING">      0.50000000</i>
    <i type="logical" name="KGAMMA"> T  </i>
   </separator>
   <separator name="electronic projectors" >
    <i type="logical" name="LREAL"> T  </i>
    <v name="ROPT">     -0.00025000</v>
    <i type="int" name="LMAXPAW">  -100</i>
    <i type="int" name="LMAXMIX">     2</i>
    <i type="logical" name="NLSPLINE"> F  </i>
   </separator>
   <separator name="electronic startup" >
    <i type="int" name="ISTART">     0</i>
    <i type="int" name="ICHARG">     2</i>
    <i type="int" name="INIWAV">     1</i>
   </separator>
   <separator name="electronic spin" >
    <i type="int" name="ISPIN">     2</i>
    <i type="logical" name="LNONCOLLINEAR"> F  </i>
    <v name="MAGMOM">      0.60000000</v>
    <i name="NUPDOWN">     -1.00000000</i>
    <i type="logical" name="LSORBIT"> F  </i>
    <v name="SAXIS">      0.00000000      0.00000000      1.00000000</v>
    <i type="logical" name="LSPIRAL"> F  </i>
    <v name="QSPIRAL">      0.00000000      0.00000000      0.00000000</v>
    <i type="logical" name="LZEROZ"> F  </i>
   </separator>
   <separator name="electronic exchange-correlation" >
    <i type="logical" name="LASPH"> T  </i>
    <i type="logical" name="LMETAGGA"> F  </i>
   </separator>
   <separator name="electronic convergence" >
    <i type="int" name="NELM">   300</i>
    <i type="int" name="NELMDL">    -5</i>
    <i type="int" name="NELMIN">     2</i>
    <i name="ENINI">    520.00000000</i>
    <separator name="electronic convergence detail" >
     <i type="logical" name="LDIAG"> T  </i>
     <i type="logical" name="LSUBROT"> F  </i>
     <i name="WEIMIN">      0.00100000</i>
     <i name="EBREAK">      0.00000035</i>
     <i name="DEPER">      0.30000000</i>
     <i type="int" name="NRMM">     4</i>
     <i name="TIME">      0.40000000</i>
    </separator>
   </separator>
   <separator name="electronic mixer" >
    <i name="AMIX">      0.40000000</i>
    <i name="BMIX">      1.00000000</i>
    <i name="AMIN">      0.10000000</i>
    <i name="AMIX_MAG">      1.60000000</i>
    <i name="BMIX_MAG">      1.00000000</i>
    <separator name="electronic mixer details" >
     <i type="int" name="IMIX">     4</i>
     <i type="logical" name="MIXFIRST"> F  </i>
     <i type="int" name="MAXMIX">   -45</i>
     <i name="WC">    100.00000000</i>
     <i type="int" name="INIMIX">     1</i>
     <i type="int" name="MIXPRE">     1</i>
     <i type="int" name="MREMOVE">     5</i>
    </separator>
   </separator>
   <separator name="electronic dipolcorrection" >
    <i type="logical" name="LDIPOL"> F  </i>
    <i type="logical" name="LMONO"> F  </i>
    <i type="int" name="IDIPOL">     0</i>
    <i name="EPSILON">      1.00000000</i>
    <v name="DIPOL">   -100.00000000   -100.00000000   -100.00000000</v>
    <i name="EFIELD">      0.00000000</i>
   </separator>
  </separator>
  <separator name="grids" >
   <i type="int" name="NGX">    80</i>
   <i type="int" name="NGY">    80</i>
   <i type="int" name="NGZ">    80</i>
   <i type="int" name="NGXF">   160</i>
   <i type="int" name="NGYF">   160</i>
   <i type="int" name="NGZF">   160</i>
   <i type="logical" name="ADDGRID"> F  </i>
  </separator>
  <separator name="ionic" >
   <i type="int" name="NSW">    99</i>
   <i type="int" name="IBRION">     2</i>
   <i type="int" name="MDALGO">     0</i>
   <i type="int" name="ISIF">     2</i>
   <i name="PSTRESS">      0.00000000</i>
   <i name="EDIFFG">      0.00050000</i>
   <i type="int" name="NFREE">     1</i>
   <i name="POTIM">      0.50000000</i>
   <i name="SMASS">     -3.00000000</i>
   <i name="SCALEE">      1.00000000</i>
  </separator>
  <separator name="ionic md" >
   <i name="TEBEG">      0.00010000</i>
   <i name="TEEND">      0.00010000</i>
   <i type="int" name="NBLOCK">     1</i>
   <i type="int" name="KBLOCK">    99</i>
   <i type="int" name="NPACO">   256</i>
   <i name="APACO">     16.00000000</i>
  </separator>
  <separator name="symmetry" >
   <i type="int" name="ISYM">     2</i>
   <i name="SYMPREC">      0.00001000</i>
  </separator>
  <separator name="dos" >
   <i type="int" name="LORBIT">    11</i>
   <v name="RWIGS">     -1.00000000</v>
   <i type="int" name="NEDOS">   301</i>
   <i name="EMIN">     10.00000000</i>
   <i name="EMAX">    -10.00000000</i>
   <i name="EFERMI">      0.00000000</i>
  </separator>
  <separator name="writing" >
   <i type="int" name="NWRITE">     2</i>
   <i type="logical" name="LWAVE"> F  </i>
   <i type="logical" name="LDOWNSAMPLE"> F  </i>
   <i type="logical" name="LCHARG"> T  </i>
   <i type="logical" name="LPARD"> F  </i>
   <i type="logical" name="LVTOT"> F  </i>
   <i type="logical" name="LVHAR"> F  </i>
   <i type="logical" name="LELF"> F  </i>
   <i type="logical" name="LOPTICS"> F  </i>
   <v name="STM">      0.00000000      0.00000000      0.00000000      0.00000000      0.00000000      0.00000000      0.00000000</v>
  </separator>
  <separator name="performance" >
   <i type="int" name="NPAR">    36</i>
   <i type="int" name="NSIM">     4</i>
   <i type="int" name="NBLK">    -1</i>
   <i type="logical" name="LPLANE"> T  </i>
   <i type="logical" name="LSCALAPACK"> T  </i>
   <i type="logical" name="LSCAAWARE"> F  </i>
   <i type="logical" name="LSCALU"> F  </i>
   <i type="logical" name="LASYNC"> F  </i>
   <i type="logical" name="LORBITALREAL"> F  </i>
  </separator>
  <separator name="miscellaneous" >
   <i type="int" name="IDIOT">     3</i>
   <i type="int" name="ISPECIAL">     0</i>
   <i type="logical" name="LMUSIC"> F  </i>
   <v name="POMASS">     69.72300000</v>
   <v name="DARWINR">      0.00000000</v>
   <v name="DARWINV">      1.00000000</v>
   <i type="logical" name="LCORR"> T  </i>
  </separator>
  <i type="logical" name="GGA_COMPAT"> T  </i>
  <i type="logical" name="LBERRY"> F  </i>
  <i type="int" name="ICORELEVEL">     0</i>
  <i type="logical" name="LDAU"> F  </i>
  <i type="int" name="I_CONSTRAINED_M">     0</i>
  <separator name="electronic exchange-correlation" >
   <i type="string" name="GGA">--</i>
   <i type="int" name="VOSKOWN">     0</i>
   <i type="logical" name="LHFCALC"> F  </i>
   <i type="string" name="PRECFOCK"></i>
   <i type="logical" name="LSYMGRAD"> F  </i>
   <i type="logical" name="LHFONE"> F  </i>
   <i type="logical" name="LRHFCALC"> F  </i>
   <i type="logical" name="LTHOMAS"> F  </i>
   <i type="logical" name="LMODELHF"> F  </i>
   <i name="ENCUT4O">     -1.00000000</i>
   <i type="int" name="EXXOEP">     0</i>
   <i type="int" name="FOURORBIT">     0</i>
   <i name="AEXX">      0.00000000</i>
   <i name="HFALPHA">      0.00000000</i>
   <i name="MCALPHA">      0.00000000</i>
   <i name="ALDAX">      1.00000000</i>
   <i name="AGGAX">      1.00000000</i>
   <i name="ALDAC">      1.00000000</i>
   <i name="AGGAC">      1.00000000</i>
   <i type="int" name="NKREDX">     1</i>
   <i type="int" name="NKREDY">     1</i>
   <i type="int" name="NKREDZ">     1</i>
   <i type="logical" name="SHIFTRED"> F  </i>
   <i type="logical" name="ODDONLY"> F  </i>
   <i type="logical" name="EVENONLY"> F  </i>
   <i type="int" name="LMAXFOCK">     0</i>
   <i type="int" name="NMAXFOCKAE">     0</i>
   <i type="logical" name="LFOCKAEDFT"> F  </i>
   <i name="HFSCREEN">      0.00000000</i>
   <i name="HFSCREENC">      0.00000000</i>
   <i type="int" name="NBANDSGWLOW">     0</i>
  </separator>
  <separator name="vdW DFT" >
   <i type="logical" name="LUSE_VDW"> F  </i>
   <i name="Zab_VDW">     -0.84910000</i>
   <i name="PARAM1">      0.12340000</i>
   <i name="PARAM2">      1.00000000</i>
   <i name="PARAM3">      0.00000000</i>
  </separator>
  <separator name="model GW" >
   <i type="int" name="MODEL_GW">     0</i>
   <i name="MODEL_EPS0">    600.00000000</i>
   <i name="MODEL_ALPHA">      1.00000000</i>
  </separator>
  <separator name="linear response parameters" >
   <i type="logical" name="LEPSILON"> F  </i>
   <i type="logical" name="LRPA"> F  </i>
   <i type="logical" name="LNABLA"> F  </i>
   <i type="logical" name="LVEL"> F  </i>
   <i type="int" name="KINTER">     0</i>
   <i name="CSHIFT">      0.10000000</i>
   <i name="OMEGAMAX">     -1.00000000</i>
   <i name="DEG_THRESHOLD">      0.00200000</i>
   <i name="RTIME">     -0.10000000</i>
   <i name="WPLASMAI">      0.00000000</i>
   <v name="DFIELD">      0.00000000      0.00000000      0.00000000</v>
   <v name="WPLASMA">      0.00000000      0.00000000      0.00000000      0.00000000      0.00000000      0.00000000      0.00000000      0.00000000      0.00000000</v>
  </separator>
  <separator name="orbital magnetization" >
   <i type="logical" name="NUCIND"> F  </i>
   <v name="MAGPOS">      0.00000000      0.00000000      0.00000000</v>
   <i type="logical" name="LNICSALL"> T  </i>
   <i type="logical" name="ORBITALMAG"> F  </i>
   <i type="logical" name="LMAGBLOCH"> F  </i>
   <i type="logical" name="LCHIMAG"> F  </i>
   <i type="logical" name="LGAUGE"> T  </i>
   <i type="int" name="MAGATOM">     0</i>
   <v name="MAGDIPOL">      0.00000000      0.00000000      0.00000000</v>
   <v name="AVECCONST">      0.00000000      0.00000000      0.00000000</v>
  </separator>
  <separator name="response functions" >
   <i type="logical" name="LADDER"> F  </i>
   <i type="logical" name="LRPAFORCE"> F  </i>
   <i type="logical" name="LFXC"> F  </i>
   <i type="logical" name="LHARTREE"> T  </i>
   <i type="int" name="IBSE">     0</i>
   <v type="int" name="KPOINT">    -1     0     0     0</v>
   <i type="logical" name="LTCTE"> F  </i>
   <i type="logical" name="LTETE"> F  </i>
   <i type="logical" name="LTRIPLET"> F  </i>
   <i type="logical" name="LFXCEPS"> F  </i>
   <i type="logical" name="LFXHEG"> F  </i>
   <i type="int" name="NATURALO">     2</i>
   <i type="logical" name="L2ORDER"> F  </i>
   <i type="logical" name="LMP2LT"> F  </i>
   <i type="logical" name="LUSEW"> F  </i>
   <i name="ENCUTGW">     -2.00000000</i>
   <i name="ENCUTGWSOFT">     -2.00000000</i>
   <i name="ENCUTLF">     -1.00000000</i>
   <i type="int" name="LMAXMP2">    -1</i>
   <i name="SCISSOR">      0.00000000</i>
   <i type="int" name="NOMEGA">     0</i>
   <i type="int" name="NOMEGAR">     0</i>
   <i type="int" name="NBANDSGW">    -1</i>
   <i type="int" name="NBANDSO">    -1</i>
   <i type="int" name="NBANDSV">    -1</i>
   <i type="int" name="NELM">   300</i>
   <i type="int" name="NELMHF">     1</i>
   <i type="int" name="DIM">     3</i>
   <i type="int" name="ANTIRES">     0</i>
   <i name="OMEGAMAX">    -30.00000000</i>
   <i name="OMEGAMIN">    -30.00000000</i>
   <i name="OMEGATL">   -200.00000000</i>
   <i type="int" name="OMEGAGRID">   140</i>
   <i name="CSHIFT">     -0.10000000</i>
   <i type="logical" name="SELFENERGY"> F  </i>
   <i type="logical" name="LSPECTRAL"> F  </i>
   <i type="logical" name="LSPECTRALGW"> F  </i>
   <i type="logical" name="LSINGLES"> F  </i>
   <i type="logical" name="LFERMIGW"> F  </i>
   <i type="logical" name="ODDONLYGW"> F  </i>
   <i type="logical" name="EVENONLYGW"> F  </i>
   <i type="int" name="NKREDLFX">     1</i>
   <i type="int" name="NKREDLFY">     1</i>
   <i type="int" name="NKREDLFZ">     1</i>
   <i type="int" name="MAXMEM">  2800</i>
   <i type="int" name="TELESCOPE">     0</i>
   <i type="int" name="TAUPAR">     1</i>
   <i type="int" name="OMEGAPAR">    -1</i>
   <i name="LAMBDA">      1.00000000</i>
  </separator>
  <separator name="External order field" >
   <i name="OFIELD_KAPPA">      0.00000000</i>
   <v name="OFIELD_K">      0.00000000      0.00000000      0.00000000</v>
   <i name="OFIELD_Q6_NEAR">      0.00000000</i>
   <i name="OFIELD_Q6_FAR">      0.00000000</i>
   <i name="OFIELD_A">      0.00000000</i>
  </separator>
 </parameters>
 <atominfo>
  <atoms>       1 </atoms>
  <types>       1 </types>
  <array name="atoms" >
   <dimension dim="1">ion</dimension>
   <field type="string">element</field>
   <field type="int">atomtype</field>
   <set>
    <rc><c>Ga</c><c>   1</c></rc>
   </set>
  </array>
  <array name="atomtypes" >
   <dimension dim="1">type</dimension>
   <field type="int">atomspertype</field>
   <field type="string">element</field>
   <field>mass</field>
   <field>valence</field>
   <field type="string">pseudopotential</field>
   <set>
    <rc><c>   1</c><c>Ga</c><c>     69.72300000</c><c>     13.00000000</c><c>  PAW_PBE Ga_d 06Jul2010                </c></rc>
   </set>
  </array>
 </atominfo>
 <structure name="initialpos" >
  <crystal>
   <varray name="basis" >
    <v>      10.00000000       0.00000000       0.00000000 </v>
    <v>       0.00000000      10.00000000       0.00000000 </v>
    <v>       0.00000000       0.00000000      10.00000000 </v>
   </varray>
   <i name="volume">   1000.00000000 </i>
   <varray name="rec_basis" >
    <v>       0.10000000       0.00000000       0.00000000 </v>
    <v>       0.00000000       0.10000000       0.00000000 </v>
    <v>       0.00000000       0.00000000       0.10000000 </v>
   </varray>
  </crystal>
  <varray name="positions" >
   <v>       0.50000000       0.50000000       0.50000000 </v>
  </varray>
 </structure>
 <calculation>
  <scstep>
   <time name="total">    1.09    1.09</time>
   <energy>
    <i name="alphaZ">      1.35037513 </i>
    <i name="ewald">   -345.23725609 </i>
    <i name="hartreedc">  -1304.41008650 </i>
    <i name="XCdc">     42.17524327 </i>
    <i name="pawpsdc">   1603.12254760 </i>
    <i name="pawaedc">  -1936.66470860 </i>
    <i name="eentropy">     -0.00002061 </i>
    <i name="bandstr">   -156.10009457 </i>
    <i name="atom">   2148.82720688 </i>
    <i name="e_fr_energy">     53.06320651 </i>
    <i name="e_wo_entrp">     53.06322711 </i>
    <i name="e_0_energy">     53.06321681 </i>
   </energy>
  </scstep>
  <scstep>
   <time name="total">    0.54    0.54</time>
   <energy>
    <i name="e_fr_energy">      6.95441080 </i>
    <i name="e_wo_entrp">      6.97834201 </i>
    <i name="e_0_energy">      6.96637641 </i>
   </energy>
  </scstep>
  <scstep>
   <time name="total">    0.50    0.50</time>
   <energy>
    <i name="e_fr_energy">      2.20301600 </i>
    <i name="e_wo_entrp">      2.22841679 </i>
    <i name="e_0_energy">      2.21571640 </i>
   </energy>
  </scstep>
  <scstep>
   <time name="total">    0.50    0.50</time>
   <energy>
    <i name="e_fr_energy">      1.38829372 </i>
    <i name="e_wo_entrp">      1.38829372 </i>
    <i name="e_0_energy">      1.38829372 </i>
   </energy>
  </scstep>
  <scstep>
   <time name="total">    0.74    0.74</time>
   <energy>
    <i name="e_fr_energy">      0.66802090 </i>
    <i name="e_wo_entrp">      0.66802090 </i>
    <i name="e_0_energy">      0.66802090 </i>
   </energy>
  </scstep>
  <scstep>
   <time name="total">    1.16    1.19</time>
   <energy>
    <i name="e_fr_energy">      0.58020884 </i>
    <i name="e_wo_entrp">      0.58020884 </i>
    <i name="e_0_energy">      0.58020884 </i>
   </energy>
  </scstep>
  <scstep>
   <time name="total">    1.16    1.16</time>
   <energy>
    <i name="e_fr_energy">      0.08999820 </i>
    <i name="e_wo_entrp">      0.08999820 </i>
    <i name="e_0_energy">      0.08999820 </i>
   </energy>
  </scstep>
  <scstep>
   <time name="total">    1.17    1.17</time>
   <energy>
    <i name="e_fr_energy">     -0.09602377 </i>
    <i name="e_wo_entrp">     -0.09602375 </i>
    <i name="e_0_energy">     -0.09602376 </i>
   </energy>
  </scstep>
  <scstep>
   <time name="total">    1.15    1.15</time>
   <energy>
    <i name="e_fr_energy">     -0.13629673 </i>
    <i name="e_wo_entrp">     -0.13629334 </i>
    <i name="e_0_energy">     -0.13629504 </i>
   </energy>
  </scstep>
  <scstep>
   <time name="total">    1.17    1.17</time>
   <energy>
    <i name="e_fr_energy">     -0.16115867 </i>
    <i name="e_wo_entrp">     -0.16102217 </i>
    <i name="e_0_energy">     -0.16109042 </i>
   </energy>
  </scstep>
  <scstep>
   <time name="total">    1.15    1.15</time>
   <energy>
    <i name="e_fr_energy">     -0.17545797 </i>
    <i name="e_wo_entrp">     -0.17398255 </i>
    <i name="e_0_energy">     -0.17472026 </i>
   </energy>
  </scstep>
  <scstep>
   <time name="total">    1.15    1.15</time>
   <energy>
    <i name="e_fr_energy">     -0.18245606 </i>
    <i name="e_wo_entrp">     -0.17640645 </i>
    <i name="e_0_energy">     -0.17943126 </i>
   </energy>
  </scstep>
  <scstep>
   <time name="total">    1.14    1.14</time>
   <energy>
    <i name="e_fr_energy">     -0.18919204 </i>
    <i name="e_wo_entrp">     -0.17595340 </i>
    <i name="e_0_energy">     -0.18257272 </i>
   </energy>
  </scstep>
  <scstep>
   <time name="total">    1.16    1.16</time>
   <energy>
    <i name="e_fr_energy">     -0.19718344 </i>
    <i name="e_wo_entrp">     -0.17730931 </i>
    <i name="e_0_energy">     -0.18724638 </i>
   </energy>
  </scstep>
  <scstep>
   <time name="total">    1.15    1.15</time>
   <energy>
    <i name="e_fr_energy">     -0.20432808 </i>
    <i name="e_wo_entrp">     -0.18012445 </i>
    <i name="e_0_energy">     -0.19222627 </i>
   </energy>
  </scstep>
  <scstep>
   <time name="total">    1.14    1.14</time>
   <energy>
    <i name="e_fr_energy">     -0.20910979 </i>
    <i name="e_wo_entrp">     -0.18263486 </i>
    <i name="e_0_energy">     -0.19587232 </i>
   </energy>
  </scstep>
  <scstep>
   <time name="total">    1.14    1.14</time>
   <energy>
    <i name="e_fr_energy">     -0.21172174 </i>
    <i name="e_wo_entrp">     -0.18420798 </i>
    <i name="e_0_energy">     -0.19796486 </i>
   </energy>
  </scstep>
  <scstep>
   <time name="total">    1.14    1.14</time>
   <energy>
    <i name="e_fr_energy">     -0.21296860 </i>
    <i name="e_wo_entrp">     -0.18502135 </i>
    <i name="e_0_energy">     -0.19899497 </i>
   </energy>
  </scstep>
  <scstep>
   <time name="total">    1.14    1.14</time>
   <energy>
    <i name="e_fr_energy">     -0.21351270 </i>
    <i name="e_wo_entrp">     -0.18539663 </i>
    <i name="e_0_energy">     -0.19945466 </i>
   </energy>
  </scstep>
  <scstep>
   <time name="total">    1.16    1.16</time>
   <energy>
    <i name="e_fr_energy">     -0.21373549 </i>
    <i name="e_wo_entrp">     -0.18555743 </i>
    <i name="e_0_energy">     -0.19964646 </i>
   </energy>
  </scstep>
  <scstep>
   <time name="total">    1.15    1.15</time>
   <energy>
    <i name="e_fr_energy">     -0.21382207 </i>
    <i name="e_wo_entrp">     -0.18562194 </i>
    <i name="e_0_energy">     -0.19972200 </i>
   </energy>
  </scstep>
  <scstep>
   <time name="total">    1.22    1.22</time>
   <energy>
    <i name="alphaZ">      1.35037513 </i>
    <i name="ewald">   -345.23725609 </i>
    <i name="hartreedc">  -1305.65675060 </i>
    <i name="XCdc">     42.26269724 </i>
    <i name="pawpsdc">   1605.21269048 </i>
    <i name="pawaedc">  -1938.81664877 </i>
    <i name="eentropy">     -0.02821786 </i>
    <i name="bandstr">   -208.12796886 </i>
    <i name="atom">   2148.82720688 </i>
    <i name="e_fr_energy">     -0.21385473 </i>
    <i name="e_wo_entrp">     -0.18563687 </i>
    <i name="e_0_energy">     -0.19974580 </i>
   </energy>
  </scstep>
  <structure>
   <crystal>
    <varray name="basis" >
     <v>      10.00000000       0.00000000       0.00000000 </v>
     <v>       0.00000000      10.00000000       0.00000000 </v>
     <v>       0.00000000       0.00000000      10.00000000 </v>
    </varray>
    <i name="volume">   1000.00000000 </i>
    <varray name="rec_basis" >
     <v>       0.10000000       0.00000000       0.00000000 </v>
     <v>       0.00000000       0.10000000       0.00000000 </v>
     <v>       0.00000000       0.00000000       0.10000000 </v>
    </varray>
   </crystal>
   <varray name="positions" >
    <v>       0.50000000       0.50000000       0.50000000 </v>
   </varray>
  </structure>
  <varray name="forces" >
   <v>       0.00000000       0.00000000       0.00000000 </v>
  </varray>
  <varray name="stress" >
   <v>       0.04239885       0.00000000       0.00000000 </v>
   <v>       0.00000000       0.04239885       0.00000000 </v>
   <v>      -0.00000000      -0.00000000       0.04239885 </v>
  </varray>
  <energy>
   <i name="e_fr_energy">     -0.21385473 </i>
   <i name="e_wo_entrp">     -0.19974580 </i>
   <i name="e_0_energy">     -0.02821786 </i>
  </energy>
  <time name="totalsc">   31.56   31.82</time>
  <eigenvalues>
   <array>
    <dimension dim="1">band</dimension>
    <dimension dim="2">kpoint</dimension>
    <dimension dim="3">spin</dimension>
    <field>eigene</field>
    <field>occ</field>
    <set>
     <set comment="spin 1">
      <set comment="kpoint 1">
       <r>  -18.8560    1.0000 </r>
       <r>  -18.8560    1.0000 </r>
       <r>  -18.8560    1.0000 </r>
       <r>  -18.8560    1.0000 </r>
       <r>  -18.8560    1.0000 </r>
       <r>   -8.9776    1.0000 </r>
       <r>   -2.6263    0.5057 </r>
       <r>   -2.6263    0.4942 </r>
       <r>   -2.6246    0.0001 </r>
       <r>   -0.6504    0.0000 </r>
       <r>    0.6791    0.0000 </r>
       <r>    0.6792    0.0000 </r>
       <r>    1.0943    0.0000 </r>
       <r>    1.0955    0.0000 </r>
       <r>    1.1187    0.0000 </r>
       <r>    1.2529    0.0000 </r>
       <r>    1.6435    0.0000 </r>
       <r>    1.6437    0.0000 </r>
       <r>    1.6444    0.0000 </r>
       <r>    2.3103    0.0000 </r>
       <r>    2.3162    0.0000 </r>
       <r>    2.3224    0.0000 </r>
       <r>    2.3426    0.0000 </r>
       <r>    2.3438    0.0000 </r>
       <r>    2.9368    0.0000 </r>
       <r>    2.9404    0.0000 </r>
       <r>    2.9553    0.0000 </r>
       <r>    3.0431    0.0000 </r>
       <r>    3.5125    0.0000 </r>
       <r>    3.5204    0.0000 </r>
       <r>    3.5270    0.0000 </r>
       <r>    3.5300    0.0000 </r>
       <r>    4.1545    0.0000 </r>
       <r>    4.1896    0.0000 </r>
       <r>    4.2768    0.0000 </r>
       <r>    4.5666    0.0000 </r>
      </set>
     </set>
     <set comment="spin 2">
      <set comment="kpoint 1">
       <r>  -18.7931    1.0000 </r>
       <r>  -18.7931    1.0000 </r>
       <r>  -18.7931    1.0000 </r>
       <r>  -18.7931    1.0000 </r>
       <r>  -18.7931    1.0000 </r>
       <r>   -8.2782    1.0000 </r>
       <r>   -1.8606    0.0000 </r>
       <r>   -1.8601    0.0000 </r>
       <r>   -1.8591    0.0000 </r>
       <r>   -0.0740    0.0000 </r>
       <r>    1.2678    0.0000 </r>
       <r>    1.2682    0.0000 </r>
       <r>    1.6646    0.0000 </r>
       <r>    1.6808    0.0000 </r>
       <r>    1.6818    0.0000 </r>
       <r>    1.6861    0.0000 </r>
       <r>    2.3263    0.0000 </r>
       <r>    2.3269    0.0000 </r>
       <r>    2.3276    0.0000 </r>
       <r>    2.7991    0.0000 </r>
       <r>    2.7995    0.0000 </r>
       <r>    2.8958    0.0000 </r>
       <r>    2.8966    0.0000 </r>
       <r>    2.9014    0.0000 </r>
       <r>    3.4202    0.0000 </r>
       <r>    3.4293    0.0000 </r>
       <r>    3.5655    0.0000 </r>
       <r>    3.9132    0.0000 </r>
       <r>    3.9316    0.0000 </r>
       <r>    3.9671    0.0000 </r>
       <r>    3.9882    0.0000 </r>
       <r>    4.3094    0.0000 </r>
       <r>    4.6572    0.0000 </r>
       <r>    4.7276    0.0000 </r>
       <r>    4.8023    0.0000 </r>
       <r>    5.2990    0.0000 </r>
      </set>
     </set>
    </set>
   </array>
  </eigenvalues>
  <separator name="orbital magnetization" >
   <v name="MAGDIPOLOUT">      0.00000000      0.00000000      0.00000000</v>
  </separator>
  <dos>
   <i name="efermi">     -2.64095482 </i>
   <total>
    <array>
     <dimension dim="1">gridpoints</dimension>
     <dimension dim="2">spin</dimension>
     <field>energy</field>
     <field>total</field>
     <field>integrated</field>
     <set>
      <set comment="spin 1">
       <r>   -20.0638     0.0000     0.0000 </r>
       <r>   -19.9752     0.0000     0.0000 </r>
       <r>   -19.8867     0.0000     0.0000 </r>
       <r>   -19.7981     0.0000     0.0000 </r>
       <r>   -19.7095     0.0000     0.0000 </r>
       <r>   -19.6210     0.0000     0.0000 </r>
       <r>   -19.5324     0.0000     0.0000 </r>
       <r>   -19.4438     0.0000     0.0000 </r>
       <r>   -19.3553     0.0000     0.0000 </r>
       <r>   -19.2667     0.0000     0.0000 </r>
       <r>   -19.1781     0.0000     0.0000 </r>
       <r>   -19.0895     0.0000     0.0000 </r>
       <r>   -19.0010     0.0012     0.0001 </r>
       <r>   -18.9124     3.1275     0.2771 </r>
       <r>   -18.8238    43.0935     4.0938 </r>
       <r>   -18.7353    10.2133     4.9984 </r>
       <r>   -18.6467     0.0180     5.0000 </r>
       <r>   -18.5581     0.0000     5.0000 </r>
       <r>   -18.4696     0.0000     5.0000 </r>
       <r>   -18.3810     0.0000     5.0000 </r>
       <r>   -18.2924     0.0000     5.0000 </r>
       <r>   -18.2039     0.0000     5.0000 </r>
       <r>   -18.1153     0.0000     5.0000 </r>
       <r>   -18.0267     0.0000     5.0000 </r>
       <r>   -17.9382     0.0000     5.0000 </r>
       <r>   -17.8496     0.0000     5.0000 </r>
       <r>   -17.7610     0.0000     5.0000 </r>
       <r>   -17.6725     0.0000     5.0000 </r>
       <r>   -17.5839     0.0000     5.0000 </r>
       <r>   -17.4953     0.0000     5.0000 </r>
       <r>   -17.4067     0.0000     5.0000 </r>
       <r>   -17.3182     0.0000     5.0000 </r>
       <r>   -17.2296     0.0000     5.0000 </r>
       <r>   -17.1410     0.0000     5.0000 </r>
       <r>   -17.0525     0.0000     5.0000 </r>
       <r>   -16.9639     0.0000     5.0000 </r>
       <r>   -16.8753     0.0000     5.0000 </r>
       <r>   -16.7868     0.0000     5.0000 </r>
       <r>   -16.6982     0.0000     5.0000 </r>
       <r>   -16.6096     0.0000     5.0000 </r>
       <r>   -16.5211     0.0000     5.0000 </r>
       <r>   -16.4325     0.0000     5.0000 </r>
       <r>   -16.3439     0.0000     5.0000 </r>
       <r>   -16.2554     0.0000     5.0000 </r>
       <r>   -16.1668     0.0000     5.0000 </r>
       <r>   -16.0782     0.0000     5.0000 </r>
       <r>   -15.9896     0.0000     5.0000 </r>
       <r>   -15.9011     0.0000     5.0000 </r>
       <r>   -15.8125     0.0000     5.0000 </r>
       <r>   -15.7239     0.0000     5.0000 </r>
       <r>   -15.6354     0.0000     5.0000 </r>
       <r>   -15.5468     0.0000     5.0000 </r>
       <r>   -15.4582     0.0000     5.0000 </r>
       <r>   -15.3697     0.0000     5.0000 </r>
       <r>   -15.2811     0.0000     5.0000 </r>
       <r>   -15.1925     0.0000     5.0000 </r>
       <r>   -15.1040     0.0000     5.0000 </r>
       <r>   -15.0154     0.0000     5.0000 </r>
       <r>   -14.9268     0.0000     5.0000 </r>
       <r>   -14.8383     0.0000     5.0000 </r>
       <r>   -14.7497     0.0000     5.0000 </r>
       <r>   -14.6611     0.0000     5.0000 </r>
       <r>   -14.5725     0.0000     5.0000 </r>
       <r>   -14.4840     0.0000     5.0000 </r>
       <r>   -14.3954     0.0000     5.0000 </r>
       <r>   -14.3068     0.0000     5.0000 </r>
       <r>   -14.2183     0.0000     5.0000 </r>
       <r>   -14.1297     0.0000     5.0000 </r>
       <r>   -14.0411     0.0000     5.0000 </r>
       <r>   -13.9526     0.0000     5.0000 </r>
       <r>   -13.8640     0.0000     5.0000 </r>
       <r>   -13.7754     0.0000     5.0000 </r>
       <r>   -13.6869     0.0000     5.0000 </r>
       <r>   -13.5983     0.0000     5.0000 </r>
       <r>   -13.5097     0.0000     5.0000 </r>
       <r>   -13.4212     0.0000     5.0000 </r>
       <r>   -13.3326     0.0000     5.0000 </r>
       <r>   -13.2440     0.0000     5.0000 </r>
       <r>   -13.1554     0.0000     5.0000 </r>
       <r>   -13.0669     0.0000     5.0000 </r>
       <r>   -12.9783     0.0000     5.0000 </r>
       <r>   -12.8897     0.0000     5.0000 </r>
       <r>   -12.8012     0.0000     5.0000 </r>
       <r>   -12.7126     0.0000     5.0000 </r>
       <r>   -12.6240     0.0000     5.0000 </r>
       <r>   -12.5355     0.0000     5.0000 </r>
       <r>   -12.4469     0.0000     5.0000 </r>
       <r>   -12.3583     0.0000     5.0000 </r>
       <r>   -12.2698     0.0000     5.0000 </r>
       <r>   -12.1812     0.0000     5.0000 </r>
       <r>   -12.0926     0.0000     5.0000 </r>
       <r>   -12.0041     0.0000     5.0000 </r>
       <r>   -11.9155     0.0000     5.0000 </r>
       <r>   -11.8269     0.0000     5.0000 </r>
       <r>   -11.7384     0.0000     5.0000 </r>
       <r>   -11.6498     0.0000     5.0000 </r>
       <r>   -11.5612     0.0000     5.0000 </r>
       <r>   -11.4726     0.0000     5.0000 </r>
       <r>   -11.3841     0.0000     5.0000 </r>
       <r>   -11.2955     0.0000     5.0000 </r>
       <r>   -11.2069     0.0000     5.0000 </r>
       <r>   -11.1184     0.0000     5.0000 </r>
       <r>   -11.0298     0.0000     5.0000 </r>
       <r>   -10.9412     0.0000     5.0000 </r>
       <r>   -10.8527     0.0000     5.0000 </r>
       <r>   -10.7641     0.0000     5.0000 </r>
       <r>   -10.6755     0.0000     5.0000 </r>
       <r>   -10.5870     0.0000     5.0000 </r>
       <r>   -10.4984     0.0000     5.0000 </r>
       <r>   -10.4098     0.0000     5.0000 </r>
       <r>   -10.3213     0.0000     5.0000 </r>
       <r>   -10.2327     0.0000     5.0000 </r>
       <r>   -10.1441     0.0000     5.0000 </r>
       <r>   -10.0555     0.0000     5.0000 </r>
       <r>    -9.9670     0.0000     5.0000 </r>
       <r>    -9.8784     0.0000     5.0000 </r>
       <r>    -9.7898     0.0000     5.0000 </r>
       <r>    -9.7013     0.0000     5.0000 </r>
       <r>    -9.6127     0.0000     5.0000 </r>
       <r>    -9.5241     0.0000     5.0000 </r>
       <r>    -9.4356     0.0000     5.0000 </r>
       <r>    -9.3470     0.0000     5.0000 </r>
       <r>    -9.2584     0.0000     5.0000 </r>
       <r>    -9.1699     0.0000     5.0000 </r>
       <r>    -9.0813     0.0190     5.0017 </r>
       <r>    -8.9927     3.7616     5.3348 </r>
       <r>    -8.9042     7.2974     5.9812 </r>
       <r>    -8.8156     0.2126     6.0000 </r>
       <r>    -8.7270     0.0000     6.0000 </r>
       <r>    -8.6384     0.0000     6.0000 </r>
       <r>    -8.5499     0.0000     6.0000 </r>
       <r>    -8.4613     0.0000     6.0000 </r>
       <r>    -8.3727     0.0000     6.0000 </r>
       <r>    -8.2842     0.0000     6.0000 </r>
       <r>    -8.1956     0.0000     6.0000 </r>
       <r>    -8.1070     0.0000     6.0000 </r>
       <r>    -8.0185     0.0000     6.0000 </r>
       <r>    -7.9299     0.0000     6.0000 </r>
       <r>    -7.8413     0.0000     6.0000 </r>
       <r>    -7.7528     0.0000     6.0000 </r>
       <r>    -7.6642     0.0000     6.0000 </r>
       <r>    -7.5756     0.0000     6.0000 </r>
       <r>    -7.4871     0.0000     6.0000 </r>
       <r>    -7.3985     0.0000     6.0000 </r>
       <r>    -7.3099     0.0000     6.0000 </r>
       <r>    -7.2214     0.0000     6.0000 </r>
       <r>    -7.1328     0.0000     6.0000 </r>
       <r>    -7.0442     0.0000     6.0000 </r>
       <r>    -6.9556     0.0000     6.0000 </r>
       <r>    -6.8671     0.0000     6.0000 </r>
       <r>    -6.7785     0.0000     6.0000 </r>
       <r>    -6.6899     0.0000     6.0000 </r>
       <r>    -6.6014     0.0000     6.0000 </r>
       <r>    -6.5128     0.0000     6.0000 </r>
       <r>    -6.4242     0.0000     6.0000 </r>
       <r>    -6.3357     0.0000     6.0000 </r>
       <r>    -6.2471     0.0000     6.0000 </r>
       <r>    -6.1585     0.0000     6.0000 </r>
       <r>    -6.0700     0.0000     6.0000 </r>
       <r>    -5.9814     0.0000     6.0000 </r>
       <r>    -5.8928     0.0000     6.0000 </r>
       <r>    -5.8043     0.0000     6.0000 </r>
       <r>    -5.7157     0.0000     6.0000 </r>
       <r>    -5.6271     0.0000     6.0000 </r>
       <r>    -5.5385     0.0000     6.0000 </r>
       <r>    -5.4500     0.0000     6.0000 </r>
       <r>    -5.3614     0.0000     6.0000 </r>
       <r>    -5.2728     0.0000     6.0000 </r>
       <r>    -5.1843     0.0000     6.0000 </r>
       <r>    -5.0957     0.0000     6.0000 </r>
       <r>    -5.0071     0.0000     6.0000 </r>
       <r>    -4.9186     0.0000     6.0000 </r>
       <r>    -4.8300     0.0000     6.0000 </r>
       <r>    -4.7414     0.0000     6.0000 </r>
       <r>    -4.6529     0.0000     6.0000 </r>
       <r>    -4.5643     0.0000     6.0000 </r>
       <r>    -4.4757     0.0000     6.0000 </r>
       <r>    -4.3872     0.0000     6.0000 </r>
       <r>    -4.2986     0.0000     6.0000 </r>
       <r>    -4.2100     0.0000     6.0000 </r>
       <r>    -4.1214     0.0000     6.0000 </r>
       <r>    -4.0329     0.0000     6.0000 </r>
       <r>    -3.9443     0.0000     6.0000 </r>
       <r>    -3.8557     0.0000     6.0000 </r>
       <r>    -3.7672     0.0000     6.0000 </r>
       <r>    -3.6786     0.0000     6.0000 </r>
       <r>    -3.5900     0.0000     6.0000 </r>
       <r>    -3.5015     0.0000     6.0000 </r>
       <r>    -3.4129     0.0000     6.0000 </r>
       <r>    -3.3243     0.0000     6.0000 </r>
       <r>    -3.2358     0.0000     6.0000 </r>
       <r>    -3.1472     0.0000     6.0000 </r>
       <r>    -3.0586     0.0000     6.0000 </r>
       <r>    -2.9701     0.0000     6.0000 </r>
       <r>    -2.8815     0.0000     6.0000 </r>
       <r>    -2.7929     0.0000     6.0000 </r>
       <r>    -2.7043     0.4435     6.0393 </r>
       <r>    -2.6158    20.2421     7.8321 </r>
       <r>    -2.5272    13.0959     8.9920 </r>
       <r>    -2.4386     0.0905     9.0000 </r>
       <r>    -2.3501     0.0000     9.0000 </r>
       <r>    -2.2615     0.0000     9.0000 </r>
       <r>    -2.1729     0.0000     9.0000 </r>
       <r>    -2.0844     0.0000     9.0000 </r>
       <r>    -1.9958     0.0000     9.0000 </r>
       <r>    -1.9072     0.0000     9.0000 </r>
       <r>    -1.8187     0.0000     9.0000 </r>
       <r>    -1.7301     0.0000     9.0000 </r>
       <r>    -1.6415     0.0000     9.0000 </r>
       <r>    -1.5530     0.0000     9.0000 </r>
       <r>    -1.4644     0.0000     9.0000 </r>
       <r>    -1.3758     0.0000     9.0000 </r>
       <r>    -1.2873     0.0000     9.0000 </r>
       <r>    -1.1987     0.0000     9.0000 </r>
       <r>    -1.1101     0.0000     9.0000 </r>
       <r>    -1.0215     0.0000     9.0000 </r>
       <r>    -0.9330     0.0000     9.0000 </r>
       <r>    -0.8444     0.0000     9.0000 </r>
       <r>    -0.7558     0.0162     9.0014 </r>
       <r>    -0.6673     3.5631     9.3170 </r>
       <r>    -0.5787     7.4717     9.9788 </r>
       <r>    -0.4901     0.2396    10.0000 </r>
       <r>    -0.4016     0.0000    10.0000 </r>
       <r>    -0.3130     0.0000    10.0000 </r>
       <r>    -0.2244     0.0000    10.0000 </r>
       <r>    -0.1359     0.0000    10.0000 </r>
       <r>    -0.0473     0.0000    10.0000 </r>
       <r>     0.0413     0.0000    10.0000 </r>
       <r>     0.1298     0.0000    10.0000 </r>
       <r>     0.2184     0.0000    10.0000 </r>
       <r>     0.3070     0.0000    10.0000 </r>
       <r>     0.3956     0.0000    10.0000 </r>
       <r>     0.4841     0.0000    10.0000 </r>
       <r>     0.5727     0.0294    10.0026 </r>
       <r>     0.6613     6.8892    10.6128 </r>
       <r>     0.7498    15.1478    11.9544 </r>
       <r>     0.8384     0.5149    12.0000 </r>
       <r>     0.9270     0.0001    12.0000 </r>
       <r>     1.0155     0.2993    12.0265 </r>
       <r>     1.1041    17.1387    13.5445 </r>
       <r>     1.1927    16.6644    15.0204 </r>
       <r>     1.2812     8.6769    15.7889 </r>
       <r>     1.3698     2.3781    15.9995 </r>
       <r>     1.4584     0.0053    16.0000 </r>
       <r>     1.5469     0.1037    16.0092 </r>
       <r>     1.6355    13.6709    17.2200 </r>
       <r>     1.7241    19.7032    18.9651 </r>
       <r>     1.8127     0.3943    19.0000 </r>
       <r>     1.9012     0.0000    19.0000 </r>
       <r>     1.9898     0.0000    19.0000 </r>
       <r>     2.0784     0.0000    19.0000 </r>
       <r>     2.1669     0.0005    19.0000 </r>
       <r>     2.2555     1.6443    19.1457 </r>
       <r>     2.3441    36.3282    22.3632 </r>
       <r>     2.4326    18.3321    23.9869 </r>
       <r>     2.5212     0.1483    24.0000 </r>
       <r>     2.6098     0.0000    24.0000 </r>
       <r>     2.6983     0.0000    24.0000 </r>
       <r>     2.7869     0.0002    24.0000 </r>
       <r>     2.8755     0.9761    24.0865 </r>
       <r>     2.9640    23.1596    26.1377 </r>
       <r>     3.0526    16.5340    27.6021 </r>
       <r>     3.1412     4.4616    27.9972 </r>
       <r>     3.2298     0.0312    28.0000 </r>
       <r>     3.3183     0.0000    28.0000 </r>
       <r>     3.4069     0.0299    28.0027 </r>
       <r>     3.4955    10.1861    28.9048 </r>
       <r>     3.5840    32.9792    31.8257 </r>
       <r>     3.6726     1.9668    31.9999 </r>
       <r>     3.7612     0.0007    32.0000 </r>
       <r>     3.8497     0.0000    32.0000 </r>
       <r>     3.9383     0.0000    32.0000 </r>
       <r>     4.0269     0.0018    32.0002 </r>
       <r>     4.1154     1.7213    32.1526 </r>
       <r>     4.2040    16.3142    33.5975 </r>
       <r>     4.2926    12.1096    34.6701 </r>
       <r>     4.3811     3.7072    34.9984 </r>
       <r>     4.4697     0.0525    35.0031 </r>
       <r>     4.5583     4.5596    35.4069 </r>
       <r>     4.6468     6.5653    35.9884 </r>
       <r>     4.7354     0.1311    36.0000 </r>
       <r>     4.8240     0.0000    36.0000 </r>
       <r>     4.9126     0.0000    36.0000 </r>
       <r>     5.0011     0.0000    36.0000 </r>
       <r>     5.0897     0.0000    36.0000 </r>
       <r>     5.1783     0.0000    36.0000 </r>
       <r>     5.2668     0.0000    36.0000 </r>
       <r>     5.3554     0.0000    36.0000 </r>
       <r>     5.4440     0.0000    36.0000 </r>
       <r>     5.5325     0.0000    36.0000 </r>
       <r>     5.6211     0.0000    36.0000 </r>
       <r>     5.7097     0.0000    36.0000 </r>
       <r>     5.7982     0.0000    36.0000 </r>
       <r>     5.8868     0.0000    36.0000 </r>
       <r>     5.9754     0.0000    36.0000 </r>
       <r>     6.0639     0.0000    36.0000 </r>
       <r>     6.1525     0.0000    36.0000 </r>
       <r>     6.2411     0.0000    36.0000 </r>
       <r>     6.3297     0.0000    36.0000 </r>
       <r>     6.4182     0.0000    36.0000 </r>
       <r>     6.5068     0.0000    36.0000 </r>
      </set>
      <set comment="spin 2">
       <r>   -20.0638     0.0000     0.0000 </r>
       <r>   -19.9752     0.0000     0.0000 </r>
       <r>   -19.8867     0.0000     0.0000 </r>
       <r>   -19.7981     0.0000     0.0000 </r>
       <r>   -19.7095     0.0000     0.0000 </r>
       <r>   -19.6210     0.0000     0.0000 </r>
       <r>   -19.5324     0.0000     0.0000 </r>
       <r>   -19.4438     0.0000     0.0000 </r>
       <r>   -19.3553     0.0000     0.0000 </r>
       <r>   -19.2667     0.0000     0.0000 </r>
       <r>   -19.1781     0.0000     0.0000 </r>
       <r>   -19.0895     0.0000     0.0000 </r>
       <r>   -19.0010     0.0000     0.0000 </r>
       <r>   -18.9124     0.0209     0.0019 </r>
       <r>   -18.8238    10.8479     0.9626 </r>
       <r>   -18.7353    42.7128     4.7457 </r>
       <r>   -18.6467     2.8708     4.9999 </r>
       <r>   -18.5581     0.0010     5.0000 </r>
       <r>   -18.4696     0.0000     5.0000 </r>
       <r>   -18.3810     0.0000     5.0000 </r>
       <r>   -18.2924     0.0000     5.0000 </r>
       <r>   -18.2039     0.0000     5.0000 </r>
       <r>   -18.1153     0.0000     5.0000 </r>
       <r>   -18.0267     0.0000     5.0000 </r>
       <r>   -17.9382     0.0000     5.0000 </r>
       <r>   -17.8496     0.0000     5.0000 </r>
       <r>   -17.7610     0.0000     5.0000 </r>
       <r>   -17.6725     0.0000     5.0000 </r>
       <r>   -17.5839     0.0000     5.0000 </r>
       <r>   -17.4953     0.0000     5.0000 </r>
       <r>   -17.4067     0.0000     5.0000 </r>
       <r>   -17.3182     0.0000     5.0000 </r>
       <r>   -17.2296     0.0000     5.0000 </r>
       <r>   -17.1410     0.0000     5.0000 </r>
       <r>   -17.0525     0.0000     5.0000 </r>
       <r>   -16.9639     0.0000     5.0000 </r>
       <r>   -16.8753     0.0000     5.0000 </r>
       <r>   -16.7868     0.0000     5.0000 </r>
       <r>   -16.6982     0.0000     5.0000 </r>
       <r>   -16.6096     0.0000     5.0000 </r>
       <r>   -16.5211     0.0000     5.0000 </r>
       <r>   -16.4325     0.0000     5.0000 </r>
       <r>   -16.3439     0.0000     5.0000 </r>
       <r>   -16.2554     0.0000     5.0000 </r>
       <r>   -16.1668     0.0000     5.0000 </r>
       <r>   -16.0782     0.0000     5.0000 </r>
       <r>   -15.9896     0.0000     5.0000 </r>
       <r>   -15.9011     0.0000     5.0000 </r>
       <r>   -15.8125     0.0000     5.0000 </r>
       <r>   -15.7239     0.0000     5.0000 </r>
       <r>   -15.6354     0.0000     5.0000 </r>
       <r>   -15.5468     0.0000     5.0000 </r>
       <r>   -15.4582     0.0000     5.0000 </r>
       <r>   -15.3697     0.0000     5.0000 </r>
       <r>   -15.2811     0.0000     5.0000 </r>
       <r>   -15.1925     0.0000     5.0000 </r>
       <r>   -15.1040     0.0000     5.0000 </r>
       <r>   -15.0154     0.0000     5.0000 </r>
       <r>   -14.9268     0.0000     5.0000 </r>
       <r>   -14.8383     0.0000     5.0000 </r>
       <r>   -14.7497     0.0000     5.0000 </r>
       <r>   -14.6611     0.0000     5.0000 </r>
       <r>   -14.5725     0.0000     5.0000 </r>
       <r>   -14.4840     0.0000     5.0000 </r>
       <r>   -14.3954     0.0000     5.0000 </r>
       <r>   -14.3068     0.0000     5.0000 </r>
       <r>   -14.2183     0.0000     5.0000 </r>
       <r>   -14.1297     0.0000     5.0000 </r>
       <r>   -14.0411     0.0000     5.0000 </r>
       <r>   -13.9526     0.0000     5.0000 </r>
       <r>   -13.8640     0.0000     5.0000 </r>
       <r>   -13.7754     0.0000     5.0000 </r>
       <r>   -13.6869     0.0000     5.0000 </r>
       <r>   -13.5983     0.0000     5.0000 </r>
       <r>   -13.5097     0.0000     5.0000 </r>
       <r>   -13.4212     0.0000     5.0000 </r>
       <r>   -13.3326     0.0000     5.0000 </r>
       <r>   -13.2440     0.0000     5.0000 </r>
       <r>   -13.1554     0.0000     5.0000 </r>
       <r>   -13.0669     0.0000     5.0000 </r>
       <r>   -12.9783     0.0000     5.0000 </r>
       <r>   -12.8897     0.0000     5.0000 </r>
       <r>   -12.8012     0.0000     5.0000 </r>
       <r>   -12.7126     0.0000     5.0000 </r>
       <r>   -12.6240     0.0000     5.0000 </r>
       <r>   -12.5355     0.0000     5.0000 </r>
       <r>   -12.4469     0.0000     5.0000 </r>
       <r>   -12.3583     0.0000     5.0000 </r>
       <r>   -12.2698     0.0000     5.0000 </r>
       <r>   -12.1812     0.0000     5.0000 </r>
       <r>   -12.0926     0.0000     5.0000 </r>
       <r>   -12.0041     0.0000     5.0000 </r>
       <r>   -11.9155     0.0000     5.0000 </r>
       <r>   -11.8269     0.0000     5.0000 </r>
       <r>   -11.7384     0.0000     5.0000 </r>
       <r>   -11.6498     0.0000     5.0000 </r>
       <r>   -11.5612     0.0000     5.0000 </r>
       <r>   -11.4726     0.0000     5.0000 </r>
       <r>   -11.3841     0.0000     5.0000 </r>
       <r>   -11.2955     0.0000     5.0000 </r>
       <r>   -11.2069     0.0000     5.0000 </r>
       <r>   -11.1184     0.0000     5.0000 </r>
       <r>   -11.0298     0.0000     5.0000 </r>
       <r>   -10.9412     0.0000     5.0000 </r>
       <r>   -10.8527     0.0000     5.0000 </r>
       <r>   -10.7641     0.0000     5.0000 </r>
       <r>   -10.6755     0.0000     5.0000 </r>
       <r>   -10.5870     0.0000     5.0000 </r>
       <r>   -10.4984     0.0000     5.0000 </r>
       <r>   -10.4098     0.0000     5.0000 </r>
       <r>   -10.3213     0.0000     5.0000 </r>
       <r>   -10.2327     0.0000     5.0000 </r>
       <r>   -10.1441     0.0000     5.0000 </r>
       <r>   -10.0555     0.0000     5.0000 </r>
       <r>    -9.9670     0.0000     5.0000 </r>
       <r>    -9.8784     0.0000     5.0000 </r>
       <r>    -9.7898     0.0000     5.0000 </r>
       <r>    -9.7013     0.0000     5.0000 </r>
       <r>    -9.6127     0.0000     5.0000 </r>
       <r>    -9.5241     0.0000     5.0000 </r>
       <r>    -9.4356     0.0000     5.0000 </r>
       <r>    -9.3470     0.0000     5.0000 </r>
       <r>    -9.2584     0.0000     5.0000 </r>
       <r>    -9.1699     0.0000     5.0000 </r>
       <r>    -9.0813     0.0000     5.0000 </r>
       <r>    -8.9927     0.0000     5.0000 </r>
       <r>    -8.9042     0.0000     5.0000 </r>
       <r>    -8.8156     0.0000     5.0000 </r>
       <r>    -8.7270     0.0000     5.0000 </r>
       <r>    -8.6384     0.0000     5.0000 </r>
       <r>    -8.5499     0.0000     5.0000 </r>
       <r>    -8.4613     0.0000     5.0000 </r>
       <r>    -8.3727     0.0423     5.0037 </r>
       <r>    -8.2842     4.8459     5.4329 </r>
       <r>    -8.1956     6.2925     5.9903 </r>
       <r>    -8.1070     0.1100     6.0000 </r>
       <r>    -8.0185     0.0000     6.0000 </r>
       <r>    -7.9299     0.0000     6.0000 </r>
       <r>    -7.8413     0.0000     6.0000 </r>
       <r>    -7.7528     0.0000     6.0000 </r>
       <r>    -7.6642     0.0000     6.0000 </r>
       <r>    -7.5756     0.0000     6.0000 </r>
       <r>    -7.4871     0.0000     6.0000 </r>
       <r>    -7.3985     0.0000     6.0000 </r>
       <r>    -7.3099     0.0000     6.0000 </r>
       <r>    -7.2214     0.0000     6.0000 </r>
       <r>    -7.1328     0.0000     6.0000 </r>
       <r>    -7.0442     0.0000     6.0000 </r>
       <r>    -6.9556     0.0000     6.0000 </r>
       <r>    -6.8671     0.0000     6.0000 </r>
       <r>    -6.7785     0.0000     6.0000 </r>
       <r>    -6.6899     0.0000     6.0000 </r>
       <r>    -6.6014     0.0000     6.0000 </r>
       <r>    -6.5128     0.0000     6.0000 </r>
       <r>    -6.4242     0.0000     6.0000 </r>
       <r>    -6.3357     0.0000     6.0000 </r>
       <r>    -6.2471     0.0000     6.0000 </r>
       <r>    -6.1585     0.0000     6.0000 </r>
       <r>    -6.0700     0.0000     6.0000 </r>
       <r>    -5.9814     0.0000     6.0000 </r>
       <r>    -5.8928     0.0000     6.0000 </r>
       <r>    -5.8043     0.0000     6.0000 </r>
       <r>    -5.7157     0.0000     6.0000 </r>
       <r>    -5.6271     0.0000     6.0000 </r>
       <r>    -5.5385     0.0000     6.0000 </r>
       <r>    -5.4500     0.0000     6.0000 </r>
       <r>    -5.3614     0.0000     6.0000 </r>
       <r>    -5.2728     0.0000     6.0000 </r>
       <r>    -5.1843     0.0000     6.0000 </r>
       <r>    -5.0957     0.0000     6.0000 </r>
       <r>    -5.0071     0.0000     6.0000 </r>
       <r>    -4.9186     0.0000     6.0000 </r>
       <r>    -4.8300     0.0000     6.0000 </r>
       <r>    -4.7414     0.0000     6.0000 </r>
       <r>    -4.6529     0.0000     6.0000 </r>
       <r>    -4.5643     0.0000     6.0000 </r>
       <r>    -4.4757     0.0000     6.0000 </r>
       <r>    -4.3872     0.0000     6.0000 </r>
       <r>    -4.2986     0.0000     6.0000 </r>
       <r>    -4.2100     0.0000     6.0000 </r>
       <r>    -4.1214     0.0000     6.0000 </r>
       <r>    -4.0329     0.0000     6.0000 </r>
       <r>    -3.9443     0.0000     6.0000 </r>
       <r>    -3.8557     0.0000     6.0000 </r>
       <r>    -3.7672     0.0000     6.0000 </r>
       <r>    -3.6786     0.0000     6.0000 </r>
       <r>    -3.5900     0.0000     6.0000 </r>
       <r>    -3.5015     0.0000     6.0000 </r>
       <r>    -3.4129     0.0000     6.0000 </r>
       <r>    -3.3243     0.0000     6.0000 </r>
       <r>    -3.2358     0.0000     6.0000 </r>
       <r>    -3.1472     0.0000     6.0000 </r>
       <r>    -3.0586     0.0000     6.0000 </r>
       <r>    -2.9701     0.0000     6.0000 </r>
       <r>    -2.8815     0.0000     6.0000 </r>
       <r>    -2.7929     0.0000     6.0000 </r>
       <r>    -2.7043     0.0000     6.0000 </r>
       <r>    -2.6158     0.0000     6.0000 </r>
       <r>    -2.5272     0.0000     6.0000 </r>
       <r>    -2.4386     0.0000     6.0000 </r>
       <r>    -2.3501     0.0000     6.0000 </r>
       <r>    -2.2615     0.0000     6.0000 </r>
       <r>    -2.1729     0.0000     6.0000 </r>
       <r>    -2.0844     0.0000     6.0000 </r>
       <r>    -1.9958     0.0021     6.0002 </r>
       <r>    -1.9072     3.0636     6.2715 </r>
       <r>    -1.8187    26.6879     8.6352 </r>
       <r>    -1.7301     4.1144     8.9996 </r>
       <r>    -1.6415     0.0041     9.0000 </r>
       <r>    -1.5530     0.0000     9.0000 </r>
       <r>    -1.4644     0.0000     9.0000 </r>
       <r>    -1.3758     0.0000     9.0000 </r>
       <r>    -1.2873     0.0000     9.0000 </r>
       <r>    -1.1987     0.0000     9.0000 </r>
       <r>    -1.1101     0.0000     9.0000 </r>
       <r>    -1.0215     0.0000     9.0000 </r>
       <r>    -0.9330     0.0000     9.0000 </r>
       <r>    -0.8444     0.0000     9.0000 </r>
       <r>    -0.7558     0.0000     9.0000 </r>
       <r>    -0.6673     0.0000     9.0000 </r>
       <r>    -0.5787     0.0000     9.0000 </r>
       <r>    -0.4901     0.0000     9.0000 </r>
       <r>    -0.4016     0.0000     9.0000 </r>
       <r>    -0.3130     0.0000     9.0000 </r>
       <r>    -0.2244     0.0001     9.0000 </r>
       <r>    -0.1359     0.4534     9.0402 </r>
       <r>    -0.0473     8.2999     9.7753 </r>
       <r>     0.0413     2.5310     9.9994 </r>
       <r>     0.1298     0.0063    10.0000 </r>
       <r>     0.2184     0.0000    10.0000 </r>
       <r>     0.3070     0.0000    10.0000 </r>
       <r>     0.3956     0.0000    10.0000 </r>
       <r>     0.4841     0.0000    10.0000 </r>
       <r>     0.5727     0.0000    10.0000 </r>
       <r>     0.6613     0.0000    10.0000 </r>
       <r>     0.7498     0.0000    10.0000 </r>
       <r>     0.8384     0.0000    10.0000 </r>
       <r>     0.9270     0.0000    10.0000 </r>
       <r>     1.0155     0.0000    10.0000 </r>
       <r>     1.1041     0.0000    10.0000 </r>
       <r>     1.1927     0.3740    10.0331 </r>
       <r>     1.2812    14.2136    11.2920 </r>
       <r>     1.3698     7.9487    11.9960 </r>
       <r>     1.4584     0.0450    12.0000 </r>
       <r>     1.5469     0.0071    12.0006 </r>
       <r>     1.6355     5.3828    12.4774 </r>
       <r>     1.7241    35.1066    15.5867 </r>
       <r>     1.8127     4.6619    15.9996 </r>
       <r>     1.9012     0.0044    16.0000 </r>
       <r>     1.9898     0.0000    16.0000 </r>
       <r>     2.0784     0.0000    16.0000 </r>
       <r>     2.1669     0.0001    16.0000 </r>
       <r>     2.2555     0.7331    16.0649 </r>
       <r>     2.3441    22.4956    18.0573 </r>
       <r>     2.4326    10.5958    18.9958 </r>
       <r>     2.5212     0.0474    19.0000 </r>
       <r>     2.6098     0.0000    19.0000 </r>
       <r>     2.6983     0.0485    19.0043 </r>
       <r>     2.7869     8.1744    19.7283 </r>
       <r>     2.8755    22.9206    21.7583 </r>
       <r>     2.9640    24.2574    23.9068 </r>
       <r>     3.0526     1.0523    24.0000 </r>
       <r>     3.1412     0.0002    24.0000 </r>
       <r>     3.2298     0.0000    24.0000 </r>
       <r>     3.3183     0.0318    24.0028 </r>
       <r>     3.4069     6.9194    24.6157 </r>
       <r>     3.4955    15.3638    25.9764 </r>
       <r>     3.5840     8.1708    26.7001 </r>
       <r>     3.6726     3.3723    26.9988 </r>
       <r>     3.7612     0.0139    27.0000 </r>
       <r>     3.8497     0.5315    27.0471 </r>
       <r>     3.9383    17.7911    28.6228 </r>
       <r>     4.0269    24.7299    30.8131 </r>
       <r>     4.1154     2.1082    30.9998 </r>
       <r>     4.2040     0.0182    31.0014 </r>
       <r>     4.2926     3.5648    31.3172 </r>
       <r>     4.3811     7.4702    31.9788 </r>
       <r>     4.4697     0.2394    32.0000 </r>
       <r>     4.5583     0.0291    32.0026 </r>
       <r>     4.6468     4.4434    32.3961 </r>
       <r>     4.7354    13.6332    33.6036 </r>
       <r>     4.8240    12.6879    34.7273 </r>
       <r>     4.9126     3.0682    34.9991 </r>
       <r>     5.0011     0.0102    35.0000 </r>
       <r>     5.0897     0.0000    35.0000 </r>
       <r>     5.1783     0.0036    35.0003 </r>
       <r>     5.2668     2.0419    35.1812 </r>
       <r>     5.3554     8.6192    35.9445 </r>
       <r>     5.4440     0.6258    36.0000 </r>
       <r>     5.5325     0.0002    36.0000 </r>
       <r>     5.6211     0.0000    36.0000 </r>
       <r>     5.7097     0.0000    36.0000 </r>
       <r>     5.7982     0.0000    36.0000 </r>
       <r>     5.8868     0.0000    36.0000 </r>
       <r>     5.9754     0.0000    36.0000 </r>
       <r>     6.0639     0.0000    36.0000 </r>
       <r>     6.1525     0.0000    36.0000 </r>
       <r>     6.2411     0.0000    36.0000 </r>
       <r>     6.3297     0.0000    36.0000 </r>
       <r>     6.4182     0.0000    36.0000 </r>
       <r>     6.5068     0.0000    36.0000 </r>
      </set>
     </set>
    </array>
   </total>
   <partial>
    <array>
     <dimension dim="1">gridpoints</dimension>
     <dimension dim="2">spin</dimension>
     <dimension dim="3">ion</dimension>
     <field>energy</field>
     <field>    s</field>
     <field>   py</field>
     <field>   pz</field>
     <field>   px</field>
     <field>  dxy</field>
     <field>  dyz</field>
     <field>  dz2</field>
     <field>  dxz</field>
     <field>x2-y2</field>
     <set>
      <set comment="ion 1">
       <set comment="spin 1">
        <r>   -20.0638     0.0000     0.0000     0.0000     0.0000     0.0000     0.0000     0.0000     0.0000     0.0000 </r>
        <r>   -19.9752     0.0000     0.0000     0.0000     0.0000     0.0000     0.0000     0.0000     0.0000     0.0000 </r>
        <r>   -19.8867     0.0000     0.0000     0.0000     0.0000     0.0000     0.0000     0.0000     0.0000     0.0000 </r>
        <r>   -19.7981     0.0000     0.0000     0.0000     0.0000     0.0000     0.0000     0.0000     0.0000     0.0000 </r>
        <r>   -19.7095     0.0000     0.0000     0.0000     0.0000     0.0000     0.0000     0.0000     0.0000     0.0000 </r>
        <r>   -19.6210     0.0000     0.0000     0.0000     0.0000     0.0000     0.0000     0.0000     0.0000     0.0000 </r>
        <r>   -19.5324     0.0000     0.0000     0.0000     0.0000     0.0000     0.0000     0.0000     0.0000     0.0000 </r>
        <r>   -19.4438     0.0000     0.0000     0.0000     0.0000     0.0000     0.0000     0.0000     0.0000     0.0000 </r>
        <r>   -19.3553     0.0000     0.0000     0.0000     0.0000     0.0000     0.0000     0.0000     0.0000     0.0000 </r>
        <r>   -19.2667     0.0000     0.0000     0.0000     0.0000     0.0000     0.0000     0.0000     0.0000     0.0000 </r>
        <r>   -19.1781     0.0000     0.0000     0.0000     0.0000     0.0000     0.0000     0.0000     0.0000     0.0000 </r>
        <r>   -19.0895     0.0000     0.0000     0.0000     0.0000     0.0000     0.0000     0.0000     0.0000     0.0000 </r>
        <r>   -19.0010     0.0000     0.0000     0.0000     0.0000     0.0002     0.0002     0.0002     0.0002     0.0002 </r>
        <r>   -18.9124     0.0000     0.0000     0.0000     0.0000     0.6203     0.6203     0.6194     0.6203     0.6194 </r>
        <r>   -18.8238     0.0000     0.0000     0.0000     0.0000     8.5424     8.5424     8.5413     8.5424     8.5413 </r>
        <r>   -18.7353     0.0000     0.0000     0.0000     0.0000     2.0237     2.0237     2.0257     2.0237     2.0257 </r>
        <r>   -18.6467     0.0000     0.0000     0.0000     0.0000     0.0036     0.0036     0.0036     0.0036     0.0036 </r>
        <r>   -18.5581     0.0000     0.0000     0.0000     0.0000     0.0000     0.0000     0.0000     0.0000     0.0000 </r>
        <r>   -18.4696     0.0000     0.0000     0.0000     0.0000     0.0000     0.0000     0.0000     0.0000     0.0000 </r>
        <r>   -18.3810     0.0000     0.0000     0.0000     0.0000     0.0000     0.0000     0.0000     0.0000     0.0000 </r>
        <r>   -18.2924     0.0000     0.0000     0.0000     0.0000     0.0000     0.0000     0.0000     0.0000     0.0000 </r>
        <r>   -18.2039     0.0000     0.0000     0.0000     0.0000     0.0000     0.0000     0.0000     0.0000     0.0000 </r>
        <r>   -18.1153     0.0000     0.0000     0.0000     0.0000     0.0000     0.0000     0.0000     0.0000     0.0000 </r>
        <r>   -18.0267     0.0000     0.0000     0.0000     0.0000     0.0000     0.0000     0.0000     0.0000     0.0000 </r>
        <r>   -17.9382     0.0000     0.0000     0.0000     0.0000     0.0000     0.0000     0.0000     0.0000     0.0000 </r>
        <r>   -17.8496     0.0000     0.0000     0.0000     0.0000     0.0000     0.0000     0.0000     0.0000     0.0000 </r>
        <r>   -17.7610     0.0000     0.0000     0.0000     0.0000     0.0000     0.0000     0.0000     0.0000     0.0000 </r>
        <r>   -17.6725     0.0000     0.0000     0.0000     0.0000     0.0000     0.0000     0.0000     0.0000     0.0000 </r>
        <r>   -17.5839     0.0000     0.0000     0.0000     0.0000     0.0000     0.0000     0.0000     0.0000     0.0000 </r>
        <r>   -17.4953     0.0000     0.0000     0.0000     0.0000     0.0000     0.0000     0.0000     0.0000     0.0000 </r>
        <r>   -17.4067     0.0000     0.0000     0.0000     0.0000     0.0000     0.0000     0.0000     0.0000     0.0000 </r>
        <r>   -17.3182     0.0000     0.0000     0.0000     0.0000     0.0000     0.0000     0.0000     0.0000     0.0000 </r>
        <r>   -17.2296     0.0000     0.0000     0.0000     0.0000     0.0000     0.0000     0.0000     0.0000     0.0000 </r>
        <r>   -17.1410     0.0000     0.0000     0.0000     0.0000     0.0000     0.0000     0.0000     0.0000     0.0000 </r>
        <r>   -17.0525     0.0000     0.0000     0.0000     0.0000     0.0000     0.0000     0.0000     0.0000     0.0000 </r>
        <r>   -16.9639     0.0000     0.0000     0.0000     0.0000     0.0000     0.0000     0.0000     0.0000     0.0000 </r>
        <r>   -16.8753     0.0000     0.0000     0.0000     0.0000     0.0000     0.0000     0.0000     0.0000     0.0000 </r>
        <r>   -16.7868     0.0000     0.0000     0.0000     0.0000     0.0000     0.0000     0.0000     0.0000     0.0000 </r>
        <r>   -16.6982     0.0000     0.0000     0.0000     0.0000     0.0000     0.0000     0.0000     0.0000     0.0000 </r>
        <r>   -16.6096     0.0000     0.0000     0.0000     0.0000     0.0000     0.0000     0.0000     0.0000     0.0000 </r>
        <r>   -16.5211     0.0000     0.0000     0.0000     0.0000     0.0000     0.0000     0.0000     0.0000     0.0000 </r>
        <r>   -16.4325     0.0000     0.0000     0.0000     0.0000     0.0000     0.0000     0.0000     0.0000     0.0000 </r>
        <r>   -16.3439     0.0000     0.0000     0.0000     0.0000     0.0000     0.0000     0.0000     0.0000     0.0000 </r>
        <r>   -16.2554     0.0000     0.0000     0.0000     0.0000     0.0000     0.0000     0.0000     0.0000     0.0000 </r>
        <r>   -16.1668     0.0000     0.0000     0.0000     0.0000     0.0000     0.0000     0.0000     0.0000     0.0000 </r>
        <r>   -16.0782     0.0000     0.0000     0.0000     0.0000     0.0000     0.0000     0.0000     0.0000     0.0000 </r>
        <r>   -15.9896     0.0000     0.0000     0.0000     0.0000     0.0000     0.0000     0.0000     0.0000     0.0000 </r>
        <r>   -15.9011     0.0000     0.0000     0.0000     0.0000     0.0000     0.0000     0.0000     0.0000     0.0000 </r>
        <r>   -15.8125     0.0000     0.0000     0.0000     0.0000     0.0000     0.0000     0.0000     0.0000     0.0000 </r>
        <r>   -15.7239     0.0000     0.0000     0.0000     0.0000     0.0000     0.0000     0.0000     0.0000     0.0000 </r>
        <r>   -15.6354     0.0000     0.0000     0.0000     0.0000     0.0000     0.0000     0.0000     0.0000     0.0000 </r>
        <r>   -15.5468     0.0000     0.0000     0.0000     0.0000     0.0000     0.0000     0.0000     0.0000     0.0000 </r>
        <r>   -15.4582     0.0000     0.0000     0.0000     0.0000     0.0000     0.0000     0.0000     0.0000     0.0000 </r>
        <r>   -15.3697     0.0000     0.0000     0.0000     0.0000     0.0000     0.0000     0.0000     0.0000     0.0000 </r>
        <r>   -15.2811     0.0000     0.0000     0.0000     0.0000     0.0000     0.0000     0.0000     0.0000     0.0000 </r>
        <r>   -15.1925     0.0000     0.0000     0.0000     0.0000     0.0000     0.0000     0.0000     0.0000     0.0000 </r>
        <r>   -15.1040     0.0000     0.0000     0.0000     0.0000     0.0000     0.0000     0.0000     0.0000     0.0000 </r>
        <r>   -15.0154     0.0000     0.0000     0.0000     0.0000     0.0000     0.0000     0.0000     0.0000     0.0000 </r>
        <r>   -14.9268     0.0000     0.0000     0.0000     0.0000     0.0000     0.0000     0.0000     0.0000     0.0000 </r>
        <r>   -14.8383     0.0000     0.0000     0.0000     0.0000     0.0000     0.0000     0.0000     0.0000     0.0000 </r>
        <r>   -14.7497     0.0000     0.0000     0.0000     0.0000     0.0000     0.0000     0.0000     0.0000     0.0000 </r>
        <r>   -14.6611     0.0000     0.0000     0.0000     0.0000     0.0000     0.0000     0.0000     0.0000     0.0000 </r>
        <r>   -14.5725     0.0000     0.0000     0.0000     0.0000     0.0000     0.0000     0.0000     0.0000     0.0000 </r>
        <r>   -14.4840     0.0000     0.0000     0.0000     0.0000     0.0000     0.0000     0.0000     0.0000     0.0000 </r>
        <r>   -14.3954     0.0000     0.0000     0.0000     0.0000     0.0000     0.0000     0.0000     0.0000     0.0000 </r>
        <r>   -14.3068     0.0000     0.0000     0.0000     0.0000     0.0000     0.0000     0.0000     0.0000     0.0000 </r>
        <r>   -14.2183     0.0000     0.0000     0.0000     0.0000     0.0000     0.0000     0.0000     0.0000     0.0000 </r>
        <r>   -14.1297     0.0000     0.0000     0.0000     0.0000     0.0000     0.0000     0.0000     0.0000     0.0000 </r>
        <r>   -14.0411     0.0000     0.0000     0.0000     0.0000     0.0000     0.0000     0.0000     0.0000     0.0000 </r>
        <r>   -13.9526     0.0000     0.0000     0.0000     0.0000     0.0000     0.0000     0.0000     0.0000     0.0000 </r>
        <r>   -13.8640     0.0000     0.0000     0.0000     0.0000     0.0000     0.0000     0.0000     0.0000     0.0000 </r>
        <r>   -13.7754     0.0000     0.0000     0.0000     0.0000     0.0000     0.0000     0.0000     0.0000     0.0000 </r>
        <r>   -13.6869     0.0000     0.0000     0.0000     0.0000     0.0000     0.0000     0.0000     0.0000     0.0000 </r>
        <r>   -13.5983     0.0000     0.0000     0.0000     0.0000     0.0000     0.0000     0.0000     0.0000     0.0000 </r>
        <r>   -13.5097     0.0000     0.0000     0.0000     0.0000     0.0000     0.0000     0.0000     0.0000     0.0000 </r>
        <r>   -13.4212     0.0000     0.0000     0.0000     0.0000     0.0000     0.0000     0.0000     0.0000     0.0000 </r>
        <r>   -13.3326     0.0000     0.0000     0.0000     0.0000     0.0000     0.0000     0.0000     0.0000     0.0000 </r>
        <r>   -13.2440     0.0000     0.0000     0.0000     0.0000     0.0000     0.0000     0.0000     0.0000     0.0000 </r>
        <r>   -13.1554     0.0000     0.0000     0.0000     0.0000     0.0000     0.0000     0.0000     0.0000     0.0000 </r>
        <r>   -13.0669     0.0000     0.0000     0.0000     0.0000     0.0000     0.0000     0.0000     0.0000     0.0000 </r>
        <r>   -12.9783     0.0000     0.0000     0.0000     0.0000     0.0000     0.0000     0.0000     0.0000     0.0000 </r>
        <r>   -12.8897     0.0000     0.0000     0.0000     0.0000     0.0000     0.0000     0.0000     0.0000     0.0000 </r>
        <r>   -12.8012     0.0000     0.0000     0.0000     0.0000     0.0000     0.0000     0.0000     0.0000     0.0000 </r>
        <r>   -12.7126     0.0000     0.0000     0.0000     0.0000     0.0000     0.0000     0.0000     0.0000     0.0000 </r>
        <r>   -12.6240     0.0000     0.0000     0.0000     0.0000     0.0000     0.0000     0.0000     0.0000     0.0000 </r>
        <r>   -12.5355     0.0000     0.0000     0.0000     0.0000     0.0000     0.0000     0.0000     0.0000     0.0000 </r>
        <r>   -12.4469     0.0000     0.0000     0.0000     0.0000     0.0000     0.0000     0.0000     0.0000     0.0000 </r>
        <r>   -12.3583     0.0000     0.0000     0.0000     0.0000     0.0000     0.0000     0.0000     0.0000     0.0000 </r>
        <r>   -12.2698     0.0000     0.0000     0.0000     0.0000     0.0000     0.0000     0.0000     0.0000     0.0000 </r>
        <r>   -12.1812     0.0000     0.0000     0.0000     0.0000     0.0000     0.0000     0.0000     0.0000     0.0000 </r>
        <r>   -12.0926     0.0000     0.0000     0.0000     0.0000     0.0000     0.0000     0.0000     0.0000     0.0000 </r>
        <r>   -12.0041     0.0000     0.0000     0.0000     0.0000     0.0000     0.0000     0.0000     0.0000     0.0000 </r>
        <r>   -11.9155     0.0000     0.0000     0.0000     0.0000     0.0000     0.0000     0.0000     0.0000     0.0000 </r>
        <r>   -11.8269     0.0000     0.0000     0.0000     0.0000     0.0000     0.0000     0.0000     0.0000     0.0000 </r>
        <r>   -11.7384     0.0000     0.0000     0.0000     0.0000     0.0000     0.0000     0.0000     0.0000     0.0000 </r>
        <r>   -11.6498     0.0000     0.0000     0.0000     0.0000     0.0000     0.0000     0.0000     0.0000     0.0000 </r>
        <r>   -11.5612     0.0000     0.0000     0.0000     0.0000     0.0000     0.0000     0.0000     0.0000     0.0000 </r>
        <r>   -11.4726     0.0000     0.0000     0.0000     0.0000     0.0000     0.0000     0.0000     0.0000     0.0000 </r>
        <r>   -11.3841     0.0000     0.0000     0.0000     0.0000     0.0000     0.0000     0.0000     0.0000     0.0000 </r>
        <r>   -11.2955     0.0000     0.0000     0.0000     0.0000     0.0000     0.0000     0.0000     0.0000     0.0000 </r>
        <r>   -11.2069     0.0000     0.0000     0.0000     0.0000     0.0000     0.0000     0.0000     0.0000     0.0000 </r>
        <r>   -11.1184     0.0000     0.0000     0.0000     0.0000     0.0000     0.0000     0.0000     0.0000     0.0000 </r>
        <r>   -11.0298     0.0000     0.0000     0.0000     0.0000     0.0000     0.0000     0.0000     0.0000     0.0000 </r>
        <r>   -10.9412     0.0000     0.0000     0.0000     0.0000     0.0000     0.0000     0.0000     0.0000     0.0000 </r>
        <r>   -10.8527     0.0000     0.0000     0.0000     0.0000     0.0000     0.0000     0.0000     0.0000     0.0000 </r>
        <r>   -10.7641     0.0000     0.0000     0.0000     0.0000     0.0000     0.0000     0.0000     0.0000     0.0000 </r>
        <r>   -10.6755     0.0000     0.0000     0.0000     0.0000     0.0000     0.0000     0.0000     0.0000     0.0000 </r>
        <r>   -10.5870     0.0000     0.0000     0.0000     0.0000     0.0000     0.0000     0.0000     0.0000     0.0000 </r>
        <r>   -10.4984     0.0000     0.0000     0.0000     0.0000     0.0000     0.0000     0.0000     0.0000     0.0000 </r>
        <r>   -10.4098     0.0000     0.0000     0.0000     0.0000     0.0000     0.0000     0.0000     0.0000     0.0000 </r>
        <r>   -10.3213     0.0000     0.0000     0.0000     0.0000     0.0000     0.0000     0.0000     0.0000     0.0000 </r>
        <r>   -10.2327     0.0000     0.0000     0.0000     0.0000     0.0000     0.0000     0.0000     0.0000     0.0000 </r>
        <r>   -10.1441     0.0000     0.0000     0.0000     0.0000     0.0000     0.0000     0.0000     0.0000     0.0000 </r>
        <r>   -10.0555     0.0000     0.0000     0.0000     0.0000     0.0000     0.0000     0.0000     0.0000     0.0000 </r>
        <r>    -9.9670     0.0000     0.0000     0.0000     0.0000     0.0000     0.0000     0.0000     0.0000     0.0000 </r>
        <r>    -9.8784     0.0000     0.0000     0.0000     0.0000     0.0000     0.0000     0.0000     0.0000     0.0000 </r>
        <r>    -9.7898     0.0000     0.0000     0.0000     0.0000     0.0000     0.0000     0.0000     0.0000     0.0000 </r>
        <r>    -9.7013     0.0000     0.0000     0.0000     0.0000     0.0000     0.0000     0.0000     0.0000     0.0000 </r>
        <r>    -9.6127     0.0000     0.0000     0.0000     0.0000     0.0000     0.0000     0.0000     0.0000     0.0000 </r>
        <r>    -9.5241     0.0000     0.0000     0.0000     0.0000     0.0000     0.0000     0.0000     0.0000     0.0000 </r>
        <r>    -9.4356     0.0000     0.0000     0.0000     0.0000     0.0000     0.0000     0.0000     0.0000     0.0000 </r>
        <r>    -9.3470     0.0000     0.0000     0.0000     0.0000     0.0000     0.0000     0.0000     0.0000     0.0000 </r>
        <r>    -9.2584     0.0000     0.0000     0.0000     0.0000     0.0000     0.0000     0.0000     0.0000     0.0000 </r>
        <r>    -9.1699     0.0000     0.0000     0.0000     0.0000     0.0000     0.0000     0.0000     0.0000     0.0000 </r>
        <r>    -9.0813     0.0112     0.0000     0.0000     0.0000     0.0000     0.0000     0.0000     0.0000     0.0000 </r>
        <r>    -8.9927     2.2203     0.0000     0.0000     0.0000     0.0000     0.0000     0.0000     0.0000     0.0000 </r>
        <r>    -8.9042     4.3072     0.0000     0.0000     0.0000     0.0000     0.0000     0.0000     0.0000     0.0000 </r>
        <r>    -8.8156     0.1255     0.0000     0.0000     0.0000     0.0000     0.0000     0.0000     0.0000     0.0000 </r>
        <r>    -8.7270     0.0000     0.0000     0.0000     0.0000     0.0000     0.0000     0.0000     0.0000     0.0000 </r>
        <r>    -8.6384     0.0000     0.0000     0.0000     0.0000     0.0000     0.0000     0.0000     0.0000     0.0000 </r>
        <r>    -8.5499     0.0000     0.0000     0.0000     0.0000     0.0000     0.0000     0.0000     0.0000     0.0000 </r>
        <r>    -8.4613     0.0000     0.0000     0.0000     0.0000     0.0000     0.0000     0.0000     0.0000     0.0000 </r>
        <r>    -8.3727     0.0000     0.0000     0.0000     0.0000     0.0000     0.0000     0.0000     0.0000     0.0000 </r>
        <r>    -8.2842     0.0000     0.0000     0.0000     0.0000     0.0000     0.0000     0.0000     0.0000     0.0000 </r>
        <r>    -8.1956     0.0000     0.0000     0.0000     0.0000     0.0000     0.0000     0.0000     0.0000     0.0000 </r>
        <r>    -8.1070     0.0000     0.0000     0.0000     0.0000     0.0000     0.0000     0.0000     0.0000     0.0000 </r>
        <r>    -8.0185     0.0000     0.0000     0.0000     0.0000     0.0000     0.0000     0.0000     0.0000     0.0000 </r>
        <r>    -7.9299     0.0000     0.0000     0.0000     0.0000     0.0000     0.0000     0.0000     0.0000     0.0000 </r>
        <r>    -7.8413     0.0000     0.0000     0.0000     0.0000     0.0000     0.0000     0.0000     0.0000     0.0000 </r>
        <r>    -7.7528     0.0000     0.0000     0.0000     0.0000     0.0000     0.0000     0.0000     0.0000     0.0000 </r>
        <r>    -7.6642     0.0000     0.0000     0.0000     0.0000     0.0000     0.0000     0.0000     0.0000     0.0000 </r>
        <r>    -7.5756     0.0000     0.0000     0.0000     0.0000     0.0000     0.0000     0.0000     0.0000     0.0000 </r>
        <r>    -7.4871     0.0000     0.0000     0.0000     0.0000     0.0000     0.0000     0.0000     0.0000     0.0000 </r>
        <r>    -7.3985     0.0000     0.0000     0.0000     0.0000     0.0000     0.0000     0.0000     0.0000     0.0000 </r>
        <r>    -7.3099     0.0000     0.0000     0.0000     0.0000     0.0000     0.0000     0.0000     0.0000     0.0000 </r>
        <r>    -7.2214     0.0000     0.0000     0.0000     0.0000     0.0000     0.0000     0.0000     0.0000     0.0000 </r>
        <r>    -7.1328     0.0000     0.0000     0.0000     0.0000     0.0000     0.0000     0.0000     0.0000     0.0000 </r>
        <r>    -7.0442     0.0000     0.0000     0.0000     0.0000     0.0000     0.0000     0.0000     0.0000     0.0000 </r>
        <r>    -6.9556     0.0000     0.0000     0.0000     0.0000     0.0000     0.0000     0.0000     0.0000     0.0000 </r>
        <r>    -6.8671     0.0000     0.0000     0.0000     0.0000     0.0000     0.0000     0.0000     0.0000     0.0000 </r>
        <r>    -6.7785     0.0000     0.0000     0.0000     0.0000     0.0000     0.0000     0.0000     0.0000     0.0000 </r>
        <r>    -6.6899     0.0000     0.0000     0.0000     0.0000     0.0000     0.0000     0.0000     0.0000     0.0000 </r>
        <r>    -6.6014     0.0000     0.0000     0.0000     0.0000     0.0000     0.0000     0.0000     0.0000     0.0000 </r>
        <r>    -6.5128     0.0000     0.0000     0.0000     0.0000     0.0000     0.0000     0.0000     0.0000     0.0000 </r>
        <r>    -6.4242     0.0000     0.0000     0.0000     0.0000     0.0000     0.0000     0.0000     0.0000     0.0000 </r>
        <r>    -6.3357     0.0000     0.0000     0.0000     0.0000     0.0000     0.0000     0.0000     0.0000     0.0000 </r>
        <r>    -6.2471     0.0000     0.0000     0.0000     0.0000     0.0000     0.0000     0.0000     0.0000     0.0000 </r>
        <r>    -6.1585     0.0000     0.0000     0.0000     0.0000     0.0000     0.0000     0.0000     0.0000     0.0000 </r>
        <r>    -6.0700     0.0000     0.0000     0.0000     0.0000     0.0000     0.0000     0.0000     0.0000     0.0000 </r>
        <r>    -5.9814     0.0000     0.0000     0.0000     0.0000     0.0000     0.0000     0.0000     0.0000     0.0000 </r>
        <r>    -5.8928     0.0000     0.0000     0.0000     0.0000     0.0000     0.0000     0.0000     0.0000     0.0000 </r>
        <r>    -5.8043     0.0000     0.0000     0.0000     0.0000     0.0000     0.0000     0.0000     0.0000     0.0000 </r>
        <r>    -5.7157     0.0000     0.0000     0.0000     0.0000     0.0000     0.0000     0.0000     0.0000     0.0000 </r>
        <r>    -5.6271     0.0000     0.0000     0.0000     0.0000     0.0000     0.0000     0.0000     0.0000     0.0000 </r>
        <r>    -5.5385     0.0000     0.0000     0.0000     0.0000     0.0000     0.0000     0.0000     0.0000     0.0000 </r>
        <r>    -5.4500     0.0000     0.0000     0.0000     0.0000     0.0000     0.0000     0.0000     0.0000     0.0000 </r>
        <r>    -5.3614     0.0000     0.0000     0.0000     0.0000     0.0000     0.0000     0.0000     0.0000     0.0000 </r>
        <r>    -5.2728     0.0000     0.0000     0.0000     0.0000     0.0000     0.0000     0.0000     0.0000     0.0000 </r>
        <r>    -5.1843     0.0000     0.0000     0.0000     0.0000     0.0000     0.0000     0.0000     0.0000     0.0000 </r>
        <r>    -5.0957     0.0000     0.0000     0.0000     0.0000     0.0000     0.0000     0.0000     0.0000     0.0000 </r>
        <r>    -5.0071     0.0000     0.0000     0.0000     0.0000     0.0000     0.0000     0.0000     0.0000     0.0000 </r>
        <r>    -4.9186     0.0000     0.0000     0.0000     0.0000     0.0000     0.0000     0.0000     0.0000     0.0000 </r>
        <r>    -4.8300     0.0000     0.0000     0.0000     0.0000     0.0000     0.0000     0.0000     0.0000     0.0000 </r>
        <r>    -4.7414     0.0000     0.0000     0.0000     0.0000     0.0000     0.0000     0.0000     0.0000     0.0000 </r>
        <r>    -4.6529     0.0000     0.0000     0.0000     0.0000     0.0000     0.0000     0.0000     0.0000     0.0000 </r>
        <r>    -4.5643     0.0000     0.0000     0.0000     0.0000     0.0000     0.0000     0.0000     0.0000     0.0000 </r>
        <r>    -4.4757     0.0000     0.0000     0.0000     0.0000     0.0000     0.0000     0.0000     0.0000     0.0000 </r>
        <r>    -4.3872     0.0000     0.0000     0.0000     0.0000     0.0000     0.0000     0.0000     0.0000     0.0000 </r>
[...]
        <r>     2.5212     0.0000     0.0000     0.0000     0.0000     0.0002     0.0002     0.0000     0.0002     0.0000 </r>
        <r>     2.6098     0.0000     0.0000     0.0000     0.0000     0.0000     0.0000     0.0000     0.0000     0.0000 </r>
        <r>     2.6983     0.0000     0.0000     0.0000     0.0000     0.0000     0.0000     0.0001     0.0000     0.0001 </r>
        <r>     2.7869     0.0000     0.0005     0.0001     0.0002     0.0000     0.0000     0.0159     0.0000     0.0159 </r>
        <r>     2.8755     0.0000     0.0016     0.0003     0.0004     0.0002     0.0001     0.0278     0.0000     0.0272 </r>
        <r>     2.9640     0.0001     0.0021     0.0005     0.0002     0.0005     0.0002     0.0008     0.0001     0.0008 </r>
        <r>     3.0526     0.0000     0.0001     0.0000     0.0000     0.0000     0.0000     0.0000     0.0000     0.0000 </r>
        <r>     3.1412     0.0000     0.0000     0.0000     0.0000     0.0000     0.0000     0.0000     0.0000     0.0000 </r>
        <r>     3.2298     0.0000     0.0000     0.0000     0.0000     0.0000     0.0000     0.0000     0.0000     0.0000 </r>
        <r>     3.3183     0.0000     0.0007     0.0000     0.0014     0.0000     0.0000     0.0000     0.0000     0.0000 </r>
        <r>     3.4069     0.0018     0.1871     0.0037     0.2659     0.0002     0.0001     0.0006     0.0001     0.0003 </r>
        <r>     3.4955     0.0146     0.4804     0.0099     0.4962     0.0006     0.0001     0.0013     0.0002     0.0008 </r>
        <r>     3.5840     0.3008     0.0240     0.0019     0.0152     0.0000     0.0000     0.0000     0.0000     0.0000 </r>
        <r>     3.6726     0.1328     0.0018     0.0006     0.0005     0.0000     0.0000     0.0000     0.0000     0.0000 </r>
        <r>     3.7612     0.0005     0.0000     0.0000     0.0000     0.0000     0.0000     0.0000     0.0000     0.0000 </r>
        <r>     3.8497     0.0002     0.0001     0.0083     0.0001     0.0019     0.0001     0.0001     0.0007     0.0000 </r>
        <r>     3.9383     0.0072     0.0056     0.2679     0.0042     0.0467     0.0120     0.0048     0.0277     0.0002 </r>
        <r>     4.0269     0.0224     0.0070     0.3137     0.0031     0.0260     0.0618     0.0047     0.0512     0.0003 </r>
        <r>     4.1154     0.0034     0.0005     0.0250     0.0001     0.0006     0.0089     0.0002     0.0036     0.0000 </r>
        <r>     4.2040     0.0000     0.0000     0.0000     0.0000     0.0000     0.0000     0.0001     0.0000     0.0001 </r>
        <r>     4.2926     0.0013     0.0017     0.0028     0.0036     0.0004     0.0006     0.0138     0.0002     0.0157 </r>
        <r>     4.3811     0.0027     0.0036     0.0059     0.0076     0.0008     0.0012     0.0289     0.0005     0.0329 </r>
        <r>     4.4697     0.0001     0.0001     0.0002     0.0002     0.0000     0.0000     0.0009     0.0000     0.0011 </r>
        <r>     4.5583     0.0000     0.0002     0.0000     0.0001     0.0000     0.0000     0.0003     0.0000     0.0000 </r>
        <r>     4.6468     0.0011     0.0325     0.0030     0.0128     0.0005     0.0009     0.0499     0.0003     0.0032 </r>
        <r>     4.7354     0.0544     0.0593     0.0059     0.0226     0.0007     0.0015     0.0826     0.0005     0.0981 </r>
        <r>     4.8240     0.1357     0.0097     0.0045     0.0052     0.0000     0.0001     0.0064     0.0000     0.1574 </r>
        <r>     4.9126     0.0387     0.0011     0.0014     0.0012     0.0000     0.0000     0.0007     0.0000     0.0358 </r>
        <r>     5.0011     0.0001     0.0000     0.0000     0.0000     0.0000     0.0000     0.0000     0.0000     0.0001 </r>
        <r>     5.0897     0.0000     0.0000     0.0000     0.0000     0.0000     0.0000     0.0000     0.0000     0.0000 </r>
        <r>     5.1783     0.0000     0.0000     0.0000     0.0000     0.0000     0.0000     0.0000     0.0000     0.0000 </r>
        <r>     5.2668     0.0000     0.0005     0.0026     0.0064     0.0001     0.0114     0.0209     0.0032     0.0001 </r>
        <r>     5.3554     0.0000     0.0021     0.0109     0.0269     0.0006     0.0480     0.0880     0.0134     0.0005 </r>
        <r>     5.4440     0.0000     0.0002     0.0008     0.0020     0.0000     0.0035     0.0064     0.0010     0.0000 </r>
        <r>     5.5325     0.0000     0.0000     0.0000     0.0000     0.0000     0.0000     0.0000     0.0000     0.0000 </r>
        <r>     5.6211     0.0000     0.0000     0.0000     0.0000     0.0000     0.0000     0.0000     0.0000     0.0000 </r>
        <r>     5.7097     0.0000     0.0000     0.0000     0.0000     0.0000     0.0000     0.0000     0.0000     0.0000 </r>
        <r>     5.7982     0.0000     0.0000     0.0000     0.0000     0.0000     0.0000     0.0000     0.0000     0.0000 </r>
        <r>     5.8868     0.0000     0.0000     0.0000     0.0000     0.0000     0.0000     0.0000     0.0000     0.0000 </r>
        <r>     5.9754     0.0000     0.0000     0.0000     0.0000     0.0000     0.0000     0.0000     0.0000     0.0000 </r>
        <r>     6.0639     0.0000     0.0000     0.0000     0.0000     0.0000     0.0000     0.0000     0.0000     0.0000 </r>
        <r>     6.1525     0.0000     0.0000     0.0000     0.0000     0.0000     0.0000     0.0000     0.0000     0.0000 </r>
        <r>     6.2411     0.0000     0.0000     0.0000     0.0000     0.0000     0.0000     0.0000     0.0000     0.0000 </r>
        <r>     6.3297     0.0000     0.0000     0.0000     0.0000     0.0000     0.0000     0.0000     0.0000     0.0000 </r>
        <r>     6.4182     0.0000     0.0000     0.0000     0.0000     0.0000     0.0000     0.0000     0.0000     0.0000 </r>
        <r>     6.5068     0.0000     0.0000     0.0000     0.0000     0.0000     0.0000     0.0000     0.0000     0.0000 </r>
       </set>
      </set>
     </set>
    </array>
   </partial>
  </dos>
  <projected>
   <eigenvalues>
    <array>
     <dimension dim="1">band</dimension>
     <dimension dim="2">kpoint</dimension>
     <dimension dim="3">spin</dimension>
     <field>eigene</field>
     <field>occ</field>
     <set>
      <set comment="spin 1">
       <set comment="kpoint 1">
        <r>  -18.8560    1.0000 </r>
        <r>  -18.8560    1.0000 </r>
        <r>  -18.8560    1.0000 </r>
        <r>  -18.8560    1.0000 </r>
        <r>  -18.8560    1.0000 </r>
        <r>   -8.9776    1.0000 </r>
        <r>   -2.6263    0.3389 </r>
        <r>   -2.6263    0.3389 </r>
        <r>   -2.6246    0.3222 </r>
        <r>   -0.6504    0.0000 </r>
        <r>    0.6791    0.0000 </r>
        <r>    0.6792    0.0000 </r>
        <r>    1.0943    0.0000 </r>
        <r>    1.0955    0.0000 </r>
        <r>    1.1187    0.0000 </r>
        <r>    1.2529    0.0000 </r>
        <r>    1.6435    0.0000 </r>
        <r>    1.6437    0.0000 </r>
        <r>    1.6444    0.0000 </r>
        <r>    2.3103    0.0000 </r>
        <r>    2.3162    0.0000 </r>
        <r>    2.3224    0.0000 </r>
        <r>    2.3426    0.0000 </r>
        <r>    2.3438    0.0000 </r>
        <r>    2.9368    0.0000 </r>
        <r>    2.9404    0.0000 </r>
        <r>    2.9553    0.0000 </r>
        <r>    3.0431    0.0000 </r>
        <r>    3.5125    0.0000 </r>
        <r>    3.5204    0.0000 </r>
        <r>    3.5270    0.0000 </r>
        <r>    3.5300    0.0000 </r>
        <r>    4.1545    0.0000 </r>
        <r>    4.1896    0.0000 </r>
        <r>    4.2768    0.0000 </r>
        <r>    4.5666    0.0000 </r>
       </set>
      </set>
      <set comment="spin 2">
       <set comment="kpoint 1">
        <r>  -18.7931    1.0000 </r>
        <r>  -18.7931    1.0000 </r>
        <r>  -18.7931    1.0000 </r>
        <r>  -18.7931    1.0000 </r>
        <r>  -18.7931    1.0000 </r>
        <r>   -8.2782    1.0000 </r>
        <r>   -1.8606    0.0000 </r>
        <r>   -1.8601    0.0000 </r>
        <r>   -1.8591    0.0000 </r>
        <r>   -0.0740    0.0000 </r>
        <r>    1.2678    0.0000 </r>
        <r>    1.2682    0.0000 </r>
        <r>    1.6646    0.0000 </r>
        <r>    1.6808    0.0000 </r>
        <r>    1.6818    0.0000 </r>
        <r>    1.6861    0.0000 </r>
        <r>    2.3263    0.0000 </r>
        <r>    2.3269    0.0000 </r>
        <r>    2.3276    0.0000 </r>
        <r>    2.7991    0.0000 </r>
        <r>    2.7995    0.0000 </r>
        <r>    2.8958    0.0000 </r>
        <r>    2.8966    0.0000 </r>
        <r>    2.9014    0.0000 </r>
        <r>    3.4202    0.0000 </r>
        <r>    3.4293    0.0000 </r>
        <r>    3.5655    0.0000 </r>
        <r>    3.9132    0.0000 </r>
        <r>    3.9316    0.0000 </r>
        <r>    3.9671    0.0000 </r>
        <r>    3.9882    0.0000 </r>
        <r>    4.3094    0.0000 </r>
        <r>    4.6572    0.0000 </r>
        <r>    4.7276    0.0000 </r>
        <r>    4.8023    0.0000 </r>
        <r>    5.2990    0.0000 </r>
       </set>
      </set>
     </set>
    </array>
   </eigenvalues>
   <array>
    <dimension dim="1">ion</dimension>
    <dimension dim="2">band</dimension>
    <dimension dim="3">kpoint</dimension>
    <dimension dim="4">spin</dimension>
    <field>    s</field>
    <field>   py</field>
    <field>   pz</field>
    <field>   px</field>
    <field>  dxy</field>
    <field>  dyz</field>
    <field>  dz2</field>
    <field>  dxz</field>
    <field>x2-y2</field>
    <set>
     <set comment="spin1">
      <set comment="kpoint 1">
       <set comment="band 1">
        <r>  0.0000  0.0000  0.0000  0.0000  0.3389  0.0247  0.0000  0.6275  0.0000 </r>
       </set>
       <set comment="band 2">
        <r>  0.0000  0.0000  0.0000  0.0000  0.0172  0.9642  0.0000  0.0097  0.0000 </r>
       </set>
       <set comment="band 3">
        <r>  0.0000  0.0000  0.0000  0.0000  0.6350  0.0022  0.0000  0.3539  0.0000 </r>
       </set>
       <set comment="band 4">
        <r>  0.0000  0.0000  0.0000  0.0000  0.0000  0.0000  0.5646  0.0000  0.4265 </r>
       </set>
       <set comment="band 5">
        <r>  0.0000  0.0000  0.0000  0.0000  0.0000  0.0000  0.4265  0.0000  0.5646 </r>
       </set>
       <set comment="band 6">
        <r>  0.5902  0.0000  0.0000  0.0000  0.0000  0.0000  0.0000  0.0000  0.0000 </r>
       </set>
       <set comment="band 7">
        <r>  0.0000  0.2284  0.0492  0.0111  0.0000  0.0000  0.0000  0.0000  0.0000 </r>
       </set>
       <set comment="band 8">
        <r>  0.0000  0.0375  0.2322  0.0187  0.0000  0.0000  0.0000  0.0000  0.0000 </r>
       </set>
       <set comment="band 9">
        <r>  0.0000  0.0223  0.0068  0.2546  0.0000  0.0000  0.0000  0.0000  0.0000 </r>
       </set>
       <set comment="band 10">
        <r>  0.0257  0.0000  0.0000  0.0000  0.0000  0.0000  0.0000  0.0000  0.0000 </r>
       </set>
       <set comment="band 11">
        <r>  0.0000  0.0000  0.0000  0.0000  0.0000  0.0000  0.0019  0.0000  0.0014 </r>
       </set>
       <set comment="band 12">
        <r>  0.0000  0.0000  0.0000  0.0000  0.0000  0.0000  0.0014  0.0000  0.0019 </r>
       </set>
       <set comment="band 13">
        <r>  0.0000  0.0099  0.0208  0.0118  0.0000  0.0000  0.0000  0.0000  0.0000 </r>
       </set>
       <set comment="band 14">
        <r>  0.0000  0.0298  0.0109  0.0003  0.0000  0.0000  0.0000  0.0000  0.0000 </r>
       </set>
       <set comment="band 15">
        <r>  0.0039  0.0023  0.0091  0.0291  0.0000  0.0000  0.0000  0.0000  0.0000 </r>
       </set>
       <set comment="band 16">
        <r>  0.0287  0.0003  0.0013  0.0037  0.0000  0.0000  0.0000  0.0000  0.0000 </r>
       </set>
       <set comment="band 17">
        <r>  0.0000  0.0000  0.0000  0.0001  0.0080  0.0019  0.0000  0.0006  0.0000 </r>
       </set>
       <set comment="band 18">
        <r>  0.0000  0.0000  0.0000  0.0002  0.0023  0.0081  0.0000  0.0001  0.0000 </r>
       </set>
       <set comment="band 19">
        <r>  0.0000  0.0000  0.0000  0.0000  0.0003  0.0004  0.0000  0.0099  0.0000 </r>
       </set>
       <set comment="band 20">
        <r>  0.0000  0.0000  0.0000  0.0003  0.0000  0.0000  0.0001  0.0000  0.0000 </r>
       </set>
       <set comment="band 21">
        <r>  0.0000  0.0002  0.0007  0.0000  0.0000  0.0000  0.0001  0.0000  0.0000 </r>
       </set>
       <set comment="band 22">
        <r>  0.0000  0.0013  0.0005  0.0001  0.0000  0.0000  0.0000  0.0000  0.0000 </r>
       </set>
       <set comment="band 23">
        <r>  0.0000  0.0000  0.0000  0.0000  0.0000  0.0000  0.0040  0.0000  0.0000 </r>
       </set>
       <set comment="band 24">
        <r>  0.0000  0.0000  0.0000  0.0000  0.0000  0.0000  0.0000  0.0000  0.0042 </r>
       </set>
       <set comment="band 25">
        <r>  0.0075  0.0007  0.0429  0.0102  0.0000  0.0000  0.0000  0.0000  0.0000 </r>
       </set>
       <set comment="band 26">
        <r>  0.0062  0.0382  0.0018  0.0146  0.0001  0.0001  0.0000  0.0001  0.0001 </r>
       </set>
       <set comment="band 27">
        <r>  0.0090  0.0044  0.0150  0.0294  0.0000  0.0000  0.0000  0.0000  0.0002 </r>
       </set>
       <set comment="band 28">
        <r>  0.0193  0.0183  0.0024  0.0112  0.0000  0.0000  0.0000  0.0000  0.0000 </r>
       </set>
       <set comment="band 29">
        <r>  0.0001  0.0015  0.0000  0.0001  0.0010  0.0069  0.0000  0.0000  0.0000 </r>
       </set>
       <set comment="band 30">
        <r>  0.0001  0.0006  0.0000  0.0004  0.0005  0.0000  0.0000  0.0072  0.0000 </r>
       </set>
       <set comment="band 31">
        <r>  0.0004  0.0002  0.0000  0.0005  0.0000  0.0000  0.0007  0.0000  0.0000 </r>
       </set>
       <set comment="band 32">
        <r>  0.0000  0.0000  0.0000  0.0000  0.0065  0.0010  0.0000  0.0005  0.0000 </r>
       </set>
       <set comment="band 33">
        <r>  0.0000  0.0022  0.0001  0.0004  0.0000  0.0000  0.0296  0.0000  0.0005 </r>
       </set>
       <set comment="band 34">
        <r>  0.0026  0.0001  0.0019  0.0004  0.0000  0.0000  0.0004  0.0000  0.0259 </r>
       </set>
       <set comment="band 35">
        <r>  0.0160  0.0006  0.0021  0.0001  0.0002  0.0002  0.0011  0.0000  0.0027 </r>
       </set>
       <set comment="band 36">
        <r>  0.0011  0.0041  0.0038  0.0024  0.0011  0.0027  0.0013  0.0061  0.0003 </r>
       </set>
      </set>
     </set>
     <set comment="spin2">
      <set comment="kpoint 1">
       <set comment="band 1">
        <r>  0.0000  0.0000  0.0000  0.0000  0.3737  0.6066  0.0000  0.0113  0.0000 </r>
       </set>
       <set comment="band 2">
        <r>  0.0000  0.0000  0.0000  0.0000  0.6069  0.3822  0.0000  0.0025  0.0000 </r>
       </set>
       <set comment="band 3">
        <r>  0.0000  0.0000  0.0000  0.0000  0.0110  0.0028  0.0000  0.9778  0.0000 </r>
       </set>
       <set comment="band 4">
        <r>  0.0000  0.0000  0.0000  0.0000  0.0000  0.0000  0.9915  0.0000  0.0000 </r>
       </set>
       <set comment="band 5">
        <r>  0.0000  0.0000  0.0000  0.0000  0.0000  0.0000  0.0000  0.0000  0.9915 </r>
       </set>
       <set comment="band 6">
        <r>  0.5983  0.0000  0.0000  0.0000  0.0000  0.0000  0.0000  0.0000  0.0000 </r>
       </set>
       <set comment="band 7">
        <r>  0.0000  0.0021  0.1853  0.0962  0.0000  0.0000  0.0000  0.0000  0.0000 </r>
       </set>
       <set comment="band 8">
        <r>  0.0000  0.2719  0.0079  0.0022  0.0000  0.0000  0.0000  0.0000  0.0000 </r>
       </set>
       <set comment="band 9">
        <r>  0.0000  0.0078  0.0900  0.1825  0.0000  0.0000  0.0000  0.0000  0.0000 </r>
       </set>
       <set comment="band 10">
        <r>  0.0232  0.0000  0.0000  0.0000  0.0000  0.0000  0.0000  0.0000  0.0000 </r>
       </set>
       <set comment="band 11">
        <r>  0.0000  0.0000  0.0000  0.0000  0.0000  0.0000  0.0011  0.0000  0.0016 </r>
       </set>
       <set comment="band 12">
        <r>  0.0000  0.0000  0.0000  0.0000  0.0000  0.0000  0.0016  0.0000  0.0011 </r>
       </set>
       <set comment="band 13">
        <r>  0.0326  0.0000  0.0000  0.0002  0.0000  0.0000  0.0000  0.0000  0.0000 </r>
       </set>
       <set comment="band 14">
        <r>  0.0000  0.0078  0.0290  0.0031  0.0000  0.0000  0.0000  0.0000  0.0000 </r>
       </set>
       <set comment="band 15">
        <r>  0.0001  0.0117  0.0101  0.0172  0.0000  0.0000  0.0000  0.0000  0.0000 </r>
       </set>
       <set comment="band 16">
        <r>  0.0000  0.0214  0.0011  0.0188  0.0000  0.0000  0.0000  0.0000  0.0000 </r>
       </set>
       <set comment="band 17">
        <r>  0.0000  0.0000  0.0000  0.0000  0.0008  0.0074  0.0000  0.0018  0.0000 </r>
       </set>
       <set comment="band 18">
        <r>  0.0000  0.0000  0.0000  0.0000  0.0010  0.0025  0.0000  0.0066  0.0000 </r>
       </set>
       <set comment="band 19">
        <r>  0.0000  0.0000  0.0000  0.0000  0.0083  0.0001  0.0000  0.0017  0.0000 </r>
       </set>
       <set comment="band 20">
        <r>  0.0000  0.0001  0.0000  0.0000  0.0000  0.0000  0.0000  0.0000  0.0039 </r>
       </set>
       <set comment="band 21">
        <r>  0.0000  0.0000  0.0000  0.0000  0.0000  0.0000  0.0039  0.0000  0.0000 </r>
       </set>
       <set comment="band 22">
        <r>  0.0000  0.0000  0.0000  0.0000  0.0000  0.0000  0.0000  0.0000  0.0000 </r>
       </set>
       <set comment="band 23">
        <r>  0.0000  0.0000  0.0000  0.0000  0.0000  0.0000  0.0000  0.0000  0.0000 </r>
       </set>
       <set comment="band 24">
        <r>  0.0000  0.0002  0.0000  0.0000  0.0000  0.0000  0.0000  0.0000  0.0000 </r>
       </set>
       <set comment="band 25">
        <r>  0.0003  0.0069  0.0000  0.0620  0.0000  0.0000  0.0001  0.0000  0.0000 </r>
       </set>
       <set comment="band 26">
        <r>  0.0003  0.0541  0.0012  0.0069  0.0001  0.0000  0.0001  0.0000  0.0001 </r>
       </set>
       <set comment="band 27">
        <r>  0.0394  0.0005  0.0002  0.0002  0.0000  0.0000  0.0000  0.0000  0.0000 </r>
       </set>
       <set comment="band 28">
        <r>  0.0003  0.0000  0.0151  0.0001  0.0040  0.0000  0.0001  0.0016  0.0000 </r>
       </set>
       <set comment="band 29">
        <r>  0.0004  0.0008  0.0175  0.0005  0.0019  0.0006  0.0006  0.0006  0.0000 </r>
       </set>
       <set comment="band 30">
        <r>  0.0001  0.0001  0.0094  0.0000  0.0006  0.0015  0.0001  0.0043  0.0000 </r>
       </set>
       <set comment="band 31">
        <r>  0.0021  0.0003  0.0125  0.0000  0.0001  0.0052  0.0001  0.0009  0.0000 </r>
       </set>
       <set comment="band 32">
        <r>  0.0004  0.0005  0.0008  0.0010  0.0001  0.0002  0.0039  0.0001  0.0044 </r>
       </set>
       <set comment="band 33">
        <r>  0.0000  0.0075  0.0007  0.0029  0.0001  0.0002  0.0115  0.0001  0.0003 </r>
       </set>
       <set comment="band 34">
        <r>  0.0077  0.0013  0.0002  0.0004  0.0000  0.0000  0.0006  0.0000  0.0141 </r>
       </set>
       <set comment="band 35">
        <r>  0.0127  0.0003  0.0005  0.0004  0.0000  0.0000  0.0002  0.0000  0.0116 </r>
       </set>
       <set comment="band 36">
        <r>  0.0000  0.0002  0.0013  0.0031  0.0001  0.0056  0.0102  0.0016  0.0001 </r>
       </set>
      </set>
     </set>
    </set>
   </array>
  </projected>
 </calculation>
 <structure name="finalpos" >
  <crystal>
   <varray name="basis" >
    <v>      10.00000000       0.00000000       0.00000000 </v>
    <v>       0.00000000      10.00000000       0.00000000 </v>
    <v>       0.00000000       0.00000000      10.00000000 </v>
   </varray>
   <i name="volume">   1000.00000000 </i>
   <varray name="rec_basis" >
    <v>       0.10000000       0.00000000       0.00000000 </v>
    <v>       0.00000000       0.10000000       0.00000000 </v>
    <v>       0.00000000       0.00000000       0.10000000 </v>
   </varray>
  </crystal>
  <varray name="positions" >
   <v>       0.50000000       0.50000000       0.50000000 </v>
  </varray>
 </structure>
</modeling>
