       N       E                     dE             d eps       ncg     rms          ort
DAV:   1     0.321800324360E+03    0.32180E+03   -0.44415E+03    36   0.302E+02
DAV:   2     0.860481559052E+02   -0.23575E+03   -0.23573E+03    36   0.104E+02
DAV:   3     0.135574070465E+02   -0.72491E+02   -0.72470E+02    36   0.895E+01
DAV:   4     0.486886830402E+00   -0.13071E+02   -0.12945E+02    36   0.342E+01
DAV:   5    -0.941297818138E+00   -0.14282E+01   -0.14040E+01    36   0.121E+01
SDA:   6     0.900068787487E+00    0.18414E+01   -0.45867E+01    36   0.115E+02 0.000E+00
DMP:   7     0.123131425059E+01    0.33125E+00   -0.11939E+02    36   0.418E+02-0.314E+02
DMP:   8     0.283189321032E+01    0.16006E+01   -0.26701E+02    36   0.803E+02-0.354E+02
DMP:   9     0.300277262248E+01    0.17088E+00   -0.32175E+02    36   0.104E+03-0.626E+02
DMP:  10     0.267860778150E+01   -0.32416E+00   -0.14298E+02    36   0.517E+02-0.418E+02
DMP:  11    -0.571310476917E+00   -0.32499E+01   -0.40558E+01    36   0.174E+02-0.190E+02
DMP:  12    -0.231432722696E+01   -0.17430E+01   -0.24426E+00    36   0.110E+01-0.127E+01
DMP:  13    -0.231880838094E+01   -0.44812E-02   -0.42984E+00    36   0.125E+01-0.454E+00
DMP:  14    -0.240631605374E+01   -0.87508E-01   -0.12328E+00    36   0.550E+00-0.633E+00
DMP:  15    -0.246924690446E+01   -0.62931E-01   -0.21059E-01    36   0.498E-01 0.745E-02
DMP:  16    -0.246803785073E+01    0.12091E-02   -0.21601E-01    36   0.763E-01-0.585E-01
DMP:  17    -0.247859774243E+01   -0.10560E-01   -0.24359E-02    36   0.652E-02-0.111E-02
DMP:  18    -0.247861320291E+01   -0.15460E-04   -0.28638E-02    36   0.944E-02-0.598E-02
DMP:  19    -0.248010827483E+01   -0.14951E-02   -0.49415E-03    36   0.112E-02 0.291E-03
DMP:  20    -0.248021488468E+01   -0.10661E-03   -0.36761E-03    36   0.119E-02-0.718E-03
DMP:  21    -0.248043815750E+01   -0.22327E-03   -0.13966E-03    36   0.270E-03 0.207E-03
DMP:  22    -0.248049441227E+01   -0.56255E-04   -0.65538E-04    36   0.186E-03-0.575E-04
DMP:  23    -0.248054001517E+01   -0.45603E-04   -0.39471E-04    36   0.739E-04 0.650E-04
   1 F= -.24805400E+01 E0= -.24805400E+01  d E =-.248054E+01  mag=     4.0000
