<?xml version="1.0" encoding="ISO-8859-1"?>
<modeling>
 <generator>
  <i name="program" type="string">vasp </i>
  <i name="version" type="string">5.4.4.18Apr17-6-g9f103f2a35  </i>
  <i name="subversion" type="string">(build Nov 08 2019 15:19:53) gamma-only         parallel </i>
  <i name="platform" type="string">LinuxIFC </i>
  <i name="date" type="string">2020 11 30 </i>
  <i name="time" type="string">09:30:46 </i>
 </generator>
 <incar>
  <i type="string" name="PREC">accurate</i>
  <i type="string" name="ALGO"> D</i>
  <i type="int" name="ISPIN">     2</i>
  <i type="int" name="NELM">   300</i>
  <i type="int" name="IBRION">     2</i>
  <i name="EDIFF">      0.00005000</i>
  <i type="int" name="NSW">    99</i>
  <i type="int" name="ISIF">     2</i>
  <i name="ENCUT">    520.00000000</i>
  <v name="MAGMOM">      0.60000000</v>
  <i type="string" name="LREAL"> Auto</i>
  <i type="int" name="ISMEAR">     0</i>
  <i name="SIGMA">      0.05000000</i>
  <i type="logical" name="LWAVE"> F  </i>
  <i type="int" name="LORBIT">    11</i>
  <i type="logical" name="LASPH"> T  </i>
  <v type="int" name="KPOINT_BSE">    -1     0     0     0</v>
  <i type="int" name="NELM">   300</i>
  <i type="logical" name="LASPH"> T  </i>
 </incar>
 <structure name="primitive_cell" >
  <crystal>
   <varray name="basis" >
    <v>      10.00000000       0.00000000       0.00000000 </v>
    <v>       0.00000000      10.00000000       0.00000000 </v>
    <v>       0.00000000       0.00000000      10.00000000 </v>
   </varray>
   <i name="volume">   1000.00000000 </i>
   <varray name="rec_basis" >
    <v>       0.10000000       0.00000000       0.00000000 </v>
    <v>       0.00000000       0.10000000       0.00000000 </v>
    <v>       0.00000000       0.00000000       0.10000000 </v>
   </varray>
  </crystal>
  <varray name="positions" >
   <v>      -0.50000000      -0.50000000      -0.50000000 </v>
  </varray>
 </structure>
 <varray name="primitive_index" >
  <v type="int" >        1 </v>
 </varray>
 <kpoints>
  <generation param="Gamma">
   <v type="int" name="divisions">       1        1        1 </v>
   <v name="usershift">      0.00000000       0.00000000       0.00000000 </v>
   <v name="genvec1">      1.00000000       0.00000000       0.00000000 </v>
   <v name="genvec2">      0.00000000       1.00000000       0.00000000 </v>
   <v name="genvec3">      0.00000000       0.00000000       1.00000000 </v>
   <v name="shift">      0.00000000       0.00000000       0.00000000 </v>
  </generation>
  <varray name="kpointlist" >
   <v>       0.00000000       0.00000000       0.00000000 </v>
  </varray>
  <varray name="weights" >
   <v>       1.00000000 </v>
  </varray>
 </kpoints>
 <parameters>
  <separator name="general" >
   <i type="string" name="SYSTEM">unknown system</i>
   <i type="logical" name="LCOMPAT"> F  </i>
  </separator>
  <separator name="electronic" >
   <i type="string" name="PREC">accura</i>
   <i name="ENMAX">    520.00000000</i>
   <i name="ENAUG">    430.79200000</i>
   <i name="EDIFF">      0.00005000</i>
   <i type="int" name="IALGO">    53</i>
   <i type="int" name="IWAVPR">    11</i>
   <i type="int" name="NBANDS">    36</i>
   <i name="NELECT">     14.00000000</i>
   <i type="int" name="TURBO">     0</i>
   <i type="int" name="IRESTART">     0</i>
   <i type="int" name="NREBOOT">     0</i>
   <i type="int" name="NMIN">     0</i>
   <i name="EREF">      0.00000000</i>
   <separator name="electronic smearing" >
    <i type="int" name="ISMEAR">     0</i>
    <i name="SIGMA">      0.05000000</i>
    <i name="KSPACING">      0.50000000</i>
    <i type="logical" name="KGAMMA"> T  </i>
   </separator>
   <separator name="electronic projectors" >
    <i type="logical" name="LREAL"> T  </i>
    <v name="ROPT">     -0.00025000</v>
    <i type="int" name="LMAXPAW">  -100</i>
    <i type="int" name="LMAXMIX">     2</i>
    <i type="logical" name="NLSPLINE"> F  </i>
   </separator>
   <separator name="electronic startup" >
    <i type="int" name="ISTART">     0</i>
    <i type="int" name="ICHARG">     2</i>
    <i type="int" name="INIWAV">     1</i>
   </separator>
   <separator name="electronic spin" >
    <i type="int" name="ISPIN">     2</i>
    <i type="logical" name="LNONCOLLINEAR"> F  </i>
    <v name="MAGMOM">      0.60000000</v>
    <i name="NUPDOWN">     -1.00000000</i>
    <i type="logical" name="LSORBIT"> F  </i>
    <v name="SAXIS">      0.00000000      0.00000000      1.00000000</v>
    <i type="logical" name="LSPIRAL"> F  </i>
    <v name="QSPIRAL">      0.00000000      0.00000000      0.00000000</v>
    <i type="logical" name="LZEROZ"> F  </i>
   </separator>
   <separator name="electronic exchange-correlation" >
    <i type="logical" name="LASPH"> T  </i>
    <i type="logical" name="LMETAGGA"> F  </i>
   </separator>
   <separator name="electronic convergence" >
    <i type="int" name="NELM">   300</i>
    <i type="int" name="NELMDL">    -5</i>
    <i type="int" name="NELMIN">     2</i>
    <i name="ENINI">    520.00000000</i>
    <separator name="electronic convergence detail" >
     <i type="logical" name="LDIAG"> T  </i>
     <i type="logical" name="LSUBROT"> F  </i>
     <i name="WEIMIN">      0.00100000</i>
     <i name="EBREAK">      0.00000035</i>
     <i name="DEPER">      0.30000000</i>
     <i type="int" name="NRMM">     4</i>
     <i name="TIME">      0.40000000</i>
    </separator>
   </separator>
   <separator name="electronic mixer" >
    <i name="AMIX">      0.40000000</i>
    <i name="BMIX">      1.00000000</i>
    <i name="AMIN">      0.10000000</i>
    <i name="AMIX_MAG">      1.60000000</i>
    <i name="BMIX_MAG">      1.00000000</i>
    <separator name="electronic mixer details" >
     <i type="int" name="IMIX">     4</i>
     <i type="logical" name="MIXFIRST"> F  </i>
     <i type="int" name="MAXMIX">   -45</i>
     <i name="WC">    100.00000000</i>
     <i type="int" name="INIMIX">     1</i>
     <i type="int" name="MIXPRE">     1</i>
     <i type="int" name="MREMOVE">     5</i>
    </separator>
   </separator>
   <separator name="electronic dipolcorrection" >
    <i type="logical" name="LDIPOL"> F  </i>
    <i type="logical" name="LMONO"> F  </i>
    <i type="int" name="IDIPOL">     0</i>
    <i name="EPSILON">      1.00000000</i>
    <v name="DIPOL">   -100.00000000   -100.00000000   -100.00000000</v>
    <i name="EFIELD">      0.00000000</i>
   </separator>
  </separator>
  <separator name="grids" >
   <i type="int" name="NGX">    80</i>
   <i type="int" name="NGY">    80</i>
   <i type="int" name="NGZ">    80</i>
   <i type="int" name="NGXF">   160</i>
   <i type="int" name="NGYF">   160</i>
   <i type="int" name="NGZF">   160</i>
   <i type="logical" name="ADDGRID"> F  </i>
  </separator>
  <separator name="ionic" >
   <i type="int" name="NSW">    99</i>
   <i type="int" name="IBRION">     2</i>
   <i type="int" name="MDALGO">     0</i>
   <i type="int" name="ISIF">     2</i>
   <i name="PSTRESS">      0.00000000</i>
   <i name="EDIFFG">      0.00050000</i>
   <i type="int" name="NFREE">     1</i>
   <i name="POTIM">      0.50000000</i>
   <i name="SMASS">     -3.00000000</i>
   <i name="SCALEE">      1.00000000</i>
  </separator>
  <separator name="ionic md" >
   <i name="TEBEG">      0.00010000</i>
   <i name="TEEND">      0.00010000</i>
   <i type="int" name="NBLOCK">     1</i>
   <i type="int" name="KBLOCK">    99</i>
   <i type="int" name="NPACO">   256</i>
   <i name="APACO">     16.00000000</i>
  </separator>
  <separator name="symmetry" >
   <i type="int" name="ISYM">     2</i>
   <i name="SYMPREC">      0.00001000</i>
  </separator>
  <separator name="dos" >
   <i type="int" name="LORBIT">    11</i>
   <v name="RWIGS">     -1.00000000</v>
   <i type="int" name="NEDOS">   301</i>
   <i name="EMIN">     10.00000000</i>
   <i name="EMAX">    -10.00000000</i>
   <i name="EFERMI">      0.00000000</i>
  </separator>
  <separator name="writing" >
   <i type="int" name="NWRITE">     2</i>
   <i type="logical" name="LWAVE"> F  </i>
   <i type="logical" name="LDOWNSAMPLE"> F  </i>
   <i type="logical" name="LCHARG"> T  </i>
   <i type="logical" name="LPARD"> F  </i>
   <i type="logical" name="LVTOT"> F  </i>
   <i type="logical" name="LVHAR"> F  </i>
   <i type="logical" name="LELF"> F  </i>
   <i type="logical" name="LOPTICS"> F  </i>
   <v name="STM">      0.00000000      0.00000000      0.00000000      0.00000000      0.00000000      0.00000000      0.00000000</v>
  </separator>
  <separator name="performance" >
   <i type="int" name="NPAR">    36</i>
   <i type="int" name="NSIM">     4</i>
   <i type="int" name="NBLK">    -1</i>
   <i type="logical" name="LPLANE"> T  </i>
   <i type="logical" name="LSCALAPACK"> T  </i>
   <i type="logical" name="LSCAAWARE"> F  </i>
   <i type="logical" name="LSCALU"> F  </i>
   <i type="logical" name="LASYNC"> F  </i>
   <i type="logical" name="LORBITALREAL"> F  </i>
  </separator>
  <separator name="miscellaneous" >
   <i type="int" name="IDIOT">     3</i>
   <i type="int" name="ISPECIAL">     0</i>
   <i type="logical" name="LMUSIC"> F  </i>
   <v name="POMASS">    101.07000000</v>
   <v name="DARWINR">      0.00000000</v>
   <v name="DARWINV">      1.00000000</v>
   <i type="logical" name="LCORR"> T  </i>
  </separator>
  <i type="logical" name="GGA_COMPAT"> T  </i>
  <i type="logical" name="LBERRY"> F  </i>
  <i type="int" name="ICORELEVEL">     0</i>
  <i type="logical" name="LDAU"> F  </i>
  <i type="int" name="I_CONSTRAINED_M">     0</i>
  <separator name="electronic exchange-correlation" >
   <i type="string" name="GGA">--</i>
   <i type="int" name="VOSKOWN">     0</i>
   <i type="logical" name="LHFCALC"> F  </i>
   <i type="string" name="PRECFOCK"></i>
   <i type="logical" name="LSYMGRAD"> F  </i>
   <i type="logical" name="LHFONE"> F  </i>
   <i type="logical" name="LRHFCALC"> F  </i>
   <i type="logical" name="LTHOMAS"> F  </i>
   <i type="logical" name="LMODELHF"> F  </i>
   <i name="ENCUT4O">     -1.00000000</i>
   <i type="int" name="EXXOEP">     0</i>
   <i type="int" name="FOURORBIT">     0</i>
   <i name="AEXX">      0.00000000</i>
   <i name="HFALPHA">      0.00000000</i>
   <i name="MCALPHA">      0.00000000</i>
   <i name="ALDAX">      1.00000000</i>
   <i name="AGGAX">      1.00000000</i>
   <i name="ALDAC">      1.00000000</i>
   <i name="AGGAC">      1.00000000</i>
   <i type="int" name="NKREDX">     1</i>
   <i type="int" name="NKREDY">     1</i>
   <i type="int" name="NKREDZ">     1</i>
   <i type="logical" name="SHIFTRED"> F  </i>
   <i type="logical" name="ODDONLY"> F  </i>
   <i type="logical" name="EVENONLY"> F  </i>
   <i type="int" name="LMAXFOCK">     0</i>
   <i type="int" name="NMAXFOCKAE">     0</i>
   <i type="logical" name="LFOCKAEDFT"> F  </i>
   <i name="HFSCREEN">      0.00000000</i>
   <i name="HFSCREENC">      0.00000000</i>
   <i type="int" name="NBANDSGWLOW">     0</i>
  </separator>
  <separator name="vdW DFT" >
   <i type="logical" name="LUSE_VDW"> F  </i>
   <i name="Zab_VDW">     -0.84910000</i>
   <i name="PARAM1">      0.12340000</i>
   <i name="PARAM2">      1.00000000</i>
   <i name="PARAM3">      0.00000000</i>
  </separator>
  <separator name="model GW" >
   <i type="int" name="MODEL_GW">     0</i>
   <i name="MODEL_EPS0">    600.00000000</i>
   <i name="MODEL_ALPHA">      1.00000000</i>
  </separator>
  <separator name="linear response parameters" >
   <i type="logical" name="LEPSILON"> F  </i>
   <i type="logical" name="LRPA"> F  </i>
   <i type="logical" name="LNABLA"> F  </i>
   <i type="logical" name="LVEL"> F  </i>
   <i type="int" name="KINTER">     0</i>
   <i name="CSHIFT">      0.10000000</i>
   <i name="OMEGAMAX">     -1.00000000</i>
   <i name="DEG_THRESHOLD">      0.00200000</i>
   <i name="RTIME">     -0.10000000</i>
   <i name="WPLASMAI">      0.00000000</i>
   <v name="DFIELD">      0.00000000      0.00000000      0.00000000</v>
   <v name="WPLASMA">      0.00000000      0.00000000      0.00000000      0.00000000      0.00000000      0.00000000      0.00000000      0.00000000      0.00000000</v>
  </separator>
  <separator name="orbital magnetization" >
   <i type="logical" name="NUCIND"> F  </i>
   <v name="MAGPOS">      0.00000000      0.00000000      0.00000000</v>
   <i type="logical" name="LNICSALL"> T  </i>
   <i type="logical" name="ORBITALMAG"> F  </i>
   <i type="logical" name="LMAGBLOCH"> F  </i>
   <i type="logical" name="LCHIMAG"> F  </i>
   <i type="logical" name="LGAUGE"> T  </i>
   <i type="int" name="MAGATOM">     0</i>
   <v name="MAGDIPOL">      0.00000000      0.00000000      0.00000000</v>
   <v name="AVECCONST">      0.00000000      0.00000000      0.00000000</v>
  </separator>
  <separator name="response functions" >
   <i type="logical" name="LADDER"> F  </i>
   <i type="logical" name="LRPAFORCE"> F  </i>
   <i type="logical" name="LFXC"> F  </i>
   <i type="logical" name="LHARTREE"> T  </i>
   <i type="int" name="IBSE">     0</i>
   <v type="int" name="KPOINT">    -1     0     0     0</v>
   <i type="logical" name="LTCTE"> F  </i>
   <i type="logical" name="LTETE"> F  </i>
   <i type="logical" name="LTRIPLET"> F  </i>
   <i type="logical" name="LFXCEPS"> F  </i>
   <i type="logical" name="LFXHEG"> F  </i>
   <i type="int" name="NATURALO">     2</i>
   <i type="logical" name="L2ORDER"> F  </i>
   <i type="logical" name="LMP2LT"> F  </i>
   <i type="logical" name="LUSEW"> F  </i>
   <i name="ENCUTGW">     -2.00000000</i>
   <i name="ENCUTGWSOFT">     -2.00000000</i>
   <i name="ENCUTLF">     -1.00000000</i>
   <i type="int" name="LMAXMP2">    -1</i>
   <i name="SCISSOR">      0.00000000</i>
   <i type="int" name="NOMEGA">     0</i>
   <i type="int" name="NOMEGAR">     0</i>
   <i type="int" name="NBANDSGW">    -1</i>
   <i type="int" name="NBANDSO">    -1</i>
   <i type="int" name="NBANDSV">    -1</i>
   <i type="int" name="NELM">   300</i>
   <i type="int" name="NELMHF">     1</i>
   <i type="int" name="DIM">     3</i>
   <i type="int" name="ANTIRES">     0</i>
   <i name="OMEGAMAX">    -30.00000000</i>
   <i name="OMEGAMIN">    -30.00000000</i>
   <i name="OMEGATL">   -200.00000000</i>
   <i type="int" name="OMEGAGRID">   140</i>
   <i name="CSHIFT">     -0.10000000</i>
   <i type="logical" name="SELFENERGY"> F  </i>
   <i type="logical" name="LSPECTRAL"> F  </i>
   <i type="logical" name="LSPECTRALGW"> F  </i>
   <i type="logical" name="LSINGLES"> F  </i>
   <i type="logical" name="LFERMIGW"> F  </i>
   <i type="logical" name="ODDONLYGW"> F  </i>
   <i type="logical" name="EVENONLYGW"> F  </i>
   <i type="int" name="NKREDLFX">     1</i>
   <i type="int" name="NKREDLFY">     1</i>
   <i type="int" name="NKREDLFZ">     1</i>
   <i type="int" name="MAXMEM">  2800</i>
   <i type="int" name="TELESCOPE">     0</i>
   <i type="int" name="TAUPAR">     1</i>
   <i type="int" name="OMEGAPAR">    -1</i>
   <i name="LAMBDA">      1.00000000</i>
  </separator>
  <separator name="External order field" >
   <i name="OFIELD_KAPPA">      0.00000000</i>
   <v name="OFIELD_K">      0.00000000      0.00000000      0.00000000</v>
   <i name="OFIELD_Q6_NEAR">      0.00000000</i>
   <i name="OFIELD_Q6_FAR">      0.00000000</i>
   <i name="OFIELD_A">      0.00000000</i>
  </separator>
 </parameters>
 <atominfo>
  <atoms>       1 </atoms>
  <types>       1 </types>
  <array name="atoms" >
   <dimension dim="1">ion</dimension>
   <field type="string">element</field>
   <field type="int">atomtype</field>
   <set>
    <rc><c>Ru</c><c>   1</c></rc>
   </set>
  </array>
  <array name="atomtypes" >
   <dimension dim="1">type</dimension>
   <field type="int">atomspertype</field>
   <field type="string">element</field>
   <field>mass</field>
   <field>valence</field>
   <field type="string">pseudopotential</field>
   <set>
    <rc><c>   1</c><c>Ru</c><c>    101.07000000</c><c>     14.00000000</c><c>  PAW_PBE Ru_pv 28Jan2005               </c></rc>
   </set>
  </array>
 </atominfo>
 <structure name="initialpos" >
  <crystal>
   <varray name="basis" >
    <v>      10.00000000       0.00000000       0.00000000 </v>
    <v>       0.00000000      10.00000000       0.00000000 </v>
    <v>       0.00000000       0.00000000      10.00000000 </v>
   </varray>
   <i name="volume">   1000.00000000 </i>
   <varray name="rec_basis" >
    <v>       0.10000000       0.00000000       0.00000000 </v>
    <v>       0.00000000       0.10000000       0.00000000 </v>
    <v>       0.00000000       0.00000000       0.10000000 </v>
   </varray>
  </crystal>
  <varray name="positions" >
   <v>       0.50000000       0.50000000       0.50000000 </v>
  </varray>
 </structure>
 <calculation>
  <scstep>
   <time name="total">    1.13    1.14</time>
   <energy>
    <i name="alphaZ">      1.72944926 </i>
    <i name="ewald">   -400.39350411 </i>
    <i name="hartreedc">  -1228.88877962 </i>
    <i name="XCdc">     54.60620721 </i>
    <i name="pawpsdc">   1568.56875239 </i>
    <i name="pawaedc">  -1553.83149853 </i>
    <i name="eentropy">     -0.02059338 </i>
    <i name="bandstr">      6.56251132 </i>
    <i name="atom">   1873.46777981 </i>
    <i name="e_fr_energy">    321.80032436 </i>
    <i name="e_wo_entrp">    321.82091774 </i>
    <i name="e_0_energy">    321.81062105 </i>
   </energy>
  </scstep>
  <scstep>
   <time name="total">    0.46    0.46</time>
   <energy>
    <i name="e_fr_energy">     86.04815591 </i>
    <i name="e_wo_entrp">     86.04872899 </i>
    <i name="e_0_energy">     86.04844245 </i>
   </energy>
  </scstep>
  <scstep>
   <time name="total">    0.47    0.47</time>
   <energy>
    <i name="e_fr_energy">     13.55740705 </i>
    <i name="e_wo_entrp">     13.58493699 </i>
    <i name="e_0_energy">     13.57117202 </i>
   </energy>
  </scstep>
  <scstep>
   <time name="total">    0.60    0.60</time>
   <energy>
    <i name="e_fr_energy">      0.48688683 </i>
    <i name="e_wo_entrp">      0.49919401 </i>
    <i name="e_0_energy">      0.49304042 </i>
   </energy>
  </scstep>
  <scstep>
   <time name="total">    0.85    0.85</time>
   <energy>
    <i name="e_fr_energy">     -0.94129782 </i>
    <i name="e_wo_entrp">     -0.88375096 </i>
    <i name="e_0_energy">     -0.91252439 </i>
   </energy>
  </scstep>
  <scstep>
   <time name="total">    1.13    1.14</time>
   <energy>
    <i name="e_fr_energy">      0.90006879 </i>
    <i name="e_wo_entrp">      0.96223409 </i>
    <i name="e_0_energy">      0.93115144 </i>
   </energy>
  </scstep>
  <scstep>
   <time name="total">    1.11    1.11</time>
   <energy>
    <i name="e_fr_energy">      1.23131425 </i>
    <i name="e_wo_entrp">      1.30548001 </i>
    <i name="e_0_energy">      1.26839713 </i>
   </energy>
  </scstep>
  <scstep>
   <time name="total">    1.14    1.14</time>
   <energy>
    <i name="e_fr_energy">      2.83189321 </i>
    <i name="e_wo_entrp">      2.90267438 </i>
    <i name="e_0_energy">      2.86728380 </i>
   </energy>
  </scstep>
  <scstep>
   <time name="total">    1.11    1.11</time>
   <energy>
    <i name="e_fr_energy">      3.00277262 </i>
    <i name="e_wo_entrp">      3.06285913 </i>
    <i name="e_0_energy">      3.03281588 </i>
   </energy>
  </scstep>
  <scstep>
   <time name="total">    1.10    1.10</time>
   <energy>
    <i name="e_fr_energy">      2.67860778 </i>
    <i name="e_wo_entrp">      2.72076137 </i>
    <i name="e_0_energy">      2.69968458 </i>
   </energy>
  </scstep>
  <scstep>
   <time name="total">    1.11    1.11</time>
   <energy>
    <i name="e_fr_energy">     -0.57131048 </i>
    <i name="e_wo_entrp">     -0.56540628 </i>
    <i name="e_0_energy">     -0.56835838 </i>
   </energy>
  </scstep>
  <scstep>
   <time name="total">    1.12    1.12</time>
   <energy>
    <i name="e_fr_energy">     -2.31432723 </i>
    <i name="e_wo_entrp">     -2.31430729 </i>
    <i name="e_0_energy">     -2.31431726 </i>
   </energy>
  </scstep>
  <scstep>
   <time name="total">    1.11    1.11</time>
   <energy>
    <i name="e_fr_energy">     -2.31880838 </i>
    <i name="e_wo_entrp">     -2.31880838 </i>
    <i name="e_0_energy">     -2.31880838 </i>
   </energy>
  </scstep>
  <scstep>
   <time name="total">    1.11    1.11</time>
   <energy>
    <i name="e_fr_energy">     -2.40631605 </i>
    <i name="e_wo_entrp">     -2.40631605 </i>
    <i name="e_0_energy">     -2.40631605 </i>
   </energy>
  </scstep>
  <scstep>
   <time name="total">    1.10    1.10</time>
   <energy>
    <i name="e_fr_energy">     -2.46924690 </i>
    <i name="e_wo_entrp">     -2.46924690 </i>
    <i name="e_0_energy">     -2.46924690 </i>
   </energy>
  </scstep>
  <scstep>
   <time name="total">    1.12    1.12</time>
   <energy>
    <i name="e_fr_energy">     -2.46803785 </i>
    <i name="e_wo_entrp">     -2.46803785 </i>
    <i name="e_0_energy">     -2.46803785 </i>
   </energy>
  </scstep>
  <scstep>
   <time name="total">    1.12    1.12</time>
   <energy>
    <i name="e_fr_energy">     -2.47859774 </i>
    <i name="e_wo_entrp">     -2.47859774 </i>
    <i name="e_0_energy">     -2.47859774 </i>
   </energy>
  </scstep>
  <scstep>
   <time name="total">    1.11    1.11</time>
   <energy>
    <i name="e_fr_energy">     -2.47861320 </i>
    <i name="e_wo_entrp">     -2.47861320 </i>
    <i name="e_0_energy">     -2.47861320 </i>
   </energy>
  </scstep>
  <scstep>
   <time name="total">    1.10    1.10</time>
   <energy>
    <i name="e_fr_energy">     -2.48010827 </i>
    <i name="e_wo_entrp">     -2.48010827 </i>
    <i name="e_0_energy">     -2.48010827 </i>
   </energy>
  </scstep>
  <scstep>
   <time name="total">    1.11    1.11</time>
   <energy>
    <i name="e_fr_energy">     -2.48021488 </i>
    <i name="e_wo_entrp">     -2.48021488 </i>
    <i name="e_0_energy">     -2.48021488 </i>
   </energy>
  </scstep>
  <scstep>
   <time name="total">    1.10    1.10</time>
   <energy>
    <i name="e_fr_energy">     -2.48043816 </i>
    <i name="e_wo_entrp">     -2.48043816 </i>
    <i name="e_0_energy">     -2.48043816 </i>
   </energy>
  </scstep>
  <scstep>
   <time name="total">    1.09    1.10</time>
   <energy>
    <i name="e_fr_energy">     -2.48049441 </i>
    <i name="e_wo_entrp">     -2.48049441 </i>
    <i name="e_0_energy">     -2.48049441 </i>
   </energy>
  </scstep>
  <scstep>
   <time name="total">    1.21    1.21</time>
   <energy>
    <i name="alphaZ">      1.72944926 </i>
    <i name="ewald">   -400.39350411 </i>
    <i name="hartreedc">  -1231.89081012 </i>
    <i name="XCdc">     55.76476475 </i>
    <i name="pawpsdc">   1562.58079607 </i>
    <i name="pawaedc">  -1548.05267255 </i>
    <i name="eentropy">     -0.00000000 </i>
    <i name="bandstr">   -315.68634314 </i>
    <i name="atom">   1873.46777981 </i>
    <i name="e_fr_energy">     -2.48054002 </i>
    <i name="e_wo_entrp">     -2.48054002 </i>
    <i name="e_0_energy">     -2.48054002 </i>
   </energy>
  </scstep>
  <structure>
   <crystal>
    <varray name="basis" >
     <v>      10.00000000       0.00000000       0.00000000 </v>
     <v>       0.00000000      10.00000000       0.00000000 </v>
     <v>       0.00000000       0.00000000      10.00000000 </v>
    </varray>
    <i name="volume">   1000.00000000 </i>
    <varray name="rec_basis" >
     <v>       0.10000000       0.00000000       0.00000000 </v>
     <v>       0.00000000       0.10000000       0.00000000 </v>
     <v>       0.00000000       0.00000000       0.10000000 </v>
    </varray>
   </crystal>
   <varray name="positions" >
    <v>       0.50000000       0.50000000       0.50000000 </v>
   </varray>
  </structure>
  <varray name="forces" >
   <v>       0.00000000       0.00000000       0.00000000 </v>
  </varray>
  <varray name="stress" >
   <v>      -0.02001486       0.00000000       0.00000000 </v>
   <v>       0.00000000      -0.02001486       0.00000000 </v>
   <v>       0.00000000       0.00000000      -0.02001486 </v>
  </varray>
  <energy>
   <i name="e_fr_energy">     -2.48054002 </i>
   <i name="e_wo_entrp">     -2.48054002 </i>
   <i name="e_0_energy">     -0.00000000 </i>
  </energy>
  <time name="totalsc">   32.28   32.61</time>
  <eigenvalues>
   <array>
    <dimension dim="1">band</dimension>
    <dimension dim="2">kpoint</dimension>
    <dimension dim="3">spin</dimension>
    <field>eigene</field>
    <field>occ</field>
    <set>
     <set comment="spin 1">
      <set comment="kpoint 1">
       <r>  -46.8390    1.0000 </r>
       <r>  -46.8390    1.0000 </r>
       <r>  -46.8390    1.0000 </r>
       <r>   -6.0059    1.0000 </r>
       <r>   -6.0059    1.0000 </r>
       <r>   -6.0059    1.0000 </r>
       <r>   -5.2541    1.0000 </r>
       <r>   -5.2540    1.0000 </r>
       <r>   -4.4876    1.0000 </r>
       <r>   -0.8579    0.0000 </r>
       <r>   -0.8578    0.0000 </r>
       <r>   -0.8555    0.0000 </r>
       <r>   -0.2030    0.0000 </r>
       <r>    0.8469    0.0000 </r>
       <r>    0.8470    0.0000 </r>
       <r>    1.6089    0.0000 </r>
       <r>    1.6178    0.0000 </r>
       <r>    1.6436    0.0000 </r>
       <r>    1.7418    0.0000 </r>
       <r>    1.9808    0.0000 </r>
       <r>    1.9867    0.0000 </r>
       <r>    1.9868    0.0000 </r>
       <r>    2.4147    0.0000 </r>
       <r>    2.4157    0.0000 </r>
       <r>    2.4182    0.0000 </r>
       <r>    2.5008    0.0000 </r>
       <r>    2.5041    0.0000 </r>
       <r>    3.5840    0.0000 </r>
       <r>    3.5911    0.0000 </r>
       <r>    3.6196    0.0000 </r>
       <r>    3.6923    0.0000 </r>
       <r>    3.7673    0.0000 </r>
       <r>    3.7822    0.0000 </r>
       <r>    3.7883    0.0000 </r>
       <r>    3.7885    0.0000 </r>
       <r>    4.5313    0.0000 </r>
      </set>
     </set>
     <set comment="spin 2">
      <set comment="kpoint 1">
       <r>  -44.7376    1.0000 </r>
       <r>  -44.7375    1.0000 </r>
       <r>  -44.7370    1.0000 </r>
       <r>   -3.9724    1.0000 </r>
       <r>   -3.9716    1.0000 </r>
       <r>   -3.1592    0.0000 </r>
       <r>   -3.1591    0.0000 </r>
       <r>   -3.1581    0.0000 </r>
       <r>   -3.0245    0.0000 </r>
       <r>    0.1612    0.0000 </r>
       <r>    0.1617    0.0000 </r>
       <r>    0.1619    0.0000 </r>
       <r>    0.2782    0.0000 </r>
       <r>    1.2871    0.0000 </r>
       <r>    1.2872    0.0000 </r>
       <r>    2.0915    0.0000 </r>
       <r>    2.0921    0.0000 </r>
       <r>    2.0958    0.0000 </r>
       <r>    2.1520    0.0000 </r>
       <r>    2.7374    0.0000 </r>
       <r>    2.7376    0.0000 </r>
       <r>    2.7382    0.0000 </r>
       <r>    2.8356    0.0000 </r>
       <r>    2.8359    0.0000 </r>
       <r>    2.8731    0.0000 </r>
       <r>    2.8737    0.0000 </r>
       <r>    2.8774    0.0000 </r>
       <r>    4.0387    0.0000 </r>
       <r>    4.0821    0.0000 </r>
       <r>    4.1388    0.0000 </r>
       <r>    4.1426    0.0000 </r>
       <r>    4.2162    0.0000 </r>
       <r>    4.2468    0.0000 </r>
       <r>    4.2706    0.0000 </r>
       <r>    4.5550    0.0000 </r>
       <r>    5.4278    0.0000 </r>
      </set>
     </set>
    </set>
   </array>
  </eigenvalues>
  <separator name="orbital magnetization" >
   <v name="MAGDIPOLOUT">      0.00000000      0.00000000      0.00000000</v>
  </separator>
  <dos>
   <i name="efermi">     -3.62523350 </i>
   <total>
    <array>
     <dimension dim="1">gridpoints</dimension>
     <dimension dim="2">spin</dimension>
     <field>energy</field>
     <field>total</field>
     <field>integrated</field>
     <set>
      <set comment="spin 1">
       <r>   -49.4523     0.0000     0.0000 </r>
       <r>   -49.2607     0.0000     0.0000 </r>
       <r>   -49.0690     0.0000     0.0000 </r>
       <r>   -48.8774     0.0000     0.0000 </r>
       <r>   -48.6857     0.0000     0.0000 </r>
       <r>   -48.4941     0.0000     0.0000 </r>
       <r>   -48.3024     0.0000     0.0000 </r>
       <r>   -48.1108     0.0000     0.0000 </r>
       <r>   -47.9192     0.0000     0.0000 </r>
       <r>   -47.7275     0.0000     0.0000 </r>
       <r>   -47.5359     0.0000     0.0000 </r>
       <r>   -47.3442     0.0000     0.0000 </r>
       <r>   -47.1526     0.0000     0.0000 </r>
       <r>   -46.9609     0.0044     0.0008 </r>
       <r>   -46.7693    15.2682     2.9269 </r>
       <r>   -46.5776     0.3814     3.0000 </r>
       <r>   -46.3860     0.0000     3.0000 </r>
       <r>   -46.1944     0.0000     3.0000 </r>
       <r>   -46.0027     0.0000     3.0000 </r>
       <r>   -45.8111     0.0000     3.0000 </r>
       <r>   -45.6194     0.0000     3.0000 </r>
       <r>   -45.4278     0.0000     3.0000 </r>
       <r>   -45.2361     0.0000     3.0000 </r>
       <r>   -45.0445     0.0000     3.0000 </r>
       <r>   -44.8528     0.0000     3.0000 </r>
       <r>   -44.6612     0.0000     3.0000 </r>
       <r>   -44.4696     0.0000     3.0000 </r>
       <r>   -44.2779     0.0000     3.0000 </r>
       <r>   -44.0863     0.0000     3.0000 </r>
       <r>   -43.8946     0.0000     3.0000 </r>
       <r>   -43.7030     0.0000     3.0000 </r>
       <r>   -43.5113     0.0000     3.0000 </r>
       <r>   -43.3197     0.0000     3.0000 </r>
       <r>   -43.1280     0.0000     3.0000 </r>
       <r>   -42.9364     0.0000     3.0000 </r>
       <r>   -42.7447     0.0000     3.0000 </r>
       <r>   -42.5531     0.0000     3.0000 </r>
       <r>   -42.3615     0.0000     3.0000 </r>
       <r>   -42.1698     0.0000     3.0000 </r>
       <r>   -41.9782     0.0000     3.0000 </r>
       <r>   -41.7865     0.0000     3.0000 </r>
       <r>   -41.5949     0.0000     3.0000 </r>
       <r>   -41.4032     0.0000     3.0000 </r>
       <r>   -41.2116     0.0000     3.0000 </r>
       <r>   -41.0199     0.0000     3.0000 </r>
       <r>   -40.8283     0.0000     3.0000 </r>
       <r>   -40.6367     0.0000     3.0000 </r>
       <r>   -40.4450     0.0000     3.0000 </r>
       <r>   -40.2534     0.0000     3.0000 </r>
       <r>   -40.0617     0.0000     3.0000 </r>
       <r>   -39.8701     0.0000     3.0000 </r>
       <r>   -39.6784     0.0000     3.0000 </r>
       <r>   -39.4868     0.0000     3.0000 </r>
       <r>   -39.2951     0.0000     3.0000 </r>
       <r>   -39.1035     0.0000     3.0000 </r>
       <r>   -38.9118     0.0000     3.0000 </r>
       <r>   -38.7202     0.0000     3.0000 </r>
       <r>   -38.5286     0.0000     3.0000 </r>
       <r>   -38.3369     0.0000     3.0000 </r>
       <r>   -38.1453     0.0000     3.0000 </r>
       <r>   -37.9536     0.0000     3.0000 </r>
       <r>   -37.7620     0.0000     3.0000 </r>
       <r>   -37.5703     0.0000     3.0000 </r>
       <r>   -37.3787     0.0000     3.0000 </r>
       <r>   -37.1870     0.0000     3.0000 </r>
       <r>   -36.9954     0.0000     3.0000 </r>
       <r>   -36.8038     0.0000     3.0000 </r>
       <r>   -36.6121     0.0000     3.0000 </r>
       <r>   -36.4205     0.0000     3.0000 </r>
       <r>   -36.2288     0.0000     3.0000 </r>
       <r>   -36.0372     0.0000     3.0000 </r>
       <r>   -35.8455     0.0000     3.0000 </r>
       <r>   -35.6539     0.0000     3.0000 </r>
       <r>   -35.4622     0.0000     3.0000 </r>
       <r>   -35.2706     0.0000     3.0000 </r>
       <r>   -35.0790     0.0000     3.0000 </r>
       <r>   -34.8873     0.0000     3.0000 </r>
       <r>   -34.6957     0.0000     3.0000 </r>
       <r>   -34.5040     0.0000     3.0000 </r>
       <r>   -34.3124     0.0000     3.0000 </r>
       <r>   -34.1207     0.0000     3.0000 </r>
       <r>   -33.9291     0.0000     3.0000 </r>
       <r>   -33.7374     0.0000     3.0000 </r>
       <r>   -33.5458     0.0000     3.0000 </r>
       <r>   -33.3541     0.0000     3.0000 </r>
       <r>   -33.1625     0.0000     3.0000 </r>
       <r>   -32.9709     0.0000     3.0000 </r>
       <r>   -32.7792     0.0000     3.0000 </r>
       <r>   -32.5876     0.0000     3.0000 </r>
       <r>   -32.3959     0.0000     3.0000 </r>
       <r>   -32.2043     0.0000     3.0000 </r>
       <r>   -32.0126     0.0000     3.0000 </r>
       <r>   -31.8210     0.0000     3.0000 </r>
       <r>   -31.6293     0.0000     3.0000 </r>
       <r>   -31.4377     0.0000     3.0000 </r>
       <r>   -31.2461     0.0000     3.0000 </r>
       <r>   -31.0544     0.0000     3.0000 </r>
       <r>   -30.8628     0.0000     3.0000 </r>
       <r>   -30.6711     0.0000     3.0000 </r>
       <r>   -30.4795     0.0000     3.0000 </r>
       <r>   -30.2878     0.0000     3.0000 </r>
       <r>   -30.0962     0.0000     3.0000 </r>
       <r>   -29.9045     0.0000     3.0000 </r>
       <r>   -29.7129     0.0000     3.0000 </r>
       <r>   -29.5212     0.0000     3.0000 </r>
       <r>   -29.3296     0.0000     3.0000 </r>
       <r>   -29.1380     0.0000     3.0000 </r>
       <r>   -28.9463     0.0000     3.0000 </r>
       <r>   -28.7547     0.0000     3.0000 </r>
       <r>   -28.5630     0.0000     3.0000 </r>
       <r>   -28.3714     0.0000     3.0000 </r>
       <r>   -28.1797     0.0000     3.0000 </r>
       <r>   -27.9881     0.0000     3.0000 </r>
       <r>   -27.7964     0.0000     3.0000 </r>
       <r>   -27.6048     0.0000     3.0000 </r>
       <r>   -27.4132     0.0000     3.0000 </r>
       <r>   -27.2215     0.0000     3.0000 </r>
       <r>   -27.0299     0.0000     3.0000 </r>
       <r>   -26.8382     0.0000     3.0000 </r>
       <r>   -26.6466     0.0000     3.0000 </r>
       <r>   -26.4549     0.0000     3.0000 </r>
       <r>   -26.2633     0.0000     3.0000 </r>
       <r>   -26.0716     0.0000     3.0000 </r>
       <r>   -25.8800     0.0000     3.0000 </r>
       <r>   -25.6884     0.0000     3.0000 </r>
       <r>   -25.4967     0.0000     3.0000 </r>
       <r>   -25.3051     0.0000     3.0000 </r>
       <r>   -25.1134     0.0000     3.0000 </r>
       <r>   -24.9218     0.0000     3.0000 </r>
       <r>   -24.7301     0.0000     3.0000 </r>
       <r>   -24.5385     0.0000     3.0000 </r>
       <r>   -24.3468     0.0000     3.0000 </r>
       <r>   -24.1552     0.0000     3.0000 </r>
       <r>   -23.9635     0.0000     3.0000 </r>
       <r>   -23.7719     0.0000     3.0000 </r>
       <r>   -23.5803     0.0000     3.0000 </r>
       <r>   -23.3886     0.0000     3.0000 </r>
       <r>   -23.1970     0.0000     3.0000 </r>
       <r>   -23.0053     0.0000     3.0000 </r>
       <r>   -22.8137     0.0000     3.0000 </r>
       <r>   -22.6220     0.0000     3.0000 </r>
       <r>   -22.4304     0.0000     3.0000 </r>
       <r>   -22.2387     0.0000     3.0000 </r>
       <r>   -22.0471     0.0000     3.0000 </r>
       <r>   -21.8555     0.0000     3.0000 </r>
       <r>   -21.6638     0.0000     3.0000 </r>
       <r>   -21.4722     0.0000     3.0000 </r>
       <r>   -21.2805     0.0000     3.0000 </r>
       <r>   -21.0889     0.0000     3.0000 </r>
       <r>   -20.8972     0.0000     3.0000 </r>
       <r>   -20.7056     0.0000     3.0000 </r>
       <r>   -20.5139     0.0000     3.0000 </r>
       <r>   -20.3223     0.0000     3.0000 </r>
       <r>   -20.1306     0.0000     3.0000 </r>
       <r>   -19.9390     0.0000     3.0000 </r>
       <r>   -19.7474     0.0000     3.0000 </r>
       <r>   -19.5557     0.0000     3.0000 </r>
       <r>   -19.3641     0.0000     3.0000 </r>
       <r>   -19.1724     0.0000     3.0000 </r>
       <r>   -18.9808     0.0000     3.0000 </r>
       <r>   -18.7891     0.0000     3.0000 </r>
       <r>   -18.5975     0.0000     3.0000 </r>
       <r>   -18.4058     0.0000     3.0000 </r>
       <r>   -18.2142     0.0000     3.0000 </r>
       <r>   -18.0226     0.0000     3.0000 </r>
       <r>   -17.8309     0.0000     3.0000 </r>
       <r>   -17.6393     0.0000     3.0000 </r>
       <r>   -17.4476     0.0000     3.0000 </r>
       <r>   -17.2560     0.0000     3.0000 </r>
       <r>   -17.0643     0.0000     3.0000 </r>
       <r>   -16.8727     0.0000     3.0000 </r>
       <r>   -16.6810     0.0000     3.0000 </r>
       <r>   -16.4894     0.0000     3.0000 </r>
       <r>   -16.2978     0.0000     3.0000 </r>
       <r>   -16.1061     0.0000     3.0000 </r>
       <r>   -15.9145     0.0000     3.0000 </r>
       <r>   -15.7228     0.0000     3.0000 </r>
       <r>   -15.5312     0.0000     3.0000 </r>
       <r>   -15.3395     0.0000     3.0000 </r>
       <r>   -15.1479     0.0000     3.0000 </r>
       <r>   -14.9562     0.0000     3.0000 </r>
       <r>   -14.7646     0.0000     3.0000 </r>
       <r>   -14.5729     0.0000     3.0000 </r>
       <r>   -14.3813     0.0000     3.0000 </r>
       <r>   -14.1897     0.0000     3.0000 </r>
       <r>   -13.9980     0.0000     3.0000 </r>
       <r>   -13.8064     0.0000     3.0000 </r>
       <r>   -13.6147     0.0000     3.0000 </r>
       <r>   -13.4231     0.0000     3.0000 </r>
       <r>   -13.2314     0.0000     3.0000 </r>
       <r>   -13.0398     0.0000     3.0000 </r>
       <r>   -12.8481     0.0000     3.0000 </r>
       <r>   -12.6565     0.0000     3.0000 </r>
       <r>   -12.4649     0.0000     3.0000 </r>
       <r>   -12.2732     0.0000     3.0000 </r>
       <r>   -12.0816     0.0000     3.0000 </r>
       <r>   -11.8899     0.0000     3.0000 </r>
       <r>   -11.6983     0.0000     3.0000 </r>
       <r>   -11.5066     0.0000     3.0000 </r>
       <r>   -11.3150     0.0000     3.0000 </r>
       <r>   -11.1233     0.0000     3.0000 </r>
       <r>   -10.9317     0.0000     3.0000 </r>
       <r>   -10.7401     0.0000     3.0000 </r>
       <r>   -10.5484     0.0000     3.0000 </r>
       <r>   -10.3568     0.0000     3.0000 </r>
       <r>   -10.1651     0.0000     3.0000 </r>
       <r>    -9.9735     0.0000     3.0000 </r>
       <r>    -9.7818     0.0000     3.0000 </r>
       <r>    -9.5902     0.0000     3.0000 </r>
       <r>    -9.3985     0.0000     3.0000 </r>
       <r>    -9.2069     0.0000     3.0000 </r>
       <r>    -9.0152     0.0000     3.0000 </r>
       <r>    -8.8236     0.0000     3.0000 </r>
       <r>    -8.6320     0.0000     3.0000 </r>
       <r>    -8.4403     0.0000     3.0000 </r>
       <r>    -8.2487     0.0000     3.0000 </r>
       <r>    -8.0570     0.0000     3.0000 </r>
       <r>    -7.8654     0.0000     3.0000 </r>
       <r>    -7.6737     0.0000     3.0000 </r>
       <r>    -7.4821     0.0000     3.0000 </r>
       <r>    -7.2904     0.0000     3.0000 </r>
       <r>    -7.0988     0.0000     3.0000 </r>
       <r>    -6.9072     0.0000     3.0000 </r>
       <r>    -6.7155     0.0000     3.0000 </r>
       <r>    -6.5239     0.0000     3.0000 </r>
       <r>    -6.3322     0.0000     3.0000 </r>
       <r>    -6.1406     0.0011     3.0002 </r>
       <r>    -5.9489    14.8135     5.8391 </r>
       <r>    -5.7573     0.8393     6.0000 </r>
       <r>    -5.5656     0.0000     6.0000 </r>
       <r>    -5.3740     0.0036     6.0007 </r>
       <r>    -5.1823    10.2102     7.9574 </r>
       <r>    -4.9907     0.2221     8.0000 </r>
       <r>    -4.7991     0.0000     8.0000 </r>
       <r>    -4.6074     0.0018     8.0003 </r>
       <r>    -4.4158     5.1059     8.9789 </r>
       <r>    -4.2241     0.1103     9.0000 </r>
       <r>    -4.0325     0.0000     9.0000 </r>
       <r>    -3.8408     0.0000     9.0000 </r>
       <r>    -3.6492     0.0000     9.0000 </r>
       <r>    -3.4575     0.0000     9.0000 </r>
       <r>    -3.2659     0.0000     9.0000 </r>
       <r>    -3.0743     0.0000     9.0000 </r>
       <r>    -2.8826     0.0000     9.0000 </r>
       <r>    -2.6910     0.0000     9.0000 </r>
       <r>    -2.4993     0.0000     9.0000 </r>
       <r>    -2.3077     0.0000     9.0000 </r>
       <r>    -2.1160     0.0000     9.0000 </r>
       <r>    -1.9244     0.0000     9.0000 </r>
       <r>    -1.7327     0.0000     9.0000 </r>
       <r>    -1.5411     0.0000     9.0000 </r>
       <r>    -1.3495     0.0000     9.0000 </r>
       <r>    -1.1578     0.0000     9.0000 </r>
       <r>    -0.9662     0.0160     9.0031 </r>
       <r>    -0.7745    15.4844    11.9706 </r>
       <r>    -0.5829     0.1535    12.0000 </r>
       <r>    -0.3912     0.0000    12.0000 </r>
       <r>    -0.1996     2.8114    12.5388 </r>
       <r>    -0.0079     2.4066    13.0000 </r>
       <r>     0.1837     0.0000    13.0000 </r>
       <r>     0.3754     0.0000    13.0000 </r>
       <r>     0.5670     0.0000    13.0000 </r>
       <r>     0.7586     0.0651    13.0125 </r>
       <r>     0.9503    10.3527    14.9965 </r>
       <r>     1.1419     0.0181    15.0000 </r>
       <r>     1.3336     0.0000    15.0000 </r>
       <r>     1.5252     0.0722    15.0138 </r>
       <r>     1.7169    16.7156    18.2173 </r>
       <r>     1.9085     4.3310    19.0473 </r>
       <r>     2.1002    15.3982    21.9983 </r>
       <r>     2.2918     0.0123    22.0007 </r>
       <r>     2.4834    18.2851    25.5049 </r>
       <r>     2.6751     7.8014    27.0000 </r>
       <r>     2.8667     0.0000    27.0000 </r>
       <r>     3.0584     0.0000    27.0000 </r>
       <r>     3.2500     0.0000    27.0000 </r>
       <r>     3.4417     0.0002    27.0000 </r>
       <r>     3.6333    13.0505    29.5011 </r>
       <r>     3.8250    26.2611    34.5339 </r>
       <r>     4.0166     2.4321    35.0000 </r>
       <r>     4.2083     0.0000    35.0000 </r>
       <r>     4.3999     0.0005    35.0001 </r>
       <r>     4.5915     4.9862    35.9557 </r>
       <r>     4.7832     0.2313    36.0000 </r>
       <r>     4.9748     0.0000    36.0000 </r>
       <r>     5.1665     0.0000    36.0000 </r>
       <r>     5.3581     0.0000    36.0000 </r>
       <r>     5.5498     0.0000    36.0000 </r>
       <r>     5.7414     0.0000    36.0000 </r>
       <r>     5.9331     0.0000    36.0000 </r>
       <r>     6.1247     0.0000    36.0000 </r>
       <r>     6.3163     0.0000    36.0000 </r>
       <r>     6.5080     0.0000    36.0000 </r>
       <r>     6.6996     0.0000    36.0000 </r>
       <r>     6.8913     0.0000    36.0000 </r>
       <r>     7.0829     0.0000    36.0000 </r>
       <r>     7.2746     0.0000    36.0000 </r>
       <r>     7.4662     0.0000    36.0000 </r>
       <r>     7.6579     0.0000    36.0000 </r>
       <r>     7.8495     0.0000    36.0000 </r>
       <r>     8.0411     0.0000    36.0000 </r>
      </set>
      <set comment="spin 2">
       <r>   -49.4523     0.0000     0.0000 </r>
       <r>   -49.2607     0.0000     0.0000 </r>
       <r>   -49.0690     0.0000     0.0000 </r>
       <r>   -48.8774     0.0000     0.0000 </r>
       <r>   -48.6857     0.0000     0.0000 </r>
       <r>   -48.4941     0.0000     0.0000 </r>
       <r>   -48.3024     0.0000     0.0000 </r>
       <r>   -48.1108     0.0000     0.0000 </r>
       <r>   -47.9192     0.0000     0.0000 </r>
       <r>   -47.7275     0.0000     0.0000 </r>
       <r>   -47.5359     0.0000     0.0000 </r>
       <r>   -47.3442     0.0000     0.0000 </r>
       <r>   -47.1526     0.0000     0.0000 </r>
       <r>   -46.9609     0.0000     0.0000 </r>
       <r>   -46.7693     0.0000     0.0000 </r>
       <r>   -46.5776     0.0000     0.0000 </r>
       <r>   -46.3860     0.0000     0.0000 </r>
       <r>   -46.1944     0.0000     0.0000 </r>
       <r>   -46.0027     0.0000     0.0000 </r>
       <r>   -45.8111     0.0000     0.0000 </r>
       <r>   -45.6194     0.0000     0.0000 </r>
       <r>   -45.4278     0.0000     0.0000 </r>
       <r>   -45.2361     0.0000     0.0000 </r>
       <r>   -45.0445     0.0000     0.0000 </r>
       <r>   -44.8528     0.0085     0.0016 </r>
       <r>   -44.6612    15.4012     2.9532 </r>
       <r>   -44.4696     0.2442     3.0000 </r>
       <r>   -44.2779     0.0000     3.0000 </r>
       <r>   -44.0863     0.0000     3.0000 </r>
       <r>   -43.8946     0.0000     3.0000 </r>
       <r>   -43.7030     0.0000     3.0000 </r>
       <r>   -43.5113     0.0000     3.0000 </r>
       <r>   -43.3197     0.0000     3.0000 </r>
       <r>   -43.1280     0.0000     3.0000 </r>
       <r>   -42.9364     0.0000     3.0000 </r>
       <r>   -42.7447     0.0000     3.0000 </r>
       <r>   -42.5531     0.0000     3.0000 </r>
       <r>   -42.3615     0.0000     3.0000 </r>
       <r>   -42.1698     0.0000     3.0000 </r>
       <r>   -41.9782     0.0000     3.0000 </r>
       <r>   -41.7865     0.0000     3.0000 </r>
       <r>   -41.5949     0.0000     3.0000 </r>
       <r>   -41.4032     0.0000     3.0000 </r>
       <r>   -41.2116     0.0000     3.0000 </r>
       <r>   -41.0199     0.0000     3.0000 </r>
       <r>   -40.8283     0.0000     3.0000 </r>
       <r>   -40.6367     0.0000     3.0000 </r>
       <r>   -40.4450     0.0000     3.0000 </r>
       <r>   -40.2534     0.0000     3.0000 </r>
       <r>   -40.0617     0.0000     3.0000 </r>
       <r>   -39.8701     0.0000     3.0000 </r>
       <r>   -39.6784     0.0000     3.0000 </r>
       <r>   -39.4868     0.0000     3.0000 </r>
       <r>   -39.2951     0.0000     3.0000 </r>
       <r>   -39.1035     0.0000     3.0000 </r>
       <r>   -38.9118     0.0000     3.0000 </r>
       <r>   -38.7202     0.0000     3.0000 </r>
       <r>   -38.5286     0.0000     3.0000 </r>
       <r>   -38.3369     0.0000     3.0000 </r>
       <r>   -38.1453     0.0000     3.0000 </r>
       <r>   -37.9536     0.0000     3.0000 </r>
       <r>   -37.7620     0.0000     3.0000 </r>
       <r>   -37.5703     0.0000     3.0000 </r>
       <r>   -37.3787     0.0000     3.0000 </r>
       <r>   -37.1870     0.0000     3.0000 </r>
       <r>   -36.9954     0.0000     3.0000 </r>
       <r>   -36.8038     0.0000     3.0000 </r>
       <r>   -36.6121     0.0000     3.0000 </r>
       <r>   -36.4205     0.0000     3.0000 </r>
       <r>   -36.2288     0.0000     3.0000 </r>
       <r>   -36.0372     0.0000     3.0000 </r>
       <r>   -35.8455     0.0000     3.0000 </r>
       <r>   -35.6539     0.0000     3.0000 </r>
       <r>   -35.4622     0.0000     3.0000 </r>
       <r>   -35.2706     0.0000     3.0000 </r>
       <r>   -35.0790     0.0000     3.0000 </r>
       <r>   -34.8873     0.0000     3.0000 </r>
       <r>   -34.6957     0.0000     3.0000 </r>
       <r>   -34.5040     0.0000     3.0000 </r>
       <r>   -34.3124     0.0000     3.0000 </r>
       <r>   -34.1207     0.0000     3.0000 </r>
       <r>   -33.9291     0.0000     3.0000 </r>
       <r>   -33.7374     0.0000     3.0000 </r>
       <r>   -33.5458     0.0000     3.0000 </r>
       <r>   -33.3541     0.0000     3.0000 </r>
       <r>   -33.1625     0.0000     3.0000 </r>
       <r>   -32.9709     0.0000     3.0000 </r>
       <r>   -32.7792     0.0000     3.0000 </r>
       <r>   -32.5876     0.0000     3.0000 </r>
       <r>   -32.3959     0.0000     3.0000 </r>
       <r>   -32.2043     0.0000     3.0000 </r>
       <r>   -32.0126     0.0000     3.0000 </r>
       <r>   -31.8210     0.0000     3.0000 </r>
       <r>   -31.6293     0.0000     3.0000 </r>
       <r>   -31.4377     0.0000     3.0000 </r>
       <r>   -31.2461     0.0000     3.0000 </r>
       <r>   -31.0544     0.0000     3.0000 </r>
       <r>   -30.8628     0.0000     3.0000 </r>
       <r>   -30.6711     0.0000     3.0000 </r>
       <r>   -30.4795     0.0000     3.0000 </r>
       <r>   -30.2878     0.0000     3.0000 </r>
       <r>   -30.0962     0.0000     3.0000 </r>
       <r>   -29.9045     0.0000     3.0000 </r>
       <r>   -29.7129     0.0000     3.0000 </r>
       <r>   -29.5212     0.0000     3.0000 </r>
       <r>   -29.3296     0.0000     3.0000 </r>
       <r>   -29.1380     0.0000     3.0000 </r>
       <r>   -28.9463     0.0000     3.0000 </r>
       <r>   -28.7547     0.0000     3.0000 </r>
       <r>   -28.5630     0.0000     3.0000 </r>
       <r>   -28.3714     0.0000     3.0000 </r>
       <r>   -28.1797     0.0000     3.0000 </r>
       <r>   -27.9881     0.0000     3.0000 </r>
       <r>   -27.7964     0.0000     3.0000 </r>
       <r>   -27.6048     0.0000     3.0000 </r>
       <r>   -27.4132     0.0000     3.0000 </r>
       <r>   -27.2215     0.0000     3.0000 </r>
       <r>   -27.0299     0.0000     3.0000 </r>
       <r>   -26.8382     0.0000     3.0000 </r>
       <r>   -26.6466     0.0000     3.0000 </r>
       <r>   -26.4549     0.0000     3.0000 </r>
       <r>   -26.2633     0.0000     3.0000 </r>
       <r>   -26.0716     0.0000     3.0000 </r>
       <r>   -25.8800     0.0000     3.0000 </r>
       <r>   -25.6884     0.0000     3.0000 </r>
       <r>   -25.4967     0.0000     3.0000 </r>
       <r>   -25.3051     0.0000     3.0000 </r>
       <r>   -25.1134     0.0000     3.0000 </r>
       <r>   -24.9218     0.0000     3.0000 </r>
       <r>   -24.7301     0.0000     3.0000 </r>
       <r>   -24.5385     0.0000     3.0000 </r>
       <r>   -24.3468     0.0000     3.0000 </r>
       <r>   -24.1552     0.0000     3.0000 </r>
       <r>   -23.9635     0.0000     3.0000 </r>
       <r>   -23.7719     0.0000     3.0000 </r>
       <r>   -23.5803     0.0000     3.0000 </r>
       <r>   -23.3886     0.0000     3.0000 </r>
       <r>   -23.1970     0.0000     3.0000 </r>
       <r>   -23.0053     0.0000     3.0000 </r>
       <r>   -22.8137     0.0000     3.0000 </r>
       <r>   -22.6220     0.0000     3.0000 </r>
       <r>   -22.4304     0.0000     3.0000 </r>
       <r>   -22.2387     0.0000     3.0000 </r>
       <r>   -22.0471     0.0000     3.0000 </r>
       <r>   -21.8555     0.0000     3.0000 </r>
       <r>   -21.6638     0.0000     3.0000 </r>
       <r>   -21.4722     0.0000     3.0000 </r>
       <r>   -21.2805     0.0000     3.0000 </r>
       <r>   -21.0889     0.0000     3.0000 </r>
       <r>   -20.8972     0.0000     3.0000 </r>
       <r>   -20.7056     0.0000     3.0000 </r>
       <r>   -20.5139     0.0000     3.0000 </r>
       <r>   -20.3223     0.0000     3.0000 </r>
       <r>   -20.1306     0.0000     3.0000 </r>
       <r>   -19.9390     0.0000     3.0000 </r>
       <r>   -19.7474     0.0000     3.0000 </r>
       <r>   -19.5557     0.0000     3.0000 </r>
       <r>   -19.3641     0.0000     3.0000 </r>
       <r>   -19.1724     0.0000     3.0000 </r>
       <r>   -18.9808     0.0000     3.0000 </r>
       <r>   -18.7891     0.0000     3.0000 </r>
       <r>   -18.5975     0.0000     3.0000 </r>
       <r>   -18.4058     0.0000     3.0000 </r>
       <r>   -18.2142     0.0000     3.0000 </r>
       <r>   -18.0226     0.0000     3.0000 </r>
       <r>   -17.8309     0.0000     3.0000 </r>
       <r>   -17.6393     0.0000     3.0000 </r>
       <r>   -17.4476     0.0000     3.0000 </r>
       <r>   -17.2560     0.0000     3.0000 </r>
       <r>   -17.0643     0.0000     3.0000 </r>
       <r>   -16.8727     0.0000     3.0000 </r>
       <r>   -16.6810     0.0000     3.0000 </r>
       <r>   -16.4894     0.0000     3.0000 </r>
       <r>   -16.2978     0.0000     3.0000 </r>
       <r>   -16.1061     0.0000     3.0000 </r>
       <r>   -15.9145     0.0000     3.0000 </r>
       <r>   -15.7228     0.0000     3.0000 </r>
       <r>   -15.5312     0.0000     3.0000 </r>
       <r>   -15.3395     0.0000     3.0000 </r>
       <r>   -15.1479     0.0000     3.0000 </r>
       <r>   -14.9562     0.0000     3.0000 </r>
       <r>   -14.7646     0.0000     3.0000 </r>
       <r>   -14.5729     0.0000     3.0000 </r>
       <r>   -14.3813     0.0000     3.0000 </r>
       <r>   -14.1897     0.0000     3.0000 </r>
       <r>   -13.9980     0.0000     3.0000 </r>
       <r>   -13.8064     0.0000     3.0000 </r>
       <r>   -13.6147     0.0000     3.0000 </r>
       <r>   -13.4231     0.0000     3.0000 </r>
       <r>   -13.2314     0.0000     3.0000 </r>
       <r>   -13.0398     0.0000     3.0000 </r>
       <r>   -12.8481     0.0000     3.0000 </r>
       <r>   -12.6565     0.0000     3.0000 </r>
       <r>   -12.4649     0.0000     3.0000 </r>
       <r>   -12.2732     0.0000     3.0000 </r>
       <r>   -12.0816     0.0000     3.0000 </r>
       <r>   -11.8899     0.0000     3.0000 </r>
       <r>   -11.6983     0.0000     3.0000 </r>
       <r>   -11.5066     0.0000     3.0000 </r>
       <r>   -11.3150     0.0000     3.0000 </r>
       <r>   -11.1233     0.0000     3.0000 </r>
       <r>   -10.9317     0.0000     3.0000 </r>
       <r>   -10.7401     0.0000     3.0000 </r>
       <r>   -10.5484     0.0000     3.0000 </r>
       <r>   -10.3568     0.0000     3.0000 </r>
       <r>   -10.1651     0.0000     3.0000 </r>
       <r>    -9.9735     0.0000     3.0000 </r>
       <r>    -9.7818     0.0000     3.0000 </r>
       <r>    -9.5902     0.0000     3.0000 </r>
       <r>    -9.3985     0.0000     3.0000 </r>
       <r>    -9.2069     0.0000     3.0000 </r>
       <r>    -9.0152     0.0000     3.0000 </r>
       <r>    -8.8236     0.0000     3.0000 </r>
       <r>    -8.6320     0.0000     3.0000 </r>
       <r>    -8.4403     0.0000     3.0000 </r>
       <r>    -8.2487     0.0000     3.0000 </r>
       <r>    -8.0570     0.0000     3.0000 </r>
       <r>    -7.8654     0.0000     3.0000 </r>
       <r>    -7.6737     0.0000     3.0000 </r>
       <r>    -7.4821     0.0000     3.0000 </r>
       <r>    -7.2904     0.0000     3.0000 </r>
       <r>    -7.0988     0.0000     3.0000 </r>
       <r>    -6.9072     0.0000     3.0000 </r>
       <r>    -6.7155     0.0000     3.0000 </r>
       <r>    -6.5239     0.0000     3.0000 </r>
       <r>    -6.3322     0.0000     3.0000 </r>
       <r>    -6.1406     0.0000     3.0000 </r>
       <r>    -5.9489     0.0000     3.0000 </r>
       <r>    -5.7573     0.0000     3.0000 </r>
       <r>    -5.5656     0.0000     3.0000 </r>
       <r>    -5.3740     0.0000     3.0000 </r>
       <r>    -5.1823     0.0000     3.0000 </r>
       <r>    -4.9907     0.0000     3.0000 </r>
       <r>    -4.7991     0.0000     3.0000 </r>
       <r>    -4.6074     0.0000     3.0000 </r>
       <r>    -4.4158     0.0000     3.0000 </r>
       <r>    -4.2241     0.0000     3.0000 </r>
       <r>    -4.0325     0.4553     3.0873 </r>
       <r>    -3.8408     9.9795     4.9998 </r>
       <r>    -3.6492     0.0011     5.0000 </r>
       <r>    -3.4575     0.0000     5.0000 </r>
       <r>    -3.2659     0.0192     5.0037 </r>
       <r>    -3.0743    15.9189     8.0545 </r>
       <r>    -2.8826     4.9337     9.0000 </r>
       <r>    -2.6910     0.0002     9.0000 </r>
       <r>    -2.4993     0.0000     9.0000 </r>
       <r>    -2.3077     0.0000     9.0000 </r>
       <r>    -2.1160     0.0000     9.0000 </r>
       <r>    -1.9244     0.0000     9.0000 </r>
       <r>    -1.7327     0.0000     9.0000 </r>
       <r>    -1.5411     0.0000     9.0000 </r>
       <r>    -1.3495     0.0000     9.0000 </r>
       <r>    -1.1578     0.0000     9.0000 </r>
       <r>    -0.9662     0.0000     9.0000 </r>
       <r>    -0.7745     0.0000     9.0000 </r>
       <r>    -0.5829     0.0000     9.0000 </r>
       <r>    -0.3912     0.0000     9.0000 </r>
       <r>    -0.1996     0.0000     9.0000 </r>
       <r>    -0.0079     0.0000     9.0000 </r>
       <r>     0.1837    11.5123    11.2063 </r>
       <r>     0.3754     9.3440    12.9970 </r>
       <r>     0.5670     0.0156    13.0000 </r>
       <r>     0.7586     0.0000    13.0000 </r>
       <r>     0.9503     0.0000    13.0000 </r>
       <r>     1.1419     0.0002    13.0000 </r>
       <r>     1.3336     9.4506    14.8112 </r>
       <r>     1.5252     0.9852    15.0000 </r>
       <r>     1.7169     0.0000    15.0000 </r>
       <r>     1.9085     0.0000    15.0000 </r>
       <r>     2.1002     9.4318    16.8076 </r>
       <r>     2.2918    11.4399    19.0000 </r>
       <r>     2.4834     0.0002    19.0000 </r>
       <r>     2.6751     0.5979    19.1146 </r>
       <r>     2.8667    29.9257    24.8497 </r>
       <r>     3.0584    11.2203    27.0000 </r>
       <r>     3.2500     0.0000    27.0000 </r>
       <r>     3.4417     0.0000    27.0000 </r>
       <r>     3.6333     0.0000    27.0000 </r>
       <r>     3.8250     0.0000    27.0000 </r>
       <r>     4.0166     1.5571    27.2984 </r>
       <r>     4.2083    22.0905    31.5320 </r>
       <r>     4.3999    12.8776    33.9999 </r>
       <r>     4.5915     4.4326    34.8494 </r>
       <r>     4.7832     0.7860    35.0000 </r>
       <r>     4.9748     0.0000    35.0000 </r>
       <r>     5.1665     0.0000    35.0000 </r>
       <r>     5.3581     0.1271    35.0244 </r>
       <r>     5.5498     5.0894    35.9997 </r>
       <r>     5.7414     0.0015    36.0000 </r>
       <r>     5.9331     0.0000    36.0000 </r>
       <r>     6.1247     0.0000    36.0000 </r>
       <r>     6.3163     0.0000    36.0000 </r>
       <r>     6.5080     0.0000    36.0000 </r>
       <r>     6.6996     0.0000    36.0000 </r>
       <r>     6.8913     0.0000    36.0000 </r>
       <r>     7.0829     0.0000    36.0000 </r>
       <r>     7.2746     0.0000    36.0000 </r>
       <r>     7.4662     0.0000    36.0000 </r>
       <r>     7.6579     0.0000    36.0000 </r>
       <r>     7.8495     0.0000    36.0000 </r>
       <r>     8.0411     0.0000    36.0000 </r>
      </set>
     </set>
    </array>
   </total>
   <partial>
    <array>
     <dimension dim="1">gridpoints</dimension>
     <dimension dim="2">spin</dimension>
     <dimension dim="3">ion</dimension>
     <field>energy</field>
     <field>    s</field>
     <field>   py</field>
     <field>   pz</field>
     <field>   px</field>
     <field>  dxy</field>
     <field>  dyz</field>
     <field>  dz2</field>
     <field>  dxz</field>
     <field>x2-y2</field>
     <set>
      <set comment="ion 1">
       <set comment="spin 1">
        <r>   -49.4523     0.0000     0.0000     0.0000     0.0000     0.0000     0.0000     0.0000     0.0000     0.0000 </r>
        <r>   -49.2607     0.0000     0.0000     0.0000     0.0000     0.0000     0.0000     0.0000     0.0000     0.0000 </r>
        <r>   -49.0690     0.0000     0.0000     0.0000     0.0000     0.0000     0.0000     0.0000     0.0000     0.0000 </r>
        <r>   -48.8774     0.0000     0.0000     0.0000     0.0000     0.0000     0.0000     0.0000     0.0000     0.0000 </r>
        <r>   -48.6857     0.0000     0.0000     0.0000     0.0000     0.0000     0.0000     0.0000     0.0000     0.0000 </r>
        <r>   -48.4941     0.0000     0.0000     0.0000     0.0000     0.0000     0.0000     0.0000     0.0000     0.0000 </r>
        <r>   -48.3024     0.0000     0.0000     0.0000     0.0000     0.0000     0.0000     0.0000     0.0000     0.0000 </r>
        <r>   -48.1108     0.0000     0.0000     0.0000     0.0000     0.0000     0.0000     0.0000     0.0000     0.0000 </r>
        <r>   -47.9192     0.0000     0.0000     0.0000     0.0000     0.0000     0.0000     0.0000     0.0000     0.0000 </r>
        <r>   -47.7275     0.0000     0.0000     0.0000     0.0000     0.0000     0.0000     0.0000     0.0000     0.0000 </r>
        <r>   -47.5359     0.0000     0.0000     0.0000     0.0000     0.0000     0.0000     0.0000     0.0000     0.0000 </r>
        <r>   -47.3442     0.0000     0.0000     0.0000     0.0000     0.0000     0.0000     0.0000     0.0000     0.0000 </r>
        <r>   -47.1526     0.0000     0.0000     0.0000     0.0000     0.0000     0.0000     0.0000     0.0000     0.0000 </r>
        <r>   -46.9609     0.0000     0.0015     0.0015     0.0015     0.0000     0.0000     0.0000     0.0000     0.0000 </r>
        <r>   -46.7693     0.0000     5.0611     5.0611     5.0611     0.0000     0.0000     0.0000     0.0000     0.0000 </r>
        <r>   -46.5776     0.0000     0.1264     0.1264     0.1264     0.0000     0.0000     0.0000     0.0000     0.0000 </r>
        <r>   -46.3860     0.0000     0.0000     0.0000     0.0000     0.0000     0.0000     0.0000     0.0000     0.0000 </r>
        <r>   -46.1944     0.0000     0.0000     0.0000     0.0000     0.0000     0.0000     0.0000     0.0000     0.0000 </r>
        <r>   -46.0027     0.0000     0.0000     0.0000     0.0000     0.0000     0.0000     0.0000     0.0000     0.0000 </r>
        <r>   -45.8111     0.0000     0.0000     0.0000     0.0000     0.0000     0.0000     0.0000     0.0000     0.0000 </r>
        <r>   -45.6194     0.0000     0.0000     0.0000     0.0000     0.0000     0.0000     0.0000     0.0000     0.0000 </r>
        <r>   -45.4278     0.0000     0.0000     0.0000     0.0000     0.0000     0.0000     0.0000     0.0000     0.0000 </r>
        <r>   -45.2361     0.0000     0.0000     0.0000     0.0000     0.0000     0.0000     0.0000     0.0000     0.0000 </r>
        <r>   -45.0445     0.0000     0.0000     0.0000     0.0000     0.0000     0.0000     0.0000     0.0000     0.0000 </r>
        <r>   -44.8528     0.0000     0.0000     0.0000     0.0000     0.0000     0.0000     0.0000     0.0000     0.0000 </r>
        <r>   -44.6612     0.0000     0.0000     0.0000     0.0000     0.0000     0.0000     0.0000     0.0000     0.0000 </r>
        <r>   -44.4696     0.0000     0.0000     0.0000     0.0000     0.0000     0.0000     0.0000     0.0000     0.0000 </r>
        <r>   -44.2779     0.0000     0.0000     0.0000     0.0000     0.0000     0.0000     0.0000     0.0000     0.0000 </r>
        <r>   -44.0863     0.0000     0.0000     0.0000     0.0000     0.0000     0.0000     0.0000     0.0000     0.0000 </r>
        <r>   -43.8946     0.0000     0.0000     0.0000     0.0000     0.0000     0.0000     0.0000     0.0000     0.0000 </r>
        <r>   -43.7030     0.0000     0.0000     0.0000     0.0000     0.0000     0.0000     0.0000     0.0000     0.0000 </r>
        <r>   -43.5113     0.0000     0.0000     0.0000     0.0000     0.0000     0.0000     0.0000     0.0000     0.0000 </r>
        <r>   -43.3197     0.0000     0.0000     0.0000     0.0000     0.0000     0.0000     0.0000     0.0000     0.0000 </r>
        <r>   -43.1280     0.0000     0.0000     0.0000     0.0000     0.0000     0.0000     0.0000     0.0000     0.0000 </r>
        <r>   -42.9364     0.0000     0.0000     0.0000     0.0000     0.0000     0.0000     0.0000     0.0000     0.0000 </r>
        <r>   -42.7447     0.0000     0.0000     0.0000     0.0000     0.0000     0.0000     0.0000     0.0000     0.0000 </r>
        <r>   -42.5531     0.0000     0.0000     0.0000     0.0000     0.0000     0.0000     0.0000     0.0000     0.0000 </r>
        <r>   -42.3615     0.0000     0.0000     0.0000     0.0000     0.0000     0.0000     0.0000     0.0000     0.0000 </r>
        <r>   -42.1698     0.0000     0.0000     0.0000     0.0000     0.0000     0.0000     0.0000     0.0000     0.0000 </r>
        <r>   -41.9782     0.0000     0.0000     0.0000     0.0000     0.0000     0.0000     0.0000     0.0000     0.0000 </r>
        <r>   -41.7865     0.0000     0.0000     0.0000     0.0000     0.0000     0.0000     0.0000     0.0000     0.0000 </r>
        <r>   -41.5949     0.0000     0.0000     0.0000     0.0000     0.0000     0.0000     0.0000     0.0000     0.0000 </r>
        <r>   -41.4032     0.0000     0.0000     0.0000     0.0000     0.0000     0.0000     0.0000     0.0000     0.0000 </r>
        <r>   -41.2116     0.0000     0.0000     0.0000     0.0000     0.0000     0.0000     0.0000     0.0000     0.0000 </r>
        <r>   -41.0199     0.0000     0.0000     0.0000     0.0000     0.0000     0.0000     0.0000     0.0000     0.0000 </r>
        <r>   -40.8283     0.0000     0.0000     0.0000     0.0000     0.0000     0.0000     0.0000     0.0000     0.0000 </r>
        <r>   -40.6367     0.0000     0.0000     0.0000     0.0000     0.0000     0.0000     0.0000     0.0000     0.0000 </r>
        <r>   -40.4450     0.0000     0.0000     0.0000     0.0000     0.0000     0.0000     0.0000     0.0000     0.0000 </r>
        <r>   -40.2534     0.0000     0.0000     0.0000     0.0000     0.0000     0.0000     0.0000     0.0000     0.0000 </r>
        <r>   -40.0617     0.0000     0.0000     0.0000     0.0000     0.0000     0.0000     0.0000     0.0000     0.0000 </r>
        <r>   -39.8701     0.0000     0.0000     0.0000     0.0000     0.0000     0.0000     0.0000     0.0000     0.0000 </r>
        <r>   -39.6784     0.0000     0.0000     0.0000     0.0000     0.0000     0.0000     0.0000     0.0000     0.0000 </r>
        <r>   -39.4868     0.0000     0.0000     0.0000     0.0000     0.0000     0.0000     0.0000     0.0000     0.0000 </r>
        <r>   -39.2951     0.0000     0.0000     0.0000     0.0000     0.0000     0.0000     0.0000     0.0000     0.0000 </r>
        <r>   -39.1035     0.0000     0.0000     0.0000     0.0000     0.0000     0.0000     0.0000     0.0000     0.0000 </r>
        <r>   -38.9118     0.0000     0.0000     0.0000     0.0000     0.0000     0.0000     0.0000     0.0000     0.0000 </r>
        <r>   -38.7202     0.0000     0.0000     0.0000     0.0000     0.0000     0.0000     0.0000     0.0000     0.0000 </r>
        <r>   -38.5286     0.0000     0.0000     0.0000     0.0000     0.0000     0.0000     0.0000     0.0000     0.0000 </r>
        <r>   -38.3369     0.0000     0.0000     0.0000     0.0000     0.0000     0.0000     0.0000     0.0000     0.0000 </r>
        <r>   -38.1453     0.0000     0.0000     0.0000     0.0000     0.0000     0.0000     0.0000     0.0000     0.0000 </r>
        <r>   -37.9536     0.0000     0.0000     0.0000     0.0000     0.0000     0.0000     0.0000     0.0000     0.0000 </r>
        <r>   -37.7620     0.0000     0.0000     0.0000     0.0000     0.0000     0.0000     0.0000     0.0000     0.0000 </r>
        <r>   -37.5703     0.0000     0.0000     0.0000     0.0000     0.0000     0.0000     0.0000     0.0000     0.0000 </r>
        <r>   -37.3787     0.0000     0.0000     0.0000     0.0000     0.0000     0.0000     0.0000     0.0000     0.0000 </r>
        <r>   -37.1870     0.0000     0.0000     0.0000     0.0000     0.0000     0.0000     0.0000     0.0000     0.0000 </r>
        <r>   -36.9954     0.0000     0.0000     0.0000     0.0000     0.0000     0.0000     0.0000     0.0000     0.0000 </r>
        <r>   -36.8038     0.0000     0.0000     0.0000     0.0000     0.0000     0.0000     0.0000     0.0000     0.0000 </r>
        <r>   -36.6121     0.0000     0.0000     0.0000     0.0000     0.0000     0.0000     0.0000     0.0000     0.0000 </r>
        <r>   -36.4205     0.0000     0.0000     0.0000     0.0000     0.0000     0.0000     0.0000     0.0000     0.0000 </r>
        <r>   -36.2288     0.0000     0.0000     0.0000     0.0000     0.0000     0.0000     0.0000     0.0000     0.0000 </r>
        <r>   -36.0372     0.0000     0.0000     0.0000     0.0000     0.0000     0.0000     0.0000     0.0000     0.0000 </r>
        <r>   -35.8455     0.0000     0.0000     0.0000     0.0000     0.0000     0.0000     0.0000     0.0000     0.0000 </r>
        <r>   -35.6539     0.0000     0.0000     0.0000     0.0000     0.0000     0.0000     0.0000     0.0000     0.0000 </r>
        <r>   -35.4622     0.0000     0.0000     0.0000     0.0000     0.0000     0.0000     0.0000     0.0000     0.0000 </r>
        <r>   -35.2706     0.0000     0.0000     0.0000     0.0000     0.0000     0.0000     0.0000     0.0000     0.0000 </r>
        <r>   -35.0790     0.0000     0.0000     0.0000     0.0000     0.0000     0.0000     0.0000     0.0000     0.0000 </r>
        <r>   -34.8873     0.0000     0.0000     0.0000     0.0000     0.0000     0.0000     0.0000     0.0000     0.0000 </r>
        <r>   -34.6957     0.0000     0.0000     0.0000     0.0000     0.0000     0.0000     0.0000     0.0000     0.0000 </r>
        <r>   -34.5040     0.0000     0.0000     0.0000     0.0000     0.0000     0.0000     0.0000     0.0000     0.0000 </r>
        <r>   -34.3124     0.0000     0.0000     0.0000     0.0000     0.0000     0.0000     0.0000     0.0000     0.0000 </r>
        <r>   -34.1207     0.0000     0.0000     0.0000     0.0000     0.0000     0.0000     0.0000     0.0000     0.0000 </r>
        <r>   -33.9291     0.0000     0.0000     0.0000     0.0000     0.0000     0.0000     0.0000     0.0000     0.0000 </r>
        <r>   -33.7374     0.0000     0.0000     0.0000     0.0000     0.0000     0.0000     0.0000     0.0000     0.0000 </r>
        <r>   -33.5458     0.0000     0.0000     0.0000     0.0000     0.0000     0.0000     0.0000     0.0000     0.0000 </r>
        <r>   -33.3541     0.0000     0.0000     0.0000     0.0000     0.0000     0.0000     0.0000     0.0000     0.0000 </r>
        <r>   -33.1625     0.0000     0.0000     0.0000     0.0000     0.0000     0.0000     0.0000     0.0000     0.0000 </r>
        <r>   -32.9709     0.0000     0.0000     0.0000     0.0000     0.0000     0.0000     0.0000     0.0000     0.0000 </r>
        <r>   -32.7792     0.0000     0.0000     0.0000     0.0000     0.0000     0.0000     0.0000     0.0000     0.0000 </r>
        <r>   -32.5876     0.0000     0.0000     0.0000     0.0000     0.0000     0.0000     0.0000     0.0000     0.0000 </r>
        <r>   -32.3959     0.0000     0.0000     0.0000     0.0000     0.0000     0.0000     0.0000     0.0000     0.0000 </r>
        <r>   -32.2043     0.0000     0.0000     0.0000     0.0000     0.0000     0.0000     0.0000     0.0000     0.0000 </r>
        <r>   -32.0126     0.0000     0.0000     0.0000     0.0000     0.0000     0.0000     0.0000     0.0000     0.0000 </r>
        <r>   -31.8210     0.0000     0.0000     0.0000     0.0000     0.0000     0.0000     0.0000     0.0000     0.0000 </r>
        <r>   -31.6293     0.0000     0.0000     0.0000     0.0000     0.0000     0.0000     0.0000     0.0000     0.0000 </r>
        <r>   -31.4377     0.0000     0.0000     0.0000     0.0000     0.0000     0.0000     0.0000     0.0000     0.0000 </r>
        <r>   -31.2461     0.0000     0.0000     0.0000     0.0000     0.0000     0.0000     0.0000     0.0000     0.0000 </r>
        <r>   -31.0544     0.0000     0.0000     0.0000     0.0000     0.0000     0.0000     0.0000     0.0000     0.0000 </r>
        <r>   -30.8628     0.0000     0.0000     0.0000     0.0000     0.0000     0.0000     0.0000     0.0000     0.0000 </r>
        <r>   -30.6711     0.0000     0.0000     0.0000     0.0000     0.0000     0.0000     0.0000     0.0000     0.0000 </r>
        <r>   -30.4795     0.0000     0.0000     0.0000     0.0000     0.0000     0.0000     0.0000     0.0000     0.0000 </r>
        <r>   -30.2878     0.0000     0.0000     0.0000     0.0000     0.0000     0.0000     0.0000     0.0000     0.0000 </r>
        <r>   -30.0962     0.0000     0.0000     0.0000     0.0000     0.0000     0.0000     0.0000     0.0000     0.0000 </r>
        <r>   -29.9045     0.0000     0.0000     0.0000     0.0000     0.0000     0.0000     0.0000     0.0000     0.0000 </r>
        <r>   -29.7129     0.0000     0.0000     0.0000     0.0000     0.0000     0.0000     0.0000     0.0000     0.0000 </r>
        <r>   -29.5212     0.0000     0.0000     0.0000     0.0000     0.0000     0.0000     0.0000     0.0000     0.0000 </r>
        <r>   -29.3296     0.0000     0.0000     0.0000     0.0000     0.0000     0.0000     0.0000     0.0000     0.0000 </r>
        <r>   -29.1380     0.0000     0.0000     0.0000     0.0000     0.0000     0.0000     0.0000     0.0000     0.0000 </r>
        <r>   -28.9463     0.0000     0.0000     0.0000     0.0000     0.0000     0.0000     0.0000     0.0000     0.0000 </r>
        <r>   -28.7547     0.0000     0.0000     0.0000     0.0000     0.0000     0.0000     0.0000     0.0000     0.0000 </r>
        <r>   -28.5630     0.0000     0.0000     0.0000     0.0000     0.0000     0.0000     0.0000     0.0000     0.0000 </r>
        <r>   -28.3714     0.0000     0.0000     0.0000     0.0000     0.0000     0.0000     0.0000     0.0000     0.0000 </r>
        <r>   -28.1797     0.0000     0.0000     0.0000     0.0000     0.0000     0.0000     0.0000     0.0000     0.0000 </r>
        <r>   -27.9881     0.0000     0.0000     0.0000     0.0000     0.0000     0.0000     0.0000     0.0000     0.0000 </r>
        <r>   -27.7964     0.0000     0.0000     0.0000     0.0000     0.0000     0.0000     0.0000     0.0000     0.0000 </r>
        <r>   -27.6048     0.0000     0.0000     0.0000     0.0000     0.0000     0.0000     0.0000     0.0000     0.0000 </r>
        <r>   -27.4132     0.0000     0.0000     0.0000     0.0000     0.0000     0.0000     0.0000     0.0000     0.0000 </r>
        <r>   -27.2215     0.0000     0.0000     0.0000     0.0000     0.0000     0.0000     0.0000     0.0000     0.0000 </r>
        <r>   -27.0299     0.0000     0.0000     0.0000     0.0000     0.0000     0.0000     0.0000     0.0000     0.0000 </r>
        <r>   -26.8382     0.0000     0.0000     0.0000     0.0000     0.0000     0.0000     0.0000     0.0000     0.0000 </r>
        <r>   -26.6466     0.0000     0.0000     0.0000     0.0000     0.0000     0.0000     0.0000     0.0000     0.0000 </r>
        <r>   -26.4549     0.0000     0.0000     0.0000     0.0000     0.0000     0.0000     0.0000     0.0000     0.0000 </r>
        <r>   -26.2633     0.0000     0.0000     0.0000     0.0000     0.0000     0.0000     0.0000     0.0000     0.0000 </r>
        <r>   -26.0716     0.0000     0.0000     0.0000     0.0000     0.0000     0.0000     0.0000     0.0000     0.0000 </r>
        <r>   -25.8800     0.0000     0.0000     0.0000     0.0000     0.0000     0.0000     0.0000     0.0000     0.0000 </r>
        <r>   -25.6884     0.0000     0.0000     0.0000     0.0000     0.0000     0.0000     0.0000     0.0000     0.0000 </r>
        <r>   -25.4967     0.0000     0.0000     0.0000     0.0000     0.0000     0.0000     0.0000     0.0000     0.0000 </r>
        <r>   -25.3051     0.0000     0.0000     0.0000     0.0000     0.0000     0.0000     0.0000     0.0000     0.0000 </r>
        <r>   -25.1134     0.0000     0.0000     0.0000     0.0000     0.0000     0.0000     0.0000     0.0000     0.0000 </r>
        <r>   -24.9218     0.0000     0.0000     0.0000     0.0000     0.0000     0.0000     0.0000     0.0000     0.0000 </r>
        <r>   -24.7301     0.0000     0.0000     0.0000     0.0000     0.0000     0.0000     0.0000     0.0000     0.0000 </r>
        <r>   -24.5385     0.0000     0.0000     0.0000     0.0000     0.0000     0.0000     0.0000     0.0000     0.0000 </r>
        <r>   -24.3468     0.0000     0.0000     0.0000     0.0000     0.0000     0.0000     0.0000     0.0000     0.0000 </r>
        <r>   -24.1552     0.0000     0.0000     0.0000     0.0000     0.0000     0.0000     0.0000     0.0000     0.0000 </r>
        <r>   -23.9635     0.0000     0.0000     0.0000     0.0000     0.0000     0.0000     0.0000     0.0000     0.0000 </r>
        <r>   -23.7719     0.0000     0.0000     0.0000     0.0000     0.0000     0.0000     0.0000     0.0000     0.0000 </r>
        <r>   -23.5803     0.0000     0.0000     0.0000     0.0000     0.0000     0.0000     0.0000     0.0000     0.0000 </r>
        <r>   -23.3886     0.0000     0.0000     0.0000     0.0000     0.0000     0.0000     0.0000     0.0000     0.0000 </r>
        <r>   -23.1970     0.0000     0.0000     0.0000     0.0000     0.0000     0.0000     0.0000     0.0000     0.0000 </r>
        <r>   -23.0053     0.0000     0.0000     0.0000     0.0000     0.0000     0.0000     0.0000     0.0000     0.0000 </r>
        <r>   -22.8137     0.0000     0.0000     0.0000     0.0000     0.0000     0.0000     0.0000     0.0000     0.0000 </r>
        <r>   -22.6220     0.0000     0.0000     0.0000     0.0000     0.0000     0.0000     0.0000     0.0000     0.0000 </r>
        <r>   -22.4304     0.0000     0.0000     0.0000     0.0000     0.0000     0.0000     0.0000     0.0000     0.0000 </r>
        <r>   -22.2387     0.0000     0.0000     0.0000     0.0000     0.0000     0.0000     0.0000     0.0000     0.0000 </r>
        <r>   -22.0471     0.0000     0.0000     0.0000     0.0000     0.0000     0.0000     0.0000     0.0000     0.0000 </r>
        <r>   -21.8555     0.0000     0.0000     0.0000     0.0000     0.0000     0.0000     0.0000     0.0000     0.0000 </r>
        <r>   -21.6638     0.0000     0.0000     0.0000     0.0000     0.0000     0.0000     0.0000     0.0000     0.0000 </r>
        <r>   -21.4722     0.0000     0.0000     0.0000     0.0000     0.0000     0.0000     0.0000     0.0000     0.0000 </r>
        <r>   -21.2805     0.0000     0.0000     0.0000     0.0000     0.0000     0.0000     0.0000     0.0000     0.0000 </r>
        <r>   -21.0889     0.0000     0.0000     0.0000     0.0000     0.0000     0.0000     0.0000     0.0000     0.0000 </r>
        <r>   -20.8972     0.0000     0.0000     0.0000     0.0000     0.0000     0.0000     0.0000     0.0000     0.0000 </r>
        <r>   -20.7056     0.0000     0.0000     0.0000     0.0000     0.0000     0.0000     0.0000     0.0000     0.0000 </r>
        <r>   -20.5139     0.0000     0.0000     0.0000     0.0000     0.0000     0.0000     0.0000     0.0000     0.0000 </r>
        <r>   -20.3223     0.0000     0.0000     0.0000     0.0000     0.0000     0.0000     0.0000     0.0000     0.0000 </r>
        <r>   -20.1306     0.0000     0.0000     0.0000     0.0000     0.0000     0.0000     0.0000     0.0000     0.0000 </r>
        <r>   -19.9390     0.0000     0.0000     0.0000     0.0000     0.0000     0.0000     0.0000     0.0000     0.0000 </r>
        <r>   -19.7474     0.0000     0.0000     0.0000     0.0000     0.0000     0.0000     0.0000     0.0000     0.0000 </r>
        <r>   -19.5557     0.0000     0.0000     0.0000     0.0000     0.0000     0.0000     0.0000     0.0000     0.0000 </r>
        <r>   -19.3641     0.0000     0.0000     0.0000     0.0000     0.0000     0.0000     0.0000     0.0000     0.0000 </r>
        <r>   -19.1724     0.0000     0.0000     0.0000     0.0000     0.0000     0.0000     0.0000     0.0000     0.0000 </r>
        <r>   -18.9808     0.0000     0.0000     0.0000     0.0000     0.0000     0.0000     0.0000     0.0000     0.0000 </r>
        <r>   -18.7891     0.0000     0.0000     0.0000     0.0000     0.0000     0.0000     0.0000     0.0000     0.0000 </r>
        <r>   -18.5975     0.0000     0.0000     0.0000     0.0000     0.0000     0.0000     0.0000     0.0000     0.0000 </r>
        <r>   -18.4058     0.0000     0.0000     0.0000     0.0000     0.0000     0.0000     0.0000     0.0000     0.0000 </r>
        <r>   -18.2142     0.0000     0.0000     0.0000     0.0000     0.0000     0.0000     0.0000     0.0000     0.0000 </r>
        <r>   -18.0226     0.0000     0.0000     0.0000     0.0000     0.0000     0.0000     0.0000     0.0000     0.0000 </r>
        <r>   -17.8309     0.0000     0.0000     0.0000     0.0000     0.0000     0.0000     0.0000     0.0000     0.0000 </r>
        <r>   -17.6393     0.0000     0.0000     0.0000     0.0000     0.0000     0.0000     0.0000     0.0000     0.0000 </r>
        <r>   -17.4476     0.0000     0.0000     0.0000     0.0000     0.0000     0.0000     0.0000     0.0000     0.0000 </r>
        <r>   -17.2560     0.0000     0.0000     0.0000     0.0000     0.0000     0.0000     0.0000     0.0000     0.0000 </r>
        <r>   -17.0643     0.0000     0.0000     0.0000     0.0000     0.0000     0.0000     0.0000     0.0000     0.0000 </r>
        <r>   -16.8727     0.0000     0.0000     0.0000     0.0000     0.0000     0.0000     0.0000     0.0000     0.0000 </r>
        <r>   -16.6810     0.0000     0.0000     0.0000     0.0000     0.0000     0.0000     0.0000     0.0000     0.0000 </r>
        <r>   -16.4894     0.0000     0.0000     0.0000     0.0000     0.0000     0.0000     0.0000     0.0000     0.0000 </r>
        <r>   -16.2978     0.0000     0.0000     0.0000     0.0000     0.0000     0.0000     0.0000     0.0000     0.0000 </r>
        <r>   -16.1061     0.0000     0.0000     0.0000     0.0000     0.0000     0.0000     0.0000     0.0000     0.0000 </r>
        <r>   -15.9145     0.0000     0.0000     0.0000     0.0000     0.0000     0.0000     0.0000     0.0000     0.0000 </r>
[...]
        <r>    -0.5829     0.0000     0.0000     0.0000     0.0000     0.0000     0.0000     0.0000     0.0000     0.0000 </r>
        <r>    -0.3912     0.0000     0.0000     0.0000     0.0000     0.0000     0.0000     0.0000     0.0000     0.0000 </r>
        <r>    -0.1996     0.0000     0.0000     0.0000     0.0000     0.0000     0.0000     0.0000     0.0000     0.0000 </r>
        <r>    -0.0079     0.0000     0.0000     0.0000     0.0000     0.0000     0.0000     0.0000     0.0000     0.0000 </r>
        <r>     0.1837     0.0007     0.2121     0.2150     0.2133     0.0000     0.0000     0.0000     0.0000     0.0000 </r>
        <r>     0.3754     0.1432     0.0778     0.0766     0.0776     0.0000     0.0000     0.0000     0.0000     0.0000 </r>
        <r>     0.5670     0.0004     0.0000     0.0000     0.0000     0.0000     0.0000     0.0000     0.0000     0.0000 </r>
        <r>     0.7586     0.0000     0.0000     0.0000     0.0000     0.0000     0.0000     0.0000     0.0000     0.0000 </r>
        <r>     0.9503     0.0000     0.0000     0.0000     0.0000     0.0000     0.0000     0.0000     0.0000     0.0000 </r>
        <r>     1.1419     0.0000     0.0000     0.0000     0.0000     0.0000     0.0000     0.0000     0.0000     0.0000 </r>
        <r>     1.3336     0.0000     0.0000     0.0000     0.0000     0.0000     0.0000     0.0439     0.0000     0.0437 </r>
        <r>     1.5252     0.0000     0.0000     0.0000     0.0000     0.0000     0.0000     0.0046     0.0000     0.0046 </r>
        <r>     1.7169     0.0000     0.0000     0.0000     0.0000     0.0000     0.0000     0.0000     0.0000     0.0000 </r>
        <r>     1.9085     0.0000     0.0000     0.0000     0.0000     0.0000     0.0000     0.0000     0.0000     0.0000 </r>
        <r>     2.1002     0.0163     0.0551     0.0595     0.0598     0.0000     0.0000     0.0000     0.0000     0.0000 </r>
        <r>     2.2918     0.1467     0.0501     0.0413     0.0425     0.0000     0.0000     0.0000     0.0000     0.0000 </r>
        <r>     2.4834     0.0000     0.0000     0.0000     0.0000     0.0000     0.0000     0.0000     0.0000     0.0000 </r>
        <r>     2.6751     0.0000     0.0000     0.0000     0.0000     0.0039     0.0041     0.0000     0.0040     0.0000 </r>
        <r>     2.8667     0.0004     0.0000     0.0001     0.0001     0.1008     0.1009     0.0259     0.1010     0.0257 </r>
        <r>     3.0584     0.0002     0.0000     0.0001     0.0001     0.0004     0.0001     0.0061     0.0001     0.0063 </r>
        <r>     3.2500     0.0000     0.0000     0.0000     0.0000     0.0000     0.0000     0.0000     0.0000     0.0000 </r>
        <r>     3.4417     0.0000     0.0000     0.0000     0.0000     0.0000     0.0000     0.0000     0.0000     0.0000 </r>
        <r>     3.6333     0.0000     0.0000     0.0000     0.0000     0.0000     0.0000     0.0000     0.0000     0.0000 </r>
        <r>     3.8250     0.0000     0.0000     0.0000     0.0000     0.0000     0.0000     0.0000     0.0000     0.0000 </r>
        <r>     4.0166     0.0001     0.0002     0.0118     0.0168     0.0005     0.0009     0.0000     0.0002     0.0000 </r>
        <r>     4.2083     0.1155     0.0585     0.0894     0.0735     0.0266     0.0162     0.0001     0.0037     0.0003 </r>
        <r>     4.3999     0.0040     0.0157     0.0071     0.0087     0.0308     0.0410     0.0000     0.0542     0.0000 </r>
        <r>     4.5915     0.0020     0.0004     0.0015     0.0012     0.0008     0.0007     0.0018     0.0007     0.0265 </r>
        <r>     4.7832     0.0003     0.0001     0.0003     0.0002     0.0001     0.0001     0.0003     0.0001     0.0047 </r>
        <r>     4.9748     0.0000     0.0000     0.0000     0.0000     0.0000     0.0000     0.0000     0.0000     0.0000 </r>
        <r>     5.1665     0.0000     0.0000     0.0000     0.0000     0.0000     0.0000     0.0000     0.0000     0.0000 </r>
        <r>     5.3581     0.0034     0.0000     0.0001     0.0000     0.0000     0.0000     0.0001     0.0000     0.0011 </r>
        <r>     5.5498     0.1342     0.0010     0.0050     0.0004     0.0000     0.0000     0.0031     0.0000     0.0437 </r>
        <r>     5.7414     0.0000     0.0000     0.0000     0.0000     0.0000     0.0000     0.0000     0.0000     0.0000 </r>
        <r>     5.9331     0.0000     0.0000     0.0000     0.0000     0.0000     0.0000     0.0000     0.0000     0.0000 </r>
        <r>     6.1247     0.0000     0.0000     0.0000     0.0000     0.0000     0.0000     0.0000     0.0000     0.0000 </r>
        <r>     6.3163     0.0000     0.0000     0.0000     0.0000     0.0000     0.0000     0.0000     0.0000     0.0000 </r>
        <r>     6.5080     0.0000     0.0000     0.0000     0.0000     0.0000     0.0000     0.0000     0.0000     0.0000 </r>
        <r>     6.6996     0.0000     0.0000     0.0000     0.0000     0.0000     0.0000     0.0000     0.0000     0.0000 </r>
        <r>     6.8913     0.0000     0.0000     0.0000     0.0000     0.0000     0.0000     0.0000     0.0000     0.0000 </r>
        <r>     7.0829     0.0000     0.0000     0.0000     0.0000     0.0000     0.0000     0.0000     0.0000     0.0000 </r>
        <r>     7.2746     0.0000     0.0000     0.0000     0.0000     0.0000     0.0000     0.0000     0.0000     0.0000 </r>
        <r>     7.4662     0.0000     0.0000     0.0000     0.0000     0.0000     0.0000     0.0000     0.0000     0.0000 </r>
        <r>     7.6579     0.0000     0.0000     0.0000     0.0000     0.0000     0.0000     0.0000     0.0000     0.0000 </r>
        <r>     7.8495     0.0000     0.0000     0.0000     0.0000     0.0000     0.0000     0.0000     0.0000     0.0000 </r>
        <r>     8.0411     0.0000     0.0000     0.0000     0.0000     0.0000     0.0000     0.0000     0.0000     0.0000 </r>
       </set>
      </set>
     </set>
    </array>
   </partial>
  </dos>
  <projected>
   <eigenvalues>
    <array>
     <dimension dim="1">band</dimension>
     <dimension dim="2">kpoint</dimension>
     <dimension dim="3">spin</dimension>
     <field>eigene</field>
     <field>occ</field>
     <set>
      <set comment="spin 1">
       <set comment="kpoint 1">
        <r>  -46.8390    1.0000 </r>
        <r>  -46.8390    1.0000 </r>
        <r>  -46.8390    1.0000 </r>
        <r>   -6.0059    1.0000 </r>
        <r>   -6.0059    1.0000 </r>
        <r>   -6.0059    1.0000 </r>
        <r>   -5.2541    1.0000 </r>
        <r>   -5.2540    1.0000 </r>
        <r>   -4.4876    1.0000 </r>
        <r>   -0.8579    0.0000 </r>
        <r>   -0.8578    0.0000 </r>
        <r>   -0.8555    0.0000 </r>
        <r>   -0.2030    0.0000 </r>
        <r>    0.8469    0.0000 </r>
        <r>    0.8470    0.0000 </r>
        <r>    1.6089    0.0000 </r>
        <r>    1.6178    0.0000 </r>
        <r>    1.6436    0.0000 </r>
        <r>    1.7418    0.0000 </r>
        <r>    1.9808    0.0000 </r>
        <r>    1.9867    0.0000 </r>
        <r>    1.9868    0.0000 </r>
        <r>    2.4147    0.0000 </r>
        <r>    2.4157    0.0000 </r>
        <r>    2.4182    0.0000 </r>
        <r>    2.5008    0.0000 </r>
        <r>    2.5041    0.0000 </r>
        <r>    3.5840    0.0000 </r>
        <r>    3.5911    0.0000 </r>
        <r>    3.6196    0.0000 </r>
        <r>    3.6923    0.0000 </r>
        <r>    3.7673    0.0000 </r>
        <r>    3.7822    0.0000 </r>
        <r>    3.7883    0.0000 </r>
        <r>    3.7885    0.0000 </r>
        <r>    4.5313    0.0000 </r>
       </set>
      </set>
      <set comment="spin 2">
       <set comment="kpoint 1">
        <r>  -44.7376    1.0000 </r>
        <r>  -44.7375    1.0000 </r>
        <r>  -44.7370    1.0000 </r>
        <r>   -3.9724    1.0000 </r>
        <r>   -3.9716    1.0000 </r>
        <r>   -3.1592    0.0000 </r>
        <r>   -3.1591    0.0000 </r>
        <r>   -3.1581    0.0000 </r>
        <r>   -3.0245    0.0000 </r>
        <r>    0.1612    0.0000 </r>
        <r>    0.1617    0.0000 </r>
        <r>    0.1619    0.0000 </r>
        <r>    0.2782    0.0000 </r>
        <r>    1.2871    0.0000 </r>
        <r>    1.2872    0.0000 </r>
        <r>    2.0915    0.0000 </r>
        <r>    2.0921    0.0000 </r>
        <r>    2.0958    0.0000 </r>
        <r>    2.1520    0.0000 </r>
        <r>    2.7374    0.0000 </r>
        <r>    2.7376    0.0000 </r>
        <r>    2.7382    0.0000 </r>
        <r>    2.8356    0.0000 </r>
        <r>    2.8359    0.0000 </r>
        <r>    2.8731    0.0000 </r>
        <r>    2.8737    0.0000 </r>
        <r>    2.8774    0.0000 </r>
        <r>    4.0387    0.0000 </r>
        <r>    4.0821    0.0000 </r>
        <r>    4.1388    0.0000 </r>
        <r>    4.1426    0.0000 </r>
        <r>    4.2162    0.0000 </r>
        <r>    4.2468    0.0000 </r>
        <r>    4.2706    0.0000 </r>
        <r>    4.5550    0.0000 </r>
        <r>    5.4278    0.0000 </r>
       </set>
      </set>
     </set>
    </array>
   </eigenvalues>
   <array>
    <dimension dim="1">ion</dimension>
    <dimension dim="2">band</dimension>
    <dimension dim="3">kpoint</dimension>
    <dimension dim="4">spin</dimension>
    <field>    s</field>
    <field>   py</field>
    <field>   pz</field>
    <field>   px</field>
    <field>  dxy</field>
    <field>  dyz</field>
    <field>  dz2</field>
    <field>  dxz</field>
    <field>x2-y2</field>
    <set>
     <set comment="spin1">
      <set comment="kpoint 1">
       <set comment="band 1">
        <r>  0.0000  0.0001  0.0001  0.9942  0.0000  0.0000  0.0000  0.0000  0.0000 </r>
       </set>
       <set comment="band 2">
        <r>  0.0000  0.0482  0.9462  0.0001  0.0000  0.0000  0.0000  0.0000  0.0000 </r>
       </set>
       <set comment="band 3">
        <r>  0.0000  0.9462  0.0482  0.0001  0.0000  0.0000  0.0000  0.0000  0.0000 </r>
       </set>
       <set comment="band 4">
        <r>  0.0000  0.0000  0.0000  0.0000  0.8510  0.0139  0.0000  0.0008  0.0000 </r>
       </set>
       <set comment="band 5">
        <r>  0.0000  0.0000  0.0000  0.0000  0.0001  0.0198  0.0000  0.8458  0.0000 </r>
       </set>
       <set comment="band 6">
        <r>  0.0000  0.0000  0.0000  0.0000  0.0146  0.8321  0.0000  0.0191  0.0000 </r>
       </set>
       <set comment="band 7">
        <r>  0.0000  0.0000  0.0000  0.0000  0.0000  0.0000  0.8466  0.0000  0.0067 </r>
       </set>
       <set comment="band 8">
        <r>  0.0000  0.0000  0.0000  0.0000  0.0000  0.0000  0.0067  0.0000  0.8466 </r>
       </set>
       <set comment="band 9">
        <r>  0.2794  0.0000  0.0000  0.0000  0.0000  0.0000  0.0000  0.0000  0.0000 </r>
       </set>
       <set comment="band 10">
        <r>  0.0001  0.0000  0.0326  0.0444  0.0000  0.0000  0.0000  0.0000  0.0000 </r>
       </set>
       <set comment="band 11">
        <r>  0.0000  0.0469  0.0171  0.0129  0.0000  0.0000  0.0000  0.0000  0.0000 </r>
       </set>
       <set comment="band 12">
        <r>  0.0000  0.0292  0.0267  0.0191  0.0000  0.0000  0.0000  0.0000  0.0000 </r>
       </set>
       <set comment="band 13">
        <r>  0.0284  0.0000  0.0000  0.0000  0.0000  0.0000  0.0000  0.0000  0.0000 </r>
       </set>
       <set comment="band 14">
        <r>  0.0000  0.0000  0.0000  0.0000  0.0000  0.0000  0.0091  0.0000  0.0001 </r>
       </set>
       <set comment="band 15">
        <r>  0.0000  0.0000  0.0000  0.0000  0.0000  0.0000  0.0001  0.0000  0.0091 </r>
       </set>
       <set comment="band 16">
        <r>  0.0002  0.0001  0.0141  0.0100  0.0000  0.0000  0.0000  0.0000  0.0000 </r>
       </set>
       <set comment="band 17">
        <r>  0.0013  0.0212  0.0017  0.0009  0.0000  0.0001  0.0000  0.0000  0.0000 </r>
       </set>
       <set comment="band 18">
        <r>  0.0029  0.0013  0.0090  0.0116  0.0001  0.0002  0.0000  0.0000  0.0000 </r>
       </set>
       <set comment="band 19">
        <r>  0.0256  0.0023  0.0009  0.0015  0.0000  0.0000  0.0000  0.0000  0.0000 </r>
       </set>
       <set comment="band 20">
        <r>  0.0000  0.0001  0.0002  0.0004  0.0014  0.0157  0.0000  0.0006  0.0000 </r>
       </set>
       <set comment="band 21">
        <r>  0.0000  0.0000  0.0000  0.0000  0.0033  0.0017  0.0000  0.0135  0.0000 </r>
       </set>
       <set comment="band 22">
        <r>  0.0000  0.0000  0.0000  0.0000  0.0135  0.0005  0.0000  0.0042  0.0000 </r>
       </set>
       <set comment="band 23">
        <r>  0.0000  0.0000  0.0000  0.0000  0.0000  0.0000  0.0000  0.0000  0.0000 </r>
       </set>
       <set comment="band 24">
        <r>  0.0000  0.0001  0.0003  0.0003  0.0000  0.0000  0.0002  0.0000  0.0000 </r>
       </set>
       <set comment="band 25">
        <r>  0.0002  0.0000  0.0000  0.0002  0.0000  0.0000  0.0000  0.0000  0.0000 </r>
       </set>
       <set comment="band 26">
        <r>  0.0000  0.0000  0.0000  0.0000  0.0000  0.0000  0.0051  0.0000  0.0002 </r>
       </set>
       <set comment="band 27">
        <r>  0.0000  0.0000  0.0000  0.0000  0.0000  0.0000  0.0002  0.0000  0.0053 </r>
       </set>
       <set comment="band 28">
        <r>  0.0030  0.0000  0.0003  0.0280  0.0001  0.0000  0.0000  0.0000  0.0000 </r>
       </set>
       <set comment="band 29">
        <r>  0.0010  0.0076  0.0182  0.0000  0.0000  0.0002  0.0000  0.0005  0.0000 </r>
       </set>
       <set comment="band 30">
        <r>  0.0073  0.0005  0.0037  0.0014  0.0000  0.0000  0.0000  0.0001  0.0000 </r>
       </set>
       <set comment="band 31">
        <r>  0.0000  0.0132  0.0103  0.0005  0.0000  0.0002  0.0015  0.0000  0.0008 </r>
       </set>
       <set comment="band 32">
        <r>  0.0168  0.0021  0.0002  0.0020  0.0006  0.0001  0.0000  0.0007  0.0000 </r>
       </set>
       <set comment="band 33">
        <r>  0.0013  0.0001  0.0016  0.0000  0.0008  0.0045  0.0000  0.0022  0.0000 </r>
       </set>
       <set comment="band 34">
        <r>  0.0002  0.0002  0.0004  0.0000  0.0061  0.0000  0.0000  0.0020  0.0000 </r>
       </set>
       <set comment="band 35">
        <r>  0.0038  0.0003  0.0000  0.0000  0.0009  0.0035  0.0000  0.0028  0.0000 </r>
       </set>
       <set comment="band 36">
        <r>  0.0017  0.0027  0.0033  0.0084  0.0005  0.0003  0.0009  0.0005  0.0043 </r>
       </set>
      </set>
     </set>
     <set comment="spin2">
      <set comment="kpoint 1">
       <set comment="band 1">
        <r>  0.0000  0.0000  0.9928  0.0000  0.0000  0.0000  0.0000  0.0000  0.0000 </r>
       </set>
       <set comment="band 2">
        <r>  0.0000  0.9928  0.0000  0.0000  0.0000  0.0000  0.0000  0.0000  0.0000 </r>
       </set>
       <set comment="band 3">
        <r>  0.0000  0.0000  0.0000  0.9928  0.0000  0.0000  0.0000  0.0000  0.0000 </r>
       </set>
       <set comment="band 4">
        <r>  0.0000  0.0000  0.0000  0.0000  0.0000  0.0000  0.0406  0.0000  0.8054 </r>
       </set>
       <set comment="band 5">
        <r>  0.0000  0.0000  0.0000  0.0000  0.0000  0.0000  0.8054  0.0000  0.0406 </r>
       </set>
       <set comment="band 6">
        <r>  0.0000  0.0000  0.0000  0.0000  0.0002  0.6364  0.0000  0.2028  0.0000 </r>
       </set>
       <set comment="band 7">
        <r>  0.0000  0.0000  0.0000  0.0000  0.0038  0.2012  0.0000  0.6344  0.0000 </r>
       </set>
       <set comment="band 8">
        <r>  0.0000  0.0000  0.0000  0.0000  0.8354  0.0018  0.0000  0.0022  0.0000 </r>
       </set>
       <set comment="band 9">
        <r>  0.2469  0.0000  0.0000  0.0000  0.0000  0.0000  0.0000  0.0000  0.0000 </r>
       </set>
       <set comment="band 10">
        <r>  0.0000  0.0013  0.0527  0.0021  0.0000  0.0000  0.0000  0.0000  0.0000 </r>
       </set>
       <set comment="band 11">
        <r>  0.0000  0.0086  0.0007  0.0464  0.0000  0.0000  0.0000  0.0000  0.0000 </r>
       </set>
       <set comment="band 12">
        <r>  0.0000  0.0456  0.0025  0.0073  0.0000  0.0000  0.0000  0.0000  0.0000 </r>
       </set>
       <set comment="band 13">
        <r>  0.0276  0.0000  0.0000  0.0000  0.0000  0.0000  0.0000  0.0000  0.0000 </r>
       </set>
       <set comment="band 14">
        <r>  0.0000  0.0000  0.0000  0.0000  0.0000  0.0000  0.0040  0.0000  0.0053 </r>
       </set>
       <set comment="band 15">
        <r>  0.0000  0.0000  0.0000  0.0000  0.0000  0.0000  0.0053  0.0000  0.0039 </r>
       </set>
       <set comment="band 16">
        <r>  0.0001  0.0004  0.0133  0.0055  0.0000  0.0000  0.0000  0.0000  0.0000 </r>
       </set>
       <set comment="band 17">
        <r>  0.0000  0.0022  0.0058  0.0119  0.0000  0.0000  0.0000  0.0000  0.0000 </r>
       </set>
       <set comment="band 18">
        <r>  0.0017  0.0163  0.0000  0.0022  0.0000  0.0000  0.0000  0.0000  0.0000 </r>
       </set>
       <set comment="band 19">
        <r>  0.0294  0.0013  0.0002  0.0001  0.0000  0.0000  0.0000  0.0000  0.0000 </r>
       </set>
       <set comment="band 20">
        <r>  0.0000  0.0000  0.0000  0.0000  0.0018  0.0103  0.0000  0.0080  0.0000 </r>
       </set>
       <set comment="band 21">
        <r>  0.0000  0.0000  0.0000  0.0000  0.0003  0.0094  0.0000  0.0104  0.0000 </r>
       </set>
       <set comment="band 22">
        <r>  0.0000  0.0000  0.0000  0.0000  0.0179  0.0004  0.0000  0.0017  0.0000 </r>
       </set>
       <set comment="band 23">
        <r>  0.0000  0.0000  0.0000  0.0000  0.0000  0.0000  0.0061  0.0000  0.0000 </r>
       </set>
       <set comment="band 24">
        <r>  0.0000  0.0000  0.0000  0.0000  0.0000  0.0000  0.0000  0.0000  0.0060 </r>
       </set>
       <set comment="band 25">
        <r>  0.0000  0.0000  0.0000  0.0000  0.0000  0.0000  0.0000  0.0000  0.0001 </r>
       </set>
       <set comment="band 26">
        <r>  0.0000  0.0000  0.0000  0.0000  0.0000  0.0000  0.0000  0.0000  0.0000 </r>
       </set>
       <set comment="band 27">
        <r>  0.0000  0.0000  0.0000  0.0000  0.0001  0.0000  0.0000  0.0000  0.0000 </r>
       </set>
       <set comment="band 28">
        <r>  0.0000  0.0000  0.0075  0.0115  0.0002  0.0005  0.0000  0.0001  0.0000 </r>
       </set>
       <set comment="band 29">
        <r>  0.0003  0.0012  0.0088  0.0052  0.0015  0.0013  0.0000  0.0001  0.0000 </r>
       </set>
       <set comment="band 30">
        <r>  0.0222  0.0008  0.0002  0.0002  0.0000  0.0000  0.0000  0.0000  0.0000 </r>
       </set>
       <set comment="band 31">
        <r>  0.0001  0.0083  0.0021  0.0001  0.0000  0.0002  0.0000  0.0001  0.0000 </r>
       </set>
       <set comment="band 32">
        <r>  0.0003  0.0026  0.0021  0.0003  0.0080  0.0003  0.0000  0.0001  0.0000 </r>
       </set>
       <set comment="band 33">
        <r>  0.0001  0.0008  0.0000  0.0016  0.0009  0.0088  0.0000  0.0002  0.0000 </r>
       </set>
       <set comment="band 34">
        <r>  0.0000  0.0005  0.0000  0.0001  0.0004  0.0000  0.0000  0.0106  0.0000 </r>
       </set>
       <set comment="band 35">
        <r>  0.0004  0.0001  0.0003  0.0003  0.0002  0.0002  0.0004  0.0002  0.0060 </r>
       </set>
       <set comment="band 36">
        <r>  0.0264  0.0002  0.0010  0.0001  0.0000  0.0000  0.0006  0.0000  0.0086 </r>
       </set>
      </set>
     </set>
    </set>
   </array>
  </projected>
 </calculation>
 <structure name="finalpos" >
  <crystal>
   <varray name="basis" >
    <v>      10.00000000       0.00000000       0.00000000 </v>
    <v>       0.00000000      10.00000000       0.00000000 </v>
    <v>       0.00000000       0.00000000      10.00000000 </v>
   </varray>
   <i name="volume">   1000.00000000 </i>
   <varray name="rec_basis" >
    <v>       0.10000000       0.00000000       0.00000000 </v>
    <v>       0.00000000       0.10000000       0.00000000 </v>
    <v>       0.00000000       0.00000000       0.10000000 </v>
   </varray>
  </crystal>
  <varray name="positions" >
   <v>       0.50000000       0.50000000       0.50000000 </v>
  </varray>
 </structure>
</modeling>
