       N       E                     dE             d eps       ncg     rms          ort
DAV:   1     0.426803967384E+02    0.42680E+02   -0.18224E+03    36   0.129E+02
DAV:   2     0.278042096754E+02   -0.14876E+02   -0.14854E+02    36   0.186E+01
DAV:   3     0.205673270709E+02   -0.72369E+01   -0.71835E+01    36   0.635E+00
DAV:   4     0.895740941907E+01   -0.11610E+02   -0.10623E+02    36   0.127E+01
DAV:   5     0.321814545584E+01   -0.57393E+01   -0.57377E+01    36   0.961E+00
SDA:   6     0.398538696644E+01    0.76724E+00   -0.57083E+01    36   0.143E+02 0.000E+00
DMP:   7     0.681035557121E+00   -0.33044E+01   -0.92949E+00    36   0.143E+01 0.235E+01
DMP:   8     0.329087041932E+00   -0.35195E+00   -0.33378E+00    36   0.115E+01-0.823E+00
DMP:   9     0.106469257729E+00   -0.22262E+00   -0.21955E+00    36   0.468E+00 0.212E+00
DMP:  10    -0.542040963973E-02   -0.11189E+00   -0.33310E-01    36   0.848E-01-0.408E-02
DMP:  11    -0.162865297959E-01   -0.10866E-01   -0.28214E-01    36   0.848E-01-0.374E-01
DMP:  12    -0.374832202085E-01   -0.21197E-01   -0.18164E-01    36   0.322E-01 0.345E-01
DMP:  13    -0.508838806351E-01   -0.13401E-01   -0.10742E-01    36   0.171E-01 0.256E-01
DMP:  14    -0.727742279896E-01   -0.21890E-01   -0.74220E-01    36   0.146E+00 0.103E+00
DMP:  15    -0.295556163299E+00   -0.22278E+00   -0.11083E+01    36   0.239E+01 0.994E+00
DMP:  16    -0.777785386107E+00   -0.48223E+00   -0.86653E-02    36   0.160E-01 0.147E-01
DMP:  17    -0.784717396001E+00   -0.69320E-02   -0.49116E-02    36   0.721E-02 0.133E-01
DMP:  18    -0.788718790382E+00   -0.40014E-02   -0.27437E-02    36   0.362E-02 0.847E-02
DMP:  19    -0.793078634019E+00   -0.43598E-02   -0.48025E-02    36   0.462E-02 0.193E-01
DMP:  20    -0.798760425552E+00   -0.56818E-02   -0.33567E-02    36   0.292E-02 0.143E-01
DMP:  21    -0.801594581257E+00   -0.28342E-02   -0.12249E-02    36   0.102E-02 0.534E-02
DMP:  22    -0.802535976886E+00   -0.94140E-03   -0.36674E-03    36   0.307E-03 0.160E-02
DMP:  23    -0.802808638091E+00   -0.27266E-03   -0.10533E-03    36   0.952E-04 0.440E-03
DMP:  24    -0.802886507159E+00   -0.77869E-04   -0.32931E-04    36   0.348E-04 0.124E-03
DMP:  25    -0.802911441163E+00   -0.24934E-04   -0.12598E-04    36   0.155E-04 0.418E-04
   1 F= -.80291144E+00 E0= -.78362945E+00  d E =-.802911E+00  mag=    -2.0000
