       N       E                     dE             d eps       ncg     rms          ort
DAV:   1     0.661999725773E+02    0.66200E+02   -0.21901E+03    36   0.150E+02
DAV:   2     0.482165457646E+02   -0.17983E+02   -0.17937E+02    36   0.181E+01
DAV:   3     0.105485246078E+02   -0.37668E+02   -0.32512E+02    36   0.168E+01
DAV:   4     0.942529202960E+00   -0.96060E+01   -0.96008E+01    36   0.187E+01
DAV:   5    -0.179762666036E+00   -0.11223E+01   -0.11099E+01    36   0.595E+00
SDA:   6    -0.246197319489E+00   -0.66435E-01   -0.34984E+00    36   0.875E+00 0.000E+00
DMP:   7    -0.418456802980E+00   -0.17226E+00   -0.44102E-01    36   0.123E+00-0.326E-01
DMP:   8    -0.436799111675E+00   -0.18342E-01   -0.39224E-01    36   0.107E+00-0.233E-01
DMP:   9    -0.455668952408E+00   -0.18870E-01   -0.35312E-02    36   0.104E-01-0.415E-02
DMP:  10    -0.454781689955E+00    0.88726E-03   -0.38837E-02    36   0.149E-01-0.135E-01
DMP:  11    -0.457398824958E+00   -0.26171E-02   -0.22995E-02    36   0.448E-02 0.331E-02
DMP:  12    -0.458553835486E+00   -0.11550E-02   -0.46406E-03    36   0.115E-02 0.144E-04
DMP:  13    -0.458800608489E+00   -0.24677E-03   -0.31072E-03    36   0.751E-03 0.682E-04
DMP:  14    -0.458986225570E+00   -0.18562E-03   -0.81520E-04    36   0.146E-03 0.152E-03
DMP:  15    -0.459019232014E+00   -0.33006E-04   -0.23766E-04    36   0.740E-04-0.383E-04
   1 F= -.45901923E+00 E0= -.43973771E+00  d E =-.459019E+00  mag=     1.0000
