<?xml version="1.0" encoding="ISO-8859-1"?>
<modeling>
 <generator>
  <i name="program" type="string">vasp </i>
  <i name="version" type="string">5.4.4.18Apr17-6-g9f103f2a35  </i>
  <i name="subversion" type="string">(build Apr 25 2017 10:43:04) complex            parallel </i>
  <i name="platform" type="string">LinuxIFC </i>
  <i name="date" type="string">2019 08 28 </i>
  <i name="time" type="string">17:48:08 </i>
 </generator>
 <incar>
  <i type="string" name="PREC">n</i>
  <i type="string" name="ALGO">  Normal</i>
  <i type="int" name="NELM">   100</i>
  <i type="int" name="NELMIN">     2</i>
  <i type="int" name="IBRION">     2</i>
  <i name="EDIFF">      0.00000100</i>
  <i name="EDIFFG">     -0.00300000</i>
  <i type="int" name="NSW">    50</i>
  <i type="int" name="ISIF">     3</i>
  <i name="ENCUT">    520.00000000</i>
  <i type="logical" name="LREAL"> F  </i>
  <i type="int" name="ISMEAR">     0</i>
  <i name="SIGMA">      0.10000000</i>
  <i type="logical" name="LWAVE"> T  </i>
  <i type="logical" name="LCHARG"> F  </i>
  <i type="logical" name="LASPH"> T  </i>
  <v type="int" name="KPOINT_BSE">    -1     0     0     0</v>
  <i type="int" name="NELM">   100</i>
  <i type="string" name="GGA">  Ps</i>
  <i type="logical" name="LASPH"> T  </i>
 </incar>
 <structure name="primitive_cell" >
  <crystal>
   <varray name="basis" >
    <v>       1.59726937       0.92218403       7.65329546 </v>
    <v>      -1.59726937       0.92218403       7.65329546 </v>
    <v>       0.00000000      -1.84436806       7.65329546 </v>
   </varray>
   <i name="volume">     67.63873708 </i>
   <varray name="rec_basis" >
    <v>       0.31303424       0.18073038       0.04355422 </v>
    <v>      -0.31303424       0.18073038       0.04355422 </v>
    <v>       0.00000000      -0.36146075       0.04355422 </v>
   </varray>
  </crystal>
  <varray name="positions" >
   <v>       0.00000000       0.00000000       0.00000000 </v>
   <v>       0.22204962       0.22204962       0.22204962 </v>
   <v>      -0.22204962      -0.22204962      -0.22204962 </v>
  </varray>
 </structure>
 <varray name="primitive_index" >
  <v type="int" >        1 </v>
  <v type="int" >        2 </v>
  <v type="int" >        3 </v>
 </varray>
 <kpoints>
  <generation param="Gamma">
   <v type="int" name="divisions">       8        8        8 </v>
   <v name="usershift">      0.00000000       0.00000000       0.00000000 </v>
   <v name="genvec1">      0.12500000       0.00000000       0.00000000 </v>
   <v name="genvec2">      0.00000000       0.12500000       0.00000000 </v>
   <v name="genvec3">      0.00000000       0.00000000       0.12500000 </v>
   <v name="shift">      0.00000000       0.00000000       0.00000000 </v>
  </generation>
  <varray name="kpointlist" >
   <v>       0.00000000       0.00000000       0.00000000 </v>
   <v>       0.12500000      -0.00000000       0.00000000 </v>
   <v>       0.25000000      -0.00000000       0.00000000 </v>
   <v>       0.37500000      -0.00000000       0.00000000 </v>
   <v>       0.50000000      -0.00000000       0.00000000 </v>
   <v>       0.12500000       0.12500000       0.00000000 </v>
   <v>       0.25000000       0.12500000       0.00000000 </v>
   <v>       0.37500000       0.12500000       0.00000000 </v>
   <v>       0.50000000       0.12500000       0.00000000 </v>
   <v>      -0.37500000       0.12500000       0.00000000 </v>
   <v>      -0.25000000       0.12500000       0.00000000 </v>
   <v>      -0.12500000       0.12500000       0.00000000 </v>
   <v>       0.25000000       0.25000000       0.00000000 </v>
   <v>       0.37500000       0.25000000       0.00000000 </v>
   <v>       0.50000000       0.25000000       0.00000000 </v>
   <v>      -0.37500000       0.25000000      -0.00000000 </v>
   <v>      -0.25000000       0.25000000       0.00000000 </v>
   <v>       0.37500000       0.37500000       0.00000000 </v>
   <v>       0.50000000       0.37500000      -0.00000000 </v>
   <v>      -0.37500000       0.37500000       0.00000000 </v>
   <v>       0.50000000       0.50000000       0.00000000 </v>
   <v>       0.12500000       0.12500000       0.12500000 </v>
   <v>       0.25000000       0.12500000       0.12500000 </v>
   <v>       0.37500000       0.12500000       0.12500000 </v>
   <v>       0.50000000       0.12500000       0.12500000 </v>
   <v>      -0.37500000       0.12500000       0.12500000 </v>
   <v>      -0.25000000       0.12500000       0.12500000 </v>
   <v>      -0.12500000       0.12500000       0.12500000 </v>
   <v>       0.25000000       0.25000000       0.12500000 </v>
   <v>       0.37500000       0.25000000       0.12500000 </v>
   <v>       0.50000000       0.25000000       0.12500000 </v>
   <v>      -0.37500000       0.25000000       0.12500000 </v>
   <v>      -0.25000000       0.25000000       0.12500000 </v>
   <v>      -0.12500000       0.25000000       0.12500000 </v>
   <v>       0.37500000       0.37500000       0.12500000 </v>
   <v>       0.50000000       0.37500000       0.12500000 </v>
   <v>      -0.37500000       0.37500000       0.12500000 </v>
   <v>      -0.25000000       0.37500000       0.12500000 </v>
   <v>      -0.12500000       0.37500000       0.12500000 </v>
   <v>       0.50000000       0.50000000       0.12500000 </v>
   <v>      -0.37500000       0.50000000       0.12500000 </v>
   <v>      -0.25000000       0.50000000       0.12500000 </v>
   <v>      -0.12500000       0.50000000       0.12500000 </v>
   <v>      -0.37500000      -0.37500000       0.12500000 </v>
   <v>      -0.25000000      -0.37500000       0.12500000 </v>
   <v>      -0.25000000      -0.25000000       0.12500000 </v>
   <v>       0.25000000       0.25000000       0.25000000 </v>
   <v>       0.37500000       0.25000000       0.25000000 </v>
   <v>       0.50000000       0.25000000       0.25000000 </v>
   <v>      -0.37500000       0.25000000       0.25000000 </v>
   <v>      -0.25000000       0.25000000       0.25000000 </v>
   <v>       0.37500000       0.37500000       0.25000000 </v>
   <v>       0.50000000       0.37500000       0.25000000 </v>
   <v>      -0.37500000       0.37500000       0.25000000 </v>
   <v>      -0.25000000       0.37500000       0.25000000 </v>
   <v>       0.50000000       0.50000000       0.25000000 </v>
   <v>      -0.37500000       0.50000000       0.25000000 </v>
   <v>      -0.25000000       0.50000000       0.25000000 </v>
   <v>      -0.37500000      -0.37500000       0.25000000 </v>
   <v>       0.37500000       0.37500000       0.37500000 </v>
   <v>       0.50000000       0.37500000       0.37500000 </v>
   <v>      -0.37500000       0.37500000       0.37500000 </v>
   <v>       0.50000000       0.50000000       0.37500000 </v>
   <v>      -0.37500000       0.50000000       0.37500000 </v>
   <v>       0.50000000       0.50000000       0.50000000 </v>
  </varray>
  <varray name="weights" >
   <v>       0.00195312 </v>
   <v>       0.01171875 </v>
   <v>       0.01171875 </v>
   <v>       0.01171875 </v>
   <v>       0.00585938 </v>
   <v>       0.01171875 </v>
   <v>       0.02343750 </v>
   <v>       0.02343750 </v>
   <v>       0.02343750 </v>
   <v>       0.02343750 </v>
   <v>       0.02343750 </v>
   <v>       0.01171875 </v>
   <v>       0.01171875 </v>
   <v>       0.02343750 </v>
   <v>       0.02343750 </v>
   <v>       0.02343750 </v>
   <v>       0.01171875 </v>
   <v>       0.01171875 </v>
   <v>       0.02343750 </v>
   <v>       0.01171875 </v>
   <v>       0.00585938 </v>
   <v>       0.00390625 </v>
   <v>       0.01171875 </v>
   <v>       0.01171875 </v>
   <v>       0.01171875 </v>
   <v>       0.01171875 </v>
   <v>       0.01171875 </v>
   <v>       0.01171875 </v>
   <v>       0.01171875 </v>
   <v>       0.02343750 </v>
   <v>       0.02343750 </v>
   <v>       0.02343750 </v>
   <v>       0.02343750 </v>
   <v>       0.02343750 </v>
   <v>       0.01171875 </v>
   <v>       0.02343750 </v>
   <v>       0.02343750 </v>
   <v>       0.02343750 </v>
   <v>       0.02343750 </v>
   <v>       0.01171875 </v>
   <v>       0.02343750 </v>
   <v>       0.02343750 </v>
   <v>       0.01171875 </v>
   <v>       0.01171875 </v>
   <v>       0.02343750 </v>
   <v>       0.01171875 </v>
   <v>       0.00390625 </v>
   <v>       0.01171875 </v>
   <v>       0.01171875 </v>
   <v>       0.01171875 </v>
   <v>       0.01171875 </v>
   <v>       0.01171875 </v>
   <v>       0.02343750 </v>
   <v>       0.02343750 </v>
   <v>       0.02343750 </v>
   <v>       0.01171875 </v>
   <v>       0.02343750 </v>
   <v>       0.01171875 </v>
   <v>       0.01171875 </v>
   <v>       0.00390625 </v>
   <v>       0.01171875 </v>
   <v>       0.01171875 </v>
   <v>       0.01171875 </v>
   <v>       0.01171875 </v>
   <v>       0.00195312 </v>
  </varray>
 </kpoints>
 <parameters>
  <separator name="general" >
   <i type="string" name="SYSTEM">unknown system</i>
   <i type="logical" name="LCOMPAT"> F  </i>
  </separator>
  <separator name="electronic" >
   <i type="string" name="PREC">n</i>
   <i name="ENMAX">    520.00000000</i>
   <i name="ENAUG">    454.73400000</i>
   <i name="EDIFF">      0.00000100</i>
   <i type="int" name="IALGO">    38</i>
   <i type="int" name="IWAVPR">    11</i>
   <i type="int" name="NBANDS">     9</i>
   <i name="NELECT">      6.00000000</i>
   <i type="int" name="TURBO">     0</i>
   <i type="int" name="IRESTART">     0</i>
   <i type="int" name="NREBOOT">     0</i>
   <i type="int" name="NMIN">     0</i>
   <i name="EREF">      0.00000000</i>
   <separator name="electronic smearing" >
    <i type="int" name="ISMEAR">     0</i>
    <i name="SIGMA">      0.10000000</i>
    <i name="KSPACING">      0.50000000</i>
    <i type="logical" name="KGAMMA"> T  </i>
   </separator>
   <separator name="electronic projectors" >
    <i type="logical" name="LREAL"> F  </i>
    <v name="ROPT">      0.00000000</v>
    <i type="int" name="LMAXPAW">  -100</i>
    <i type="int" name="LMAXMIX">     2</i>
    <i type="logical" name="NLSPLINE"> F  </i>
   </separator>
   <separator name="electronic startup" >
    <i type="int" name="ISTART">     1</i>
    <i type="int" name="ICHARG">     0</i>
    <i type="int" name="INIWAV">     1</i>
   </separator>
   <separator name="electronic spin" >
    <i type="int" name="ISPIN">     1</i>
    <i type="logical" name="LNONCOLLINEAR"> F  </i>
    <v name="MAGMOM">      1.00000000      1.00000000      1.00000000</v>
    <i name="NUPDOWN">     -1.00000000</i>
    <i type="logical" name="LSORBIT"> F  </i>
    <v name="SAXIS">      0.00000000      0.00000000      1.00000000</v>
    <i type="logical" name="LSPIRAL"> F  </i>
    <v name="QSPIRAL">      0.00000000      0.00000000      0.00000000</v>
    <i type="logical" name="LZEROZ"> F  </i>
   </separator>
   <separator name="electronic exchange-correlation" >
    <i type="logical" name="LASPH"> T  </i>
    <i type="logical" name="LMETAGGA"> F  </i>
   </separator>
   <separator name="electronic convergence" >
    <i type="int" name="NELM">   100</i>
    <i type="int" name="NELMDL">     0</i>
    <i type="int" name="NELMIN">     2</i>
    <i name="ENINI">    520.00000000</i>
    <separator name="electronic convergence detail" >
     <i type="logical" name="LDIAG"> T  </i>
     <i type="logical" name="LSUBROT"> F  </i>
     <i name="WEIMIN">      0.00100000</i>
     <i name="EBREAK">      0.00000003</i>
     <i name="DEPER">      0.30000000</i>
     <i type="int" name="NRMM">     4</i>
     <i name="TIME">      0.40000000</i>
    </separator>
   </separator>
   <separator name="electronic mixer" >
    <i name="AMIX">      0.40000000</i>
    <i name="BMIX">      1.00000000</i>
    <i name="AMIN">      0.10000000</i>
    <i name="AMIX_MAG">      1.60000000</i>
    <i name="BMIX_MAG">      1.00000000</i>
    <separator name="electronic mixer details" >
     <i type="int" name="IMIX">     4</i>
     <i type="logical" name="MIXFIRST"> F  </i>
     <i type="int" name="MAXMIX">   -45</i>
     <i name="WC">    100.00000000</i>
     <i type="int" name="INIMIX">     1</i>
     <i type="int" name="MIXPRE">     1</i>
     <i type="int" name="MREMOVE">     5</i>
    </separator>
   </separator>
   <separator name="electronic dipolcorrection" >
    <i type="logical" name="LDIPOL"> F  </i>
    <i type="logical" name="LMONO"> F  </i>
    <i type="int" name="IDIPOL">     0</i>
    <i name="EPSILON">      1.00000000</i>
    <v name="DIPOL">   -100.00000000   -100.00000000   -100.00000000</v>
    <i name="EFIELD">      0.00000000</i>
   </separator>
  </separator>
  <separator name="grids" >
   <i type="int" name="NGX">    48</i>
   <i type="int" name="NGY">    48</i>
   <i type="int" name="NGZ">    48</i>
   <i type="int" name="NGXF">    96</i>
   <i type="int" name="NGYF">    96</i>
   <i type="int" name="NGZF">    96</i>
   <i type="logical" name="ADDGRID"> F  </i>
  </separator>
  <separator name="ionic" >
   <i type="int" name="NSW">    50</i>
   <i type="int" name="IBRION">     2</i>
   <i type="int" name="MDALGO">     0</i>
   <i type="int" name="ISIF">     3</i>
   <i name="PSTRESS">      0.00000000</i>
   <i name="EDIFFG">     -0.00300000</i>
   <i type="int" name="NFREE">     1</i>
   <i name="POTIM">      0.50000000</i>
   <i name="SMASS">     -3.00000000</i>
   <i name="SCALEE">      1.00000000</i>
  </separator>
  <separator name="ionic md" >
   <i name="TEBEG">      0.00010000</i>
   <i name="TEEND">      0.00010000</i>
   <i type="int" name="NBLOCK">     1</i>
   <i type="int" name="KBLOCK">    50</i>
   <i type="int" name="NPACO">   256</i>
   <i name="APACO">     16.00000000</i>
  </separator>
  <separator name="symmetry" >
   <i type="int" name="ISYM">     2</i>
   <i name="SYMPREC">      0.00001000</i>
  </separator>
  <separator name="dos" >
   <i type="int" name="LORBIT">     0</i>
   <v name="RWIGS">     -1.00000000</v>
   <i type="int" name="NEDOS">   301</i>
   <i name="EMIN">     10.00000000</i>
   <i name="EMAX">    -10.00000000</i>
   <i name="EFERMI">      0.00000000</i>
  </separator>
  <separator name="writing" >
   <i type="int" name="NWRITE">     2</i>
   <i type="logical" name="LWAVE"> T  </i>
   <i type="logical" name="LDOWNSAMPLE"> F  </i>
   <i type="logical" name="LCHARG"> F  </i>
   <i type="logical" name="LPARD"> F  </i>
   <i type="logical" name="LVTOT"> F  </i>
   <i type="logical" name="LVHAR"> F  </i>
   <i type="logical" name="LELF"> F  </i>
   <i type="logical" name="LOPTICS"> F  </i>
   <v name="STM">      0.00000000      0.00000000      0.00000000      0.00000000      0.00000000      0.00000000      0.00000000</v>
  </separator>
  <separator name="performance" >
   <i type="int" name="NPAR">     9</i>
   <i type="int" name="NSIM">     4</i>
   <i type="int" name="NBLK">    -1</i>
   <i type="logical" name="LPLANE"> T  </i>
   <i type="logical" name="LSCALAPACK"> T  </i>
   <i type="logical" name="LSCAAWARE"> F  </i>
   <i type="logical" name="LSCALU"> F  </i>
   <i type="logical" name="LASYNC"> F  </i>
   <i type="logical" name="LORBITALREAL"> F  </i>
  </separator>
  <separator name="miscellaneous" >
   <i type="int" name="IDIOT">     3</i>
   <i type="int" name="ISPECIAL">     0</i>
   <i type="logical" name="LMUSIC"> F  </i>
   <v name="POMASS">     24.30500000</v>
   <v name="DARWINR">      0.00000000</v>
   <v name="DARWINV">      1.00000000</v>
   <i type="logical" name="LCORR"> T  </i>
  </separator>
  <i type="logical" name="GGA_COMPAT"> T  </i>
  <i type="logical" name="LBERRY"> F  </i>
  <i type="int" name="ICORELEVEL">     0</i>
  <i type="logical" name="LDAU"> F  </i>
  <i type="int" name="I_CONSTRAINED_M">     0</i>
  <separator name="electronic exchange-correlation" >
   <i type="string" name="GGA">PS</i>
   <i type="int" name="VOSKOWN">     0</i>
   <i type="logical" name="LHFCALC"> F  </i>
   <i type="string" name="PRECFOCK"></i>
   <i type="logical" name="LSYMGRAD"> F  </i>
   <i type="logical" name="LHFONE"> F  </i>
   <i type="logical" name="LRHFCALC"> F  </i>
   <i type="logical" name="LTHOMAS"> F  </i>
   <i type="logical" name="LMODELHF"> F  </i>
   <i name="ENCUT4O">     -1.00000000</i>
   <i type="int" name="EXXOEP">     0</i>
   <i type="int" name="FOURORBIT">     0</i>
   <i name="AEXX">      0.00000000</i>
   <i name="HFALPHA">      0.00000000</i>
   <i name="MCALPHA">      0.00000000</i>
   <i name="ALDAX">      1.00000000</i>
   <i name="AGGAX">      1.00000000</i>
   <i name="ALDAC">      1.00000000</i>
   <i name="AGGAC">      1.00000000</i>
   <i type="int" name="NKREDX">     1</i>
   <i type="int" name="NKREDY">     1</i>
   <i type="int" name="NKREDZ">     1</i>
   <i type="logical" name="SHIFTRED"> F  </i>
   <i type="logical" name="ODDONLY"> F  </i>
   <i type="logical" name="EVENONLY"> F  </i>
   <i type="int" name="LMAXFOCK">     0</i>
   <i type="int" name="NMAXFOCKAE">     0</i>
   <i type="logical" name="LFOCKAEDFT"> F  </i>
   <i name="HFSCREEN">      0.00000000</i>
   <i name="HFSCREENC">      0.00000000</i>
   <i type="int" name="NBANDSGWLOW">     0</i>
  </separator>
  <separator name="vdW DFT" >
   <i type="logical" name="LUSE_VDW"> F  </i>
   <i name="Zab_VDW">     -0.84910000</i>
   <i name="PARAM1">      0.12340000</i>
   <i name="PARAM2">      1.00000000</i>
   <i name="PARAM3">      0.00000000</i>
  </separator>
  <separator name="model GW" >
   <i type="int" name="MODEL_GW">     0</i>
   <i name="MODEL_EPS0">     13.52774742</i>
   <i name="MODEL_ALPHA">      1.00000000</i>
  </separator>
  <separator name="linear response parameters" >
   <i type="logical" name="LEPSILON"> F  </i>
   <i type="logical" name="LRPA"> F  </i>
   <i type="logical" name="LNABLA"> F  </i>
   <i type="logical" name="LVEL"> F  </i>
   <i type="int" name="KINTER">     0</i>
   <i name="CSHIFT">      0.10000000</i>
   <i name="OMEGAMAX">     -1.00000000</i>
   <i name="DEG_THRESHOLD">      0.00200000</i>
   <i name="RTIME">     -0.10000000</i>
   <i name="WPLASMAI">      0.00000000</i>
   <v name="DFIELD">      0.00000000      0.00000000      0.00000000</v>
   <v name="WPLASMA">      0.00000000      0.00000000      0.00000000      0.00000000      0.00000000      0.00000000      0.00000000      0.00000000      0.00000000</v>
  </separator>
  <separator name="orbital magnetization" >
   <i type="logical" name="NUCIND"> F  </i>
   <v name="MAGPOS">      0.00000000      0.00000000      0.00000000</v>
   <i type="logical" name="LNICSALL"> T  </i>
   <i type="logical" name="ORBITALMAG"> F  </i>
   <i type="logical" name="LMAGBLOCH"> F  </i>
   <i type="logical" name="LCHIMAG"> F  </i>
   <i type="logical" name="LGAUGE"> T  </i>
   <i type="int" name="MAGATOM">     0</i>
   <v name="MAGDIPOL">      0.00000000      0.00000000      0.00000000</v>
   <v name="AVECCONST">      0.00000000      0.00000000      0.00000000</v>
  </separator>
  <separator name="response functions" >
   <i type="logical" name="LADDER"> F  </i>
   <i type="logical" name="LRPAFORCE"> F  </i>
   <i type="logical" name="LFXC"> F  </i>
   <i type="logical" name="LHARTREE"> T  </i>
   <i type="int" name="IBSE">     0</i>
   <v type="int" name="KPOINT">    -1     0     0     0</v>
   <i type="logical" name="LTCTE"> F  </i>
   <i type="logical" name="LTETE"> F  </i>
   <i type="logical" name="LTRIPLET"> F  </i>
   <i type="logical" name="LFXCEPS"> F  </i>
   <i type="logical" name="LFXHEG"> F  </i>
   <i type="int" name="NATURALO">     2</i>
   <i type="logical" name="L2ORDER"> F  </i>
   <i type="logical" name="LMP2LT"> F  </i>
   <i type="logical" name="LUSEW"> F  </i>
   <i name="ENCUTGW">     -2.00000000</i>
   <i name="ENCUTGWSOFT">     -2.00000000</i>
   <i name="ENCUTLF">     -1.00000000</i>
   <i type="int" name="LMAXMP2">    -1</i>
   <i name="SCISSOR">      0.00000000</i>
   <i type="int" name="NOMEGA">     0</i>
   <i type="int" name="NOMEGAR">     0</i>
   <i type="int" name="NBANDSGW">    -1</i>
   <i type="int" name="NBANDSO">    -1</i>
   <i type="int" name="NBANDSV">    -1</i>
   <i type="int" name="NELM">   100</i>
   <i type="int" name="NELMHF">     1</i>
   <i type="int" name="DIM">     3</i>
   <i type="int" name="ANTIRES">     0</i>
   <i name="OMEGAMAX">    -30.00000000</i>
   <i name="OMEGAMIN">    -30.00000000</i>
   <i name="OMEGATL">   -200.00000000</i>
   <i type="int" name="OMEGAGRID">   140</i>
   <i name="CSHIFT">     -0.10000000</i>
   <i type="logical" name="SELFENERGY"> F  </i>
   <i type="logical" name="LSPECTRAL"> F  </i>
   <i type="logical" name="LSPECTRALGW"> F  </i>
   <i type="logical" name="LSINGLES"> F  </i>
   <i type="logical" name="LFERMIGW"> F  </i>
   <i type="logical" name="ODDONLYGW"> F  </i>
   <i type="logical" name="EVENONLYGW"> F  </i>
   <i type="int" name="NKREDLFX">     1</i>
   <i type="int" name="NKREDLFY">     1</i>
   <i type="int" name="NKREDLFZ">     1</i>
   <i type="int" name="MAXMEM">  2800</i>
   <i type="int" name="TELESCOPE">     0</i>
   <i type="int" name="TAUPAR">     1</i>
   <i type="int" name="OMEGAPAR">    -1</i>
   <i name="LAMBDA">      1.00000000</i>
  </separator>
  <separator name="External order field" >
   <i name="OFIELD_KAPPA">      0.00000000</i>
   <v name="OFIELD_K">      0.00000000      0.00000000      0.00000000</v>
   <i name="OFIELD_Q6_NEAR">      0.00000000</i>
   <i name="OFIELD_Q6_FAR">      0.00000000</i>
   <i name="OFIELD_A">      0.00000000</i>
  </separator>
 </parameters>
 <atominfo>
  <atoms>       3 </atoms>
  <types>       1 </types>
  <array name="atoms" >
   <dimension dim="1">ion</dimension>
   <field type="string">element</field>
   <field type="int">atomtype</field>
   <set>
    <rc><c>Mg</c><c>   1</c></rc>
    <rc><c>Mg</c><c>   1</c></rc>
    <rc><c>Mg</c><c>   1</c></rc>
   </set>
  </array>
  <array name="atomtypes" >
   <dimension dim="1">type</dimension>
   <field type="int">atomspertype</field>
   <field type="string">element</field>
   <field>mass</field>
   <field>valence</field>
   <field type="string">pseudopotential</field>
   <set>
    <rc><c>   3</c><c>Mg</c><c>     24.30500000</c><c>      2.00000000</c><c>  PAW_PBE Mg 13Apr2007                  </c></rc>
   </set>
  </array>
 </atominfo>
 <structure name="initialpos" >
  <crystal>
   <varray name="basis" >
    <v>       1.59726937       0.92218403       7.65329546 </v>
    <v>      -1.59726937       0.92218403       7.65329546 </v>
    <v>       0.00000000      -1.84436806       7.65329546 </v>
   </varray>
   <i name="volume">     67.63873708 </i>
   <varray name="rec_basis" >
    <v>       0.31303424       0.18073038       0.04355422 </v>
    <v>      -0.31303424       0.18073038       0.04355422 </v>
    <v>       0.00000000      -0.36146075       0.04355422 </v>
   </varray>
  </crystal>
  <varray name="positions" >
   <v>       0.00000000       0.00000000       0.00000000 </v>
   <v>       0.22204962       0.22204962       0.22204962 </v>
   <v>       0.77795038       0.77795038       0.77795038 </v>
  </varray>
 </structure>
 <calculation>
  <scstep>
   <time name="dav">    0.26    0.26</time>
   <time name="total">    0.46    0.47</time>
   <energy>
    <i name="alphaZ">      5.98845288 </i>
    <i name="ewald">    -88.32352195 </i>
    <i name="hartreedc">     -0.17945607 </i>
    <i name="XCdc">   -142.78817756 </i>
    <i name="pawpsdc">    175.41199410 </i>
    <i name="pawaedc">    -23.09732408 </i>
    <i name="eentropy">     -0.00581766 </i>
    <i name="bandstr">     -0.53736393 </i>
    <i name="atom">     68.34003023 </i>
    <i name="e_fr_energy">     -5.19118403 </i>
    <i name="e_wo_entrp">     -5.18536637 </i>
    <i name="e_0_energy">     -5.18827520 </i>
   </energy>
  </scstep>
  <scstep>
   <time name="dav">    0.21    0.21</time>
   <time name="total">    0.37    0.37</time>
   <energy>
    <i name="alphaZ">      5.98845288 </i>
    <i name="ewald">    -88.32352195 </i>
    <i name="hartreedc">     -0.17945103 </i>
    <i name="XCdc">   -142.78817719 </i>
    <i name="pawpsdc">    175.41182825 </i>
    <i name="pawaedc">    -23.09715815 </i>
    <i name="eentropy">     -0.00581801 </i>
    <i name="bandstr">     -0.53736896 </i>
    <i name="atom">     68.34003023 </i>
    <i name="e_fr_energy">     -5.19118392 </i>
    <i name="e_wo_entrp">     -5.18536591 </i>
    <i name="e_0_energy">     -5.18827492 </i>
   </energy>
  </scstep>
  <structure>
   <crystal>
    <varray name="basis" >
     <v>       1.59726937       0.92218403       7.65329546 </v>
     <v>      -1.59726937       0.92218403       7.65329546 </v>
     <v>       0.00000000      -1.84436806       7.65329546 </v>
    </varray>
    <i name="volume">     67.63873708 </i>
    <varray name="rec_basis" >
     <v>       0.31303424       0.18073038       0.04355422 </v>
     <v>      -0.31303424       0.18073038       0.04355422 </v>
     <v>       0.00000000      -0.36146075       0.04355422 </v>
    </varray>
   </crystal>
   <varray name="positions" >
    <v>       0.00000000       0.00000000       0.00000000 </v>
    <v>       0.22204962       0.22204962       0.22204962 </v>
    <v>       0.77795038       0.77795038       0.77795038 </v>
   </varray>
  </structure>
  <varray name="forces" >
   <v>       0.00000000      -0.00000000      -0.00000000 </v>
   <v>       0.00000000      -0.00000000       0.00013927 </v>
   <v>       0.00000000       0.00000000      -0.00013927 </v>
  </varray>
  <varray name="stress" >
   <v>      -0.01327871      -0.00000000      -0.00000000 </v>
   <v>       0.00000000      -0.01327872       0.00000000 </v>
   <v>       0.00000000       0.00000000      -0.01488537 </v>
  </varray>
  <energy>
   <i name="e_fr_energy">     -5.19118392 </i>
   <i name="e_wo_entrp">     -5.18827492 </i>
   <i name="e_0_energy">     -0.00581801 </i>
  </energy>
  <time name="totalsc">    1.60    1.71</time>
  <eigenvalues>
   <array>
    <dimension dim="1">band</dimension>
    <dimension dim="2">kpoint</dimension>
    <dimension dim="3">spin</dimension>
    <field>eigene</field>
    <field>occ</field>
    <set>
     <set comment="spin 1">
      <set comment="kpoint 1">
       <r>   -4.3214    1.0000 </r>
       <r>   -1.7849    1.0000 </r>
       <r>   -1.7744    1.0000 </r>
       <r>    5.5429    0.0000 </r>
       <r>    5.5443    0.0000 </r>
       <r>   13.7454    0.0000 </r>
       <r>   13.7454    0.0000 </r>
       <r>   13.8808    0.0000 </r>
       <r>   13.8808    0.0000 </r>
      </set>
      <set comment="kpoint 2">
       <r>   -4.0093    1.0000 </r>
       <r>   -1.6846    1.0000 </r>
       <r>   -1.2684    1.0000 </r>
       <r>    5.4181    0.0000 </r>
       <r>    6.1994    0.0000 </r>
       <r>   10.2172    0.0000 </r>
       <r>   11.1093    0.0000 </r>
       <r>   12.0941    0.0000 </r>
       <r>   12.6344    0.0000 </r>
      </set>
      <set comment="kpoint 3">
       <r>   -3.0792    1.0000 </r>
       <r>   -0.9851    1.0000 </r>
       <r>   -0.1624    1.0000 </r>
       <r>    5.6196    0.0000 </r>
       <r>    6.6814    0.0000 </r>
       <r>    7.2730    0.0000 </r>
       <r>    7.9518    0.0000 </r>
       <r>    9.7500    0.0000 </r>
       <r>   10.8825    0.0000 </r>
      </set>
      <set comment="kpoint 4">
       <r>   -1.5497    1.0000 </r>
       <r>    0.2993    1.0000 </r>
       <r>    1.4911    1.0000 </r>
       <r>    3.2529    0.0000 </r>
       <r>    4.6434    0.0000 </r>
       <r>    6.5616    0.0000 </r>
       <r>    7.0733    0.0000 </r>
       <r>    9.0266    0.0000 </r>
       <r>   10.1917    0.0000 </r>
      </set>
      <set comment="kpoint 5">
       <r>    0.5266    1.0000 </r>
       <r>    0.5577    1.0000 </r>
       <r>    1.8358    1.0000 </r>
       <r>    2.5777    0.8907 </r>
       <r>    3.6611    0.0000 </r>
       <r>    3.9728    0.0000 </r>
       <r>    8.4509    0.0000 </r>
       <r>    8.5738    0.0000 </r>
       <r>   10.0126    0.0000 </r>
      </set>
      <set comment="kpoint 6">
       <r>   -3.9959    1.0000 </r>
       <r>   -1.8803    1.0000 </r>
       <r>   -1.0483    1.0000 </r>
       <r>    5.0430    0.0000 </r>
       <r>    6.5902    0.0000 </r>
       <r>   10.4115    0.0000 </r>
       <r>   10.7809    0.0000 </r>
       <r>   11.9295    0.0000 </r>
       <r>   12.7131    0.0000 </r>
      </set>
      <set comment="kpoint 7">
       <r>   -3.3617    1.0000 </r>
       <r>   -1.4685    1.0000 </r>
       <r>   -0.2303    1.0000 </r>
       <r>    5.1866    0.0000 </r>
       <r>    7.3707    0.0000 </r>
       <r>    8.4029    0.0000 </r>
       <r>    8.9097    0.0000 </r>
       <r>    9.0077    0.0000 </r>
       <r>   10.2174    0.0000 </r>
      </set>
      <set comment="kpoint 8">
       <r>   -2.1191    1.0000 </r>
       <r>   -0.4587    1.0000 </r>
       <r>    1.1619    1.0000 </r>
       <r>    4.7749    0.0000 </r>
       <r>    6.0648    0.0000 </r>
       <r>    6.5180    0.0000 </r>
       <r>    7.3974    0.0000 </r>
       <r>    7.8950    0.0000 </r>
       <r>    8.4487    0.0000 </r>
      </set>
      <set comment="kpoint 9">
       <r>   -0.2943    1.0000 </r>
       <r>    1.1104    1.0000 </r>
       <r>    1.9226    1.0000 </r>
       <r>    3.2080    0.0000 </r>
       <r>    3.8532    0.0000 </r>
       <r>    4.9755    0.0000 </r>
       <r>    6.8084    0.0000 </r>
       <r>    7.2953    0.0000 </r>
       <r>    8.0190    0.0000 </r>
      </set>
      <set comment="kpoint 10">
       <r>   -0.3838    1.0000 </r>
       <r>    1.5976    1.0000 </r>
       <r>    1.9481    1.0000 </r>
       <r>    2.6334    0.6708 </r>
       <r>    3.4046    0.0000 </r>
       <r>    5.6026    0.0000 </r>
       <r>    7.0282    0.0000 </r>
       <r>    7.2944    0.0000 </r>
       <r>    8.7673    0.0000 </r>
      </set>
      <set comment="kpoint 11">
       <r>   -2.1846    1.0000 </r>
       <r>    0.0905    1.0000 </r>
       <r>    0.4967    1.0000 </r>
       <r>    4.9836    0.0000 </r>
       <r>    5.9566    0.0000 </r>
       <r>    7.0257    0.0000 </r>
       <r>    7.2056    0.0000 </r>
       <r>    8.0042    0.0000 </r>
       <r>    8.7627    0.0000 </r>
      </set>
      <set comment="kpoint 12">
       <r>   -3.4015    1.0000 </r>
       <r>   -0.8906    1.0000 </r>
       <r>   -0.8804    1.0000 </r>
       <r>    6.2610    0.0000 </r>
       <r>    6.2928    0.0000 </r>
       <r>    8.4588    0.0000 </r>
       <r>    8.7997    0.0000 </r>
       <r>    9.0499    0.0000 </r>
       <r>   10.0482    0.0000 </r>
      </set>
      <set comment="kpoint 13">
       <r>   -3.0263    1.0000 </r>
       <r>   -1.3477    1.0000 </r>
       <r>    0.2952    1.0000 </r>
       <r>    5.0734    0.0000 </r>
       <r>    6.7244    0.0000 </r>
       <r>    7.0350    0.0000 </r>
       <r>    8.5295    0.0000 </r>
       <r>   10.5710    0.0000 </r>
       <r>   10.7493    0.0000 </r>
      </set>
      <set comment="kpoint 14">
       <r>   -2.0798    1.0000 </r>
       <r>   -0.6255    1.0000 </r>
       <r>    1.3962    1.0000 </r>
       <r>    5.0831    0.0000 </r>
       <r>    5.4895    0.0000 </r>
       <r>    5.8955    0.0000 </r>
       <r>    7.3441    0.0000 </r>
       <r>    8.8819    0.0000 </r>
       <r>    9.7036    0.0000 </r>
      </set>
      <set comment="kpoint 15">
       <r>   -0.5417    1.0000 </r>
       <r>    0.6778    1.0000 </r>
       <r>    2.9479    0.0000 </r>
       <r>    3.9847    0.0000 </r>
       <r>    4.4529    0.0000 </r>
       <r>    4.7315    0.0000 </r>
       <r>    6.0047    0.0000 </r>
       <r>    6.8509    0.0000 </r>
       <r>    7.3620    0.0000 </r>
      </set>
      <set comment="kpoint 16">
       <r>    1.3473    1.0000 </r>
       <r>    1.5441    1.0000 </r>
       <r>    2.4461    0.9990 </r>
       <r>    3.5131    0.0000 </r>
       <r>    3.8267    0.0000 </r>
       <r>    4.1566    0.0000 </r>
       <r>    4.9538    0.0000 </r>
       <r>    5.5875    0.0000 </r>
       <r>    8.2282    0.0000 </r>
      </set>
      <set comment="kpoint 17">
       <r>   -0.6960    1.0000 </r>
       <r>    1.7123    1.0000 </r>
       <r>    1.7158    1.0000 </r>
       <r>    4.1854    0.0000 </r>
       <r>    4.2802    0.0000 </r>
       <r>    4.7776    0.0000 </r>
       <r>    5.4658    0.0000 </r>
       <r>    7.8695    0.0000 </r>
       <r>    8.5737    0.0000 </r>
      </set>
      <set comment="kpoint 18">
       <r>   -1.4326    1.0000 </r>
       <r>   -0.1957    1.0000 </r>
       <r>    2.1580    1.0000 </r>
       <r>    3.6120    0.0000 </r>
       <r>    3.9475    0.0000 </r>
       <r>    5.9685    0.0000 </r>
       <r>    7.8151    0.0000 </r>
       <r>    8.8316    0.0000 </r>
       <r>    9.7577    0.0000 </r>
      </set>
      <set comment="kpoint 19">
       <r>   -0.1920    1.0000 </r>
       <r>    0.8119    1.0000 </r>
       <r>    2.2029    1.0000 </r>
       <r>    2.9422    0.0000 </r>
       <r>    3.7385    0.0000 </r>
       <r>    6.0427    0.0000 </r>
       <r>    6.4897    0.0000 </r>
       <r>    7.1782    0.0000 </r>
       <r>    8.7011    0.0000 </r>
      </set>
      <set comment="kpoint 20">
       <r>    1.5701    1.0000 </r>
       <r>    1.6455    1.0000 </r>
       <r>    2.1428    1.0000 </r>
       <r>    2.7318    0.1713 </r>
       <r>    3.5845    0.0000 </r>
       <r>    5.3544    0.0000 </r>
       <r>    5.9607    0.0000 </r>
       <r>    6.2177    0.0000 </r>
       <r>    6.3178    0.0000 </r>
      </set>
      <set comment="kpoint 21">
       <r>    0.7118    1.0000 </r>
       <r>    0.7761    1.0000 </r>
       <r>    1.3118    1.0000 </r>
       <r>    1.8710    1.0000 </r>
       <r>    4.5959    0.0000 </r>
       <r>    5.0244    0.0000 </r>
       <r>    7.0965    0.0000 </r>
       <r>    7.2096    0.0000 </r>
       <r>    9.4872    0.0000 </r>
      </set>
      <set comment="kpoint 22">
       <r>   -4.2811    1.0000 </r>
       <r>   -2.3689    1.0000 </r>
       <r>   -1.1169    1.0000 </r>
       <r>    4.3981    0.0000 </r>
       <r>    6.7522    0.0000 </r>
       <r>   13.6689    0.0000 </r>
       <r>   13.6689    0.0000 </r>
       <r>   14.0075    0.0000 </r>
       <r>   14.0075    0.0000 </r>
      </set>
      <set comment="kpoint 23">
       <r>   -3.9424    1.0000 </r>
       <r>   -2.2469    1.0000 </r>
       <r>   -0.5844    1.0000 </r>
       <r>    4.3048    0.0000 </r>
       <r>    7.4119    0.0000 </r>
       <r>   10.0891    0.0000 </r>
       <r>   11.4915    0.0000 </r>
       <r>   12.3177    0.0000 </r>
       <r>   12.3411    0.0000 </r>
      </set>
      <set comment="kpoint 24">
       <r>   -2.9866    1.0000 </r>
       <r>   -1.5167    1.0000 </r>
       <r>    0.5360    1.0000 </r>
       <r>    4.6908    0.0000 </r>
       <r>    6.5102    0.0000 </r>
       <r>    7.9719    0.0000 </r>
       <r>    8.7671    0.0000 </r>
       <r>    9.1773    0.0000 </r>
       <r>   10.9654    0.0000 </r>
      </set>
      <set comment="kpoint 25">
       <r>   -1.4326    1.0000 </r>
       <r>   -0.1958    1.0000 </r>
       <r>    2.1607    1.0000 </r>
       <r>    3.1823    0.0000 </r>
       <r>    5.1047    0.0000 </r>
       <r>    5.8975    0.0000 </r>
       <r>    6.1140    0.0000 </r>
       <r>    9.9262    0.0000 </r>
       <r>   10.1160    0.0000 </r>
      </set>
      <set comment="kpoint 26">
       <r>    0.4791    1.0000 </r>
       <r>    0.6783    1.0000 </r>
       <r>    1.6170    1.0000 </r>
       <r>    2.8680    0.0020 </r>
       <r>    3.1552    0.0000 </r>
       <r>    4.5390    0.0000 </r>
       <r>    7.5571    0.0000 </r>
       <r>    9.4835    0.0000 </r>
       <r>    9.6660    0.0000 </r>
      </set>
      <set comment="kpoint 27">
       <r>   -1.5888    1.0000 </r>
       <r>    0.8601    1.0000 </r>
       <r>    0.8674    1.0000 </r>
       <r>    3.4096    0.0000 </r>
       <r>    4.2237    0.0000 </r>
       <r>    7.2559    0.0000 </r>
       <r>    8.0009    0.0000 </r>
       <r>    8.1436    0.0000 </r>
       <r>    9.5156    0.0000 </r>
      </set>
      <set comment="kpoint 28">
       <r>   -3.0925    1.0000 </r>
       <r>   -0.7914    1.0000 </r>
       <r>   -0.3801    1.0000 </r>
       <r>    6.0689    0.0000 </r>
       <r>    6.3479    0.0000 </r>
       <r>    7.2602    0.0000 </r>
       <r>    7.6448    0.0000 </r>
       <r>   10.3327    0.0000 </r>
       <r>   10.6932    0.0000 </r>
      </set>
      <set comment="kpoint 29">
       <r>   -3.9023    1.0000 </r>
       <r>   -2.4176    1.0000 </r>
       <r>   -0.3411    1.0000 </r>
       <r>    3.9496    0.0000 </r>
       <r>    7.8103    0.0000 </r>
       <r>   10.4875    0.0000 </r>
       <r>   10.7031    0.0000 </r>
       <r>   11.8308    0.0000 </r>
       <r>   12.6290    0.0000 </r>
      </set>
      <set comment="kpoint 30">
       <r>   -3.2422    1.0000 </r>
       <r>   -1.9771    1.0000 </r>
       <r>    0.4932    1.0000 </r>
       <r>    4.1423    0.0000 </r>
       <r>    8.1609    0.0000 </r>
       <r>    8.5135    0.0000 </r>
       <r>    8.8192    0.0000 </r>
       <r>    9.3713    0.0000 </r>
       <r>   10.6024    0.0000 </r>
      </set>
      <set comment="kpoint 31">
       <r>   -1.9751    1.0000 </r>
       <r>   -0.9349    1.0000 </r>
       <r>    1.8892    1.0000 </r>
       <r>    4.4523    0.0000 </r>
       <r>    5.4216    0.0000 </r>
       <r>    6.8632    0.0000 </r>
       <r>    7.1979    0.0000 </r>
       <r>    7.8699    0.0000 </r>
       <r>    8.3445    0.0000 </r>
      </set>
      <set comment="kpoint 32">
       <r>   -0.1287    1.0000 </r>
       <r>    0.6791    1.0000 </r>
       <r>    1.9051    1.0000 </r>
       <r>    3.8712    0.0000 </r>
       <r>    4.3797    0.0000 </r>
       <r>    4.4085    0.0000 </r>
       <r>    6.1816    0.0000 </r>
       <r>    7.3204    0.0000 </r>
       <r>    7.7998    0.0000 </r>
      </set>
      <set comment="kpoint 33">
       <r>   -0.3965    1.0000 </r>
       <r>    1.7162    1.0000 </r>
       <r>    2.0915    1.0000 </r>
       <r>    2.4505    0.9988 </r>
       <r>    3.0871    0.0000 </r>
       <r>    6.1698    0.0000 </r>
       <r>    6.8828    0.0000 </r>
       <r>    7.6321    0.0000 </r>
       <r>    8.5994    0.0000 </r>
      </set>
      <set comment="kpoint 34">
       <r>   -2.1715    1.0000 </r>
       <r>   -0.1003    1.0000 </r>
       <r>    0.7103    1.0000 </r>
       <r>    5.2090    0.0000 </r>
       <r>    5.5664    0.0000 </r>
       <r>    6.5599    0.0000 </r>
       <r>    7.5073    0.0000 </r>
       <r>    8.2073    0.0000 </r>
       <r>    9.1417    0.0000 </r>
      </set>
      <set comment="kpoint 35">
       <r>   -2.8808    1.0000 </r>
       <r>   -1.8295    1.0000 </r>
       <r>    1.0356    1.0000 </r>
       <r>    4.0710    0.0000 </r>
       <r>    6.7201    0.0000 </r>
       <r>    7.1636    0.0000 </r>
       <r>    9.6841    0.0000 </r>
       <r>   10.4426    0.0000 </r>
       <r>   10.5157    0.0000 </r>
      </set>
      <set comment="kpoint 36">
       <r>   -1.9097    1.0000 </r>
       <r>   -1.0770    1.0000 </r>
       <r>    2.1384    1.0000 </r>
       <r>    4.3983    0.0000 </r>
       <r>    5.3745    0.0000 </r>
       <r>    5.9058    0.0000 </r>
       <r>    7.2510    0.0000 </r>
       <r>    9.1200    0.0000 </r>
       <r>    9.4394    0.0000 </r>
      </set>
      <set comment="kpoint 37">
       <r>   -0.3494    1.0000 </r>
       <r>    0.2621    1.0000 </r>
       <r>    3.4991    0.0000 </r>
       <r>    3.9562    0.0000 </r>
       <r>    4.3647    0.0000 </r>
       <r>    5.0285    0.0000 </r>
       <r>    5.9007    0.0000 </r>
       <r>    6.5129    0.0000 </r>
       <r>    7.0062    0.0000 </r>
      </set>
      <set comment="kpoint 38">
       <r>    1.3609    1.0000 </r>
       <r>    1.7400    1.0000 </r>
       <r>    2.1257    1.0000 </r>
       <r>    3.3814    0.0000 </r>
       <r>    3.6296    0.0000 </r>
       <r>    4.4335    0.0000 </r>
       <r>    5.2490    0.0000 </r>
       <r>    6.1598    0.0000 </r>
       <r>    7.4864    0.0000 </r>
      </set>
      <set comment="kpoint 39">
       <r>   -0.6574    1.0000 </r>
       <r>    1.1635    1.0000 </r>
       <r>    2.3185    1.0000 </r>
       <r>    4.0708    0.0000 </r>
       <r>    4.4587    0.0000 </r>
       <r>    4.6488    0.0000 </r>
       <r>    5.6585    0.0000 </r>
       <r>    7.4636    0.0000 </r>
       <r>    8.1901    0.0000 </r>
      </set>
      <set comment="kpoint 40">
       <r>   -1.2380    1.0000 </r>
       <r>   -0.6181    1.0000 </r>
       <r>    2.7739    0.0613 </r>
       <r>    3.4937    0.0000 </r>
       <r>    4.3046    0.0000 </r>
       <r>    5.0991    0.0000 </r>
       <r>    7.0924    0.0000 </r>
       <r>    9.4918    0.0000 </r>
       <r>    9.7468    0.0000 </r>
      </set>
      <set comment="kpoint 41">
       <r>    0.0242    1.0000 </r>
       <r>    0.4274    1.0000 </r>
       <r>    2.0489    1.0000 </r>
       <r>    3.3382    0.0000 </r>
       <r>    4.4177    0.0000 </r>
       <r>    5.5774    0.0000 </r>
       <r>    5.6896    0.0000 </r>
       <r>    7.0700    0.0000 </r>
       <r>    8.5793    0.0000 </r>
      </set>
      <set comment="kpoint 42">
       <r>    1.4457    1.0000 </r>
       <r>    1.8386    1.0000 </r>
       <r>    1.9821    1.0000 </r>
       <r>    2.9568    0.0000 </r>
       <r>    3.6032    0.0000 </r>
       <r>    4.9607    0.0000 </r>
       <r>    5.6660    0.0000 </r>
       <r>    6.3744    0.0000 </r>
       <r>    6.7906    0.0000 </r>
      </set>
      <set comment="kpoint 43">
       <r>    1.3879    1.0000 </r>
       <r>    1.4323    1.0000 </r>
       <r>    2.6452    0.6084 </r>
       <r>    3.3345    0.0000 </r>
       <r>    4.0449    0.0000 </r>
       <r>    4.1569    0.0000 </r>
       <r>    4.8975    0.0000 </r>
       <r>    5.2198    0.0000 </r>
       <r>    8.6969    0.0000 </r>
      </set>
      <set comment="kpoint 44">
       <r>    0.5793    1.0000 </r>
       <r>    0.9802    1.0000 </r>
       <r>    1.1357    1.0000 </r>
       <r>    2.1205    1.0000 </r>
       <r>    4.0606    0.0000 </r>
       <r>    5.5141    0.0000 </r>
       <r>    6.4072    0.0000 </r>
       <r>    8.0375    0.0000 </r>
       <r>    9.5206    0.0000 </r>
      </set>
      <set comment="kpoint 45">
       <r>   -0.3325    1.0000 </r>
       <r>    1.2568    1.0000 </r>
       <r>    2.3262    1.0000 </r>
       <r>    2.6322    0.6772 </r>
       <r>    3.1697    0.0000 </r>
       <r>    6.3111    0.0000 </r>
       <r>    6.9789    0.0000 </r>
       <r>    7.4417    0.0000 </r>
       <r>    8.4317    0.0000 </r>
      </set>
      <set comment="kpoint 46">
       <r>   -1.5497    1.0000 </r>
       <r>    0.2995    1.0000 </r>
       <r>    1.4897    1.0000 </r>
       <r>    3.6422    0.0000 </r>
       <r>    3.8757    0.0000 </r>
       <r>    6.9530    0.0000 </r>
       <r>    7.9660    0.0000 </r>
       <r>    8.7288    0.0000 </r>
       <r>    9.2698    0.0000 </r>
      </set>
      <set comment="kpoint 47">
       <r>   -4.1604    1.0000 </r>
       <r>   -2.8828    1.0000 </r>
       <r>   -0.3841    1.0000 </r>
       <r>    3.3199    0.0000 </r>
       <r>    8.0199    0.0000 </r>
       <r>   13.4236    0.0000 </r>
       <r>   13.6002    0.0000 </r>
       <r>   13.6002    0.0000 </r>
       <r>   13.9063    0.0000 </r>
      </set>
      <set comment="kpoint 48">
       <r>   -3.7955    1.0000 </r>
       <r>   -2.7337    1.0000 </r>
       <r>    0.1670    1.0000 </r>
       <r>    3.2585    0.0000 </r>
       <r>    8.6656    0.0000 </r>
       <r>   10.0362    0.0000 </r>
       <r>   11.8986    0.0000 </r>
       <r>   12.0998    0.0000 </r>
       <r>   12.1497    0.0000 </r>
      </set>
      <set comment="kpoint 49">
       <r>   -2.8148    1.0000 </r>
       <r>   -1.9733    1.0000 </r>
       <r>    1.2960    1.0000 </r>
       <r>    3.7334    0.0000 </r>
       <r>    6.4345    0.0000 </r>
       <r>    8.5287    0.0000 </r>
       <r>    8.6040    0.0000 </r>
       <r>    9.8904    0.0000 </r>
       <r>   10.7524    0.0000 </r>
      </set>
      <set comment="kpoint 50">
       <r>   -1.2380    1.0000 </r>
       <r>   -0.6182    1.0000 </r>
       <r>    2.7670    0.0741 </r>
       <r>    3.2670    0.0000 </r>
       <r>    5.0109    0.0000 </r>
       <r>    5.3520    0.0000 </r>
       <r>    5.8301    0.0000 </r>
       <r>    9.9259    0.0000 </r>
       <r>   10.2803    0.0000 </r>
      </set>
      <set comment="kpoint 51">
       <r>    0.4924    1.0000 </r>
       <r>    0.8814    1.0000 </r>
       <r>    1.2782    1.0000 </r>
       <r>    2.5933    0.8438 </r>
       <r>    3.4192    0.0000 </r>
       <r>    5.2563    0.0000 </r>
       <r>    6.6896    0.0000 </r>
       <r>    8.9114    0.0000 </r>
       <r>    9.6209    0.0000 </r>
      </set>
      <set comment="kpoint 52">
       <r>   -3.7288    1.0000 </r>
       <r>   -2.8789    1.0000 </r>
       <r>    0.4302    1.0000 </r>
       <r>    2.9278    0.0001 </r>
       <r>    9.0441    0.0000 </r>
       <r>   10.3171    0.0000 </r>
       <r>   11.0247    0.0000 </r>
       <r>   11.7984    0.0000 </r>
       <r>   12.4022    0.0000 </r>
      </set>
      <set comment="kpoint 53">
       <r>   -3.0434    1.0000 </r>
       <r>   -2.4098    1.0000 </r>
       <r>    1.2725    1.0000 </r>
       <r>    3.1679    0.0000 </r>
       <r>    8.2014    0.0000 </r>
       <r>    8.6127    0.0000 </r>
       <r>    9.1813    0.0000 </r>
       <r>   10.0095    0.0000 </r>
       <r>   10.7310    0.0000 </r>
      </set>
      <set comment="kpoint 54">
       <r>   -1.7530    1.0000 </r>
       <r>   -1.3361    1.0000 </r>
       <r>    2.6556    0.5514 </r>
       <r>    3.8174    0.0000 </r>
       <r>    5.1618    0.0000 </r>
       <r>    6.7488    0.0000 </r>
       <r>    7.1382    0.0000 </r>
       <r>    8.0508    0.0000 </r>
       <r>    8.6116    0.0000 </r>
      </set>
      <set comment="kpoint 55">
       <r>    0.1121    1.0000 </r>
       <r>    0.3160    1.0000 </r>
       <r>    1.9455    1.0000 </r>
       <r>    3.7974    0.0000 </r>
       <r>    4.6015    0.0000 </r>
       <r>    4.9738    0.0000 </r>
       <r>    5.5037    0.0000 </r>
       <r>    7.1213    0.0000 </r>
       <r>    8.1525    0.0000 </r>
      </set>
      <set comment="kpoint 56">
       <r>   -2.6565    1.0000 </r>
       <r>   -2.2352    1.0000 </r>
       <r>    1.8160    1.0000 </r>
       <r>    3.1434    0.0000 </r>
       <r>    6.5515    0.0000 </r>
       <r>    7.5686    0.0000 </r>
       <r>    9.8150    0.0000 </r>
       <r>   10.5275    0.0000 </r>
       <r>   10.8278    0.0000 </r>
      </set>
      <set comment="kpoint 57">
       <r>   -1.6619    1.0000 </r>
       <r>   -1.4528    1.0000 </r>
       <r>    2.8836    0.0010 </r>
       <r>    3.6167    0.0000 </r>
       <r>    5.1872    0.0000 </r>
       <r>    6.2996    0.0000 </r>
       <r>    7.2121    0.0000 </r>
       <r>    8.5229    0.0000 </r>
       <r>    9.0298    0.0000 </r>
      </set>
      <set comment="kpoint 58">
       <r>   -0.0907    1.0000 </r>
       <r>   -0.0714    1.0000 </r>
       <r>    3.7175    0.0000 </r>
       <r>    3.9489    0.0000 </r>
       <r>    4.4295    0.0000 </r>
       <r>    5.2460    0.0000 </r>
       <r>    5.5091    0.0000 </r>
       <r>    6.3519    0.0000 </r>
       <r>    7.3433    0.0000 </r>
      </set>
      <set comment="kpoint 59">
       <r>   -0.9755    1.0000 </r>
       <r>   -0.9567    1.0000 </r>
       <r>    2.9817    0.0000 </r>
       <r>    3.5812    0.0000 </r>
       <r>    4.4824    0.0000 </r>
       <r>    4.8757    0.0000 </r>
       <r>    6.4090    0.0000 </r>
       <r>    9.8029    0.0000 </r>
       <r>   10.0165    0.0000 </r>
      </set>
      <set comment="kpoint 60">
       <r>   -3.9597    1.0000 </r>
       <r>   -3.3199    1.0000 </r>
       <r>    0.4079    1.0000 </r>
       <r>    2.3206    1.0000 </r>
       <r>    9.3409    0.0000 </r>
       <r>   12.0882    0.0000 </r>
       <r>   13.5797    0.0000 </r>
       <r>   13.5797    0.0000 </r>
       <r>   13.7715    0.0000 </r>
      </set>
      <set comment="kpoint 61">
       <r>   -3.5690    1.0000 </r>
       <r>   -3.1435    1.0000 </r>
       <r>    0.9631    1.0000 </r>
       <r>    2.3033    1.0000 </r>
       <r>    9.7911    0.0000 </r>
       <r>   10.1994    0.0000 </r>
       <r>   11.5531    0.0000 </r>
       <r>   11.9329    0.0000 </r>
       <r>   12.1078    0.0000 </r>
      </set>
      <set comment="kpoint 62">
       <r>   -2.5645    1.0000 </r>
       <r>   -2.3532    1.0000 </r>
       <r>    2.0560    1.0000 </r>
       <r>    2.8786    0.0012 </r>
       <r>    6.4523    0.0000 </r>
       <r>    8.0354    0.0000 </r>
       <r>    9.1853    0.0000 </r>
       <r>   10.6063    0.0000 </r>
       <r>   10.8542    0.0000 </r>
      </set>
      <set comment="kpoint 63">
       <r>   -3.4760    1.0000 </r>
       <r>   -3.2627    1.0000 </r>
       <r>    1.2078    1.0000 </r>
       <r>    2.0361    1.0000 </r>
       <r>    9.9123    0.0000 </r>
       <r>   10.5471    0.0000 </r>
       <r>   11.2687    0.0000 </r>
       <r>   11.6086    0.0000 </r>
       <r>   11.8324    0.0000 </r>
      </set>
      <set comment="kpoint 64">
       <r>   -2.7747    1.0000 </r>
       <r>   -2.7566    1.0000 </r>
       <r>    1.8979    1.0000 </r>
       <r>    2.4770    0.9960 </r>
       <r>    8.1952    0.0000 </r>
       <r>    8.5725    0.0000 </r>
       <r>    9.4342    0.0000 </r>
       <r>   10.1106    0.0000 </r>
       <r>   11.2241    0.0000 </r>
      </set>
      <set comment="kpoint 65">
       <r>   -3.6882    1.0000 </r>
       <r>   -3.6702    1.0000 </r>
       <r>    1.0573    1.0000 </r>
       <r>    1.6021    1.0000 </r>
       <r>   10.6940    0.0000 </r>
       <r>   10.7160    0.0000 </r>
       <r>   13.5867    0.0000 </r>
       <r>   13.5867    0.0000 </r>
       <r>   13.7102    0.0000 </r>
      </set>
     </set>
    </set>
   </array>
  </eigenvalues>
  <separator name="orbital magnetization" >
   <v name="MAGDIPOLOUT">      0.00000000      0.00000000      0.00000000</v>
  </separator>
  <dos>
   <i name="efermi">      2.66470277 </i>
   <total>
    <array>
     <dimension dim="1">gridpoints</dimension>
     <dimension dim="2">spin</dimension>
     <field>energy</field>
     <field>total</field>
     <field>integrated</field>
     <set>
      <set comment="spin 1">
       <r>    -5.3214     0.0000     0.0000 </r>
       <r>    -5.2536     0.0000     0.0000 </r>
       <r>    -5.1858     0.0000     0.0000 </r>
       <r>    -5.1181     0.0000     0.0000 </r>
       <r>    -5.0503     0.0000     0.0000 </r>
       <r>    -4.9825     0.0000     0.0000 </r>
       <r>    -4.9148     0.0000     0.0000 </r>
       <r>    -4.8470     0.0000     0.0000 </r>
       <r>    -4.7793     0.0000     0.0000 </r>
       <r>    -4.7115     0.0000     0.0000 </r>
       <r>    -4.6437     0.0000     0.0000 </r>
       <r>    -4.5760     0.0000     0.0000 </r>
       <r>    -4.5082     0.0003     0.0000 </r>
       <r>    -4.4404     0.0037     0.0003 </r>
       <r>    -4.3727     0.0208     0.0017 </r>
       <r>    -4.3049     0.0540     0.0053 </r>
       <r>    -4.2372     0.0728     0.0103 </r>
       <r>    -4.1694     0.0725     0.0152 </r>
       <r>    -4.1016     0.1040     0.0222 </r>
       <r>    -4.0339     0.2458     0.0389 </r>
       <r>    -3.9661     0.4430     0.0689 </r>
       <r>    -3.8983     0.4695     0.1007 </r>
       <r>    -3.8306     0.3531     0.1247 </r>
       <r>    -3.7628     0.2951     0.1446 </r>
       <r>    -3.6951     0.2678     0.1628 </r>
       <r>    -3.6273     0.2123     0.1772 </r>
       <r>    -3.5595     0.2095     0.1914 </r>
       <r>    -3.4918     0.2688     0.2096 </r>
       <r>    -3.4240     0.3819     0.2355 </r>
       <r>    -3.3562     0.5219     0.2708 </r>
       <r>    -3.2885     0.5892     0.3108 </r>
       <r>    -3.2207     0.5769     0.3499 </r>
       <r>    -3.1530     0.5503     0.3871 </r>
       <r>    -3.0852     0.6668     0.4323 </r>
       <r>    -3.0174     0.7762     0.4849 </r>
       <r>    -2.9497     0.6501     0.5290 </r>
       <r>    -2.8819     0.5481     0.5661 </r>
       <r>    -2.8141     0.5999     0.6068 </r>
       <r>    -2.7464     0.6195     0.6488 </r>
       <r>    -2.6786     0.4997     0.6826 </r>
       <r>    -2.6109     0.3365     0.7054 </r>
       <r>    -2.5431     0.2529     0.7226 </r>
       <r>    -2.4753     0.2958     0.7426 </r>
       <r>    -2.4076     0.4811     0.7752 </r>
       <r>    -2.3398     0.5671     0.8136 </r>
       <r>    -2.2720     0.5641     0.8519 </r>
       <r>    -2.2043     0.7810     0.9048 </r>
       <r>    -2.1365     1.0112     0.9733 </r>
       <r>    -2.0687     0.9874     1.0402 </r>
       <r>    -2.0010     0.9608     1.1053 </r>
       <r>    -1.9332     1.0277     1.1750 </r>
       <r>    -1.8655     0.8932     1.2355 </r>
       <r>    -1.7977     0.6806     1.2816 </r>
       <r>    -1.7299     0.6402     1.3250 </r>
       <r>    -1.6622     0.6878     1.3716 </r>
       <r>    -1.5944     0.7329     1.4212 </r>
       <r>    -1.5266     0.8776     1.4807 </r>
       <r>    -1.4589     1.0752     1.5536 </r>
       <r>    -1.3911     1.0536     1.6250 </r>
       <r>    -1.3234     0.8619     1.6834 </r>
       <r>    -1.2556     0.7037     1.7311 </r>
       <r>    -1.1878     0.5253     1.7667 </r>
       <r>    -1.1201     0.4381     1.7963 </r>
       <r>    -1.0523     0.5936     1.8366 </r>
       <r>    -0.9845     0.8190     1.8921 </r>
       <r>    -0.9168     0.9084     1.9536 </r>
       <r>    -0.8490     0.7198     2.0024 </r>
       <r>    -0.7813     0.4672     2.0341 </r>
       <r>    -0.7135     0.5179     2.0692 </r>
       <r>    -0.6457     0.8886     2.1294 </r>
       <r>    -0.5780     1.1035     2.2041 </r>
       <r>    -0.5102     0.9642     2.2695 </r>
       <r>    -0.4424     1.0079     2.3378 </r>
       <r>    -0.3747     1.4306     2.4347 </r>
       <r>    -0.3069     1.6336     2.5454 </r>
       <r>    -0.2392     1.4732     2.6453 </r>
       <r>    -0.1714     1.4249     2.7418 </r>
       <r>    -0.1036     1.3474     2.8331 </r>
       <r>    -0.0359     1.0222     2.9024 </r>
       <r>     0.0319     0.7749     2.9549 </r>
       <r>     0.0997     0.7909     3.0085 </r>
       <r>     0.1674     0.7612     3.0601 </r>
       <r>     0.2352     0.7528     3.1111 </r>
       <r>     0.3029     0.9546     3.1758 </r>
       <r>     0.3707     1.0325     3.2457 </r>
       <r>     0.4385     1.1352     3.3226 </r>
       <r>     0.5062     1.3630     3.4150 </r>
       <r>     0.5740     1.2398     3.4990 </r>
       <r>     0.6418     1.0547     3.5705 </r>
       <r>     0.7095     1.1384     3.6476 </r>
       <r>     0.7773     1.0502     3.7188 </r>
       <r>     0.8451     0.8645     3.7774 </r>
       <r>     0.9128     0.7381     3.8274 </r>
       <r>     0.9806     0.6142     3.8690 </r>
       <r>     1.0483     0.6290     3.9116 </r>
       <r>     1.1161     0.8868     3.9717 </r>
       <r>     1.1839     1.2173     4.0542 </r>
       <r>     1.2516     1.3984     4.1490 </r>
       <r>     1.3194     1.5348     4.2530 </r>
       <r>     1.3872     1.5871     4.3605 </r>
       <r>     1.4549     1.4468     4.4586 </r>
       <r>     1.5227     1.2369     4.5424 </r>
       <r>     1.5904     1.1513     4.6204 </r>
       <r>     1.6582     1.1343     4.6973 </r>
       <r>     1.7260     1.1584     4.7758 </r>
       <r>     1.7937     1.2101     4.8578 </r>
       <r>     1.8615     1.4742     4.9577 </r>
       <r>     1.9293     1.8878     5.0856 </r>
       <r>     1.9970     1.8956     5.2140 </r>
       <r>     2.0648     1.7412     5.3320 </r>
       <r>     2.1325     1.7832     5.4528 </r>
       <r>     2.2003     1.5487     5.5578 </r>
       <r>     2.2681     1.0946     5.6320 </r>
       <r>     2.3358     0.9355     5.6954 </r>
       <r>     2.4036     0.8943     5.7560 </r>
       <r>     2.4714     0.8446     5.8132 </r>
       <r>     2.5391     0.7905     5.8668 </r>
       <r>     2.6069     0.9616     5.9319 </r>
       <r>     2.6746     1.1731     6.0114 </r>
       <r>     2.7424     0.9762     6.0776 </r>
       <r>     2.8102     0.7949     6.1314 </r>
       <r>     2.8779     1.0360     6.2016 </r>
       <r>     2.9457     1.3989     6.2964 </r>
       <r>     3.0135     1.2564     6.3816 </r>
       <r>     3.0812     0.9685     6.4472 </r>
       <r>     3.1490     1.2061     6.5289 </r>
       <r>     3.2167     1.4961     6.6303 </r>
       <r>     3.2845     1.3922     6.7246 </r>
       <r>     3.3523     1.3185     6.8140 </r>
       <r>     3.4200     1.3745     6.9071 </r>
       <r>     3.4878     1.3552     6.9989 </r>
       <r>     3.5556     1.4593     7.0978 </r>
       <r>     3.6233     1.6612     7.2104 </r>
       <r>     3.6911     1.5696     7.3167 </r>
       <r>     3.7588     1.4414     7.4144 </r>
       <r>     3.8266     1.6352     7.5252 </r>
       <r>     3.8944     1.7591     7.6444 </r>
       <r>     3.9621     1.6576     7.7568 </r>
       <r>     4.0299     1.5038     7.8587 </r>
       <r>     4.0977     1.3840     7.9524 </r>
       <r>     4.1654     1.2913     8.0399 </r>
       <r>     4.2332     1.0934     8.1140 </r>
       <r>     4.3010     1.0989     8.1885 </r>
       <r>     4.3687     1.7366     8.3062 </r>
       <r>     4.4365     2.4618     8.4730 </r>
       <r>     4.5042     2.1709     8.6201 </r>
       <r>     4.5720     1.3434     8.7111 </r>
       <r>     4.6398     1.0495     8.7822 </r>
       <r>     4.7075     1.0512     8.8535 </r>
       <r>     4.7753     0.9647     8.9189 </r>
       <r>     4.8431     0.8402     8.9758 </r>
       <r>     4.9108     1.1047     9.0506 </r>
       <r>     4.9786     1.8156     9.1737 </r>
       <r>     5.0463     2.1300     9.3180 </r>
       <r>     5.1141     1.9134     9.4477 </r>
       <r>     5.1819     1.8331     9.5719 </r>
       <r>     5.2496     1.7537     9.6907 </r>
       <r>     5.3174     1.3628     9.7831 </r>
       <r>     5.3852     1.1990     9.8643 </r>
       <r>     5.4529     1.4264     9.9610 </r>
       <r>     5.5207     1.7752    10.0813 </r>
       <r>     5.5884     2.0184    10.2180 </r>
       <r>     5.6562     1.8593    10.3440 </r>
       <r>     5.7240     1.2430    10.4283 </r>
       <r>     5.7917     0.7006    10.4757 </r>
       <r>     5.8595     0.8682    10.5346 </r>
       <r>     5.9273     1.4573    10.6333 </r>
       <r>     5.9950     1.6840    10.7474 </r>
       <r>     6.0628     1.5549    10.8528 </r>
       <r>     6.1305     1.4699    10.9524 </r>
       <r>     6.1983     1.5181    11.0553 </r>
       <r>     6.2661     1.5640    11.1612 </r>
       <r>     6.3338     1.6552    11.2734 </r>
       <r>     6.4016     1.6622    11.3860 </r>
       <r>     6.4694     1.6630    11.4987 </r>
       <r>     6.5371     1.7403    11.6166 </r>
       <r>     6.6049     1.4512    11.7150 </r>
       <r>     6.6726     1.0681    11.7874 </r>
       <r>     6.7404     1.1785    11.8672 </r>
       <r>     6.8082     1.4629    11.9664 </r>
       <r>     6.8759     1.5077    12.0685 </r>
       <r>     6.9437     1.4369    12.1659 </r>
       <r>     7.0115     1.6900    12.2804 </r>
       <r>     7.0792     2.0612    12.4201 </r>
       <r>     7.1470     2.2543    12.5728 </r>
       <r>     7.2147     2.4917    12.7417 </r>
       <r>     7.2825     2.6764    12.9230 </r>
       <r>     7.3503     2.6285    13.1012 </r>
       <r>     7.4180     2.3116    13.2578 </r>
       <r>     7.4858     1.8391    13.3824 </r>
       <r>     7.5536     1.3376    13.4731 </r>
       <r>     7.6213     0.9120    13.5349 </r>
       <r>     7.6891     0.6178    13.5767 </r>
       <r>     7.7569     0.5586    13.6146 </r>
       <r>     7.8246     0.8823    13.6744 </r>
       <r>     7.8924     1.2447    13.7587 </r>
       <r>     7.9601     1.4910    13.8597 </r>
       <r>     8.0279     1.7053    13.9753 </r>
       <r>     8.0957     1.6758    14.0888 </r>
       <r>     8.1634     1.7495    14.2074 </r>
       <r>     8.2312     1.7839    14.3283 </r>
       <r>     8.2990     1.2550    14.4133 </r>
       <r>     8.3667     0.9645    14.4787 </r>
       <r>     8.4345     1.3135    14.5677 </r>
       <r>     8.5022     1.8314    14.6918 </r>
       <r>     8.5700     2.2480    14.8441 </r>
       <r>     8.6378     2.2529    14.9968 </r>
       <r>     8.7055     1.8930    15.1251 </r>
       <r>     8.7733     1.7212    15.2417 </r>
       <r>     8.8411     1.5951    15.3498 </r>
       <r>     8.9088     1.3297    15.4399 </r>
       <r>     8.9766     1.1672    15.5190 </r>
       <r>     9.0443     1.2446    15.6033 </r>
       <r>     9.1121     1.3205    15.6928 </r>
       <r>     9.1799     1.2368    15.7766 </r>
       <r>     9.2476     0.9063    15.8380 </r>
       <r>     9.3154     0.5923    15.8782 </r>
       <r>     9.3832     0.6582    15.9228 </r>
       <r>     9.4509     0.9250    15.9855 </r>
       <r>     9.5187     0.9790    16.0518 </r>
       <r>     9.5864     0.7569    16.1031 </r>
       <r>     9.6542     0.7266    16.1523 </r>
       <r>     9.7220     0.9902    16.2194 </r>
       <r>     9.7897     1.1077    16.2945 </r>
       <r>     9.8575     0.9656    16.3599 </r>
       <r>     9.9253     0.8923    16.4204 </r>
       <r>     9.9930     1.0006    16.4882 </r>
       <r>    10.0608     1.0967    16.5625 </r>
       <r>    10.1285     1.0347    16.6326 </r>
       <r>    10.1963     0.9813    16.6991 </r>
       <r>    10.2641     0.9315    16.7622 </r>
       <r>    10.3318     0.7446    16.8127 </r>
       <r>    10.3996     0.5981    16.8532 </r>
       <r>    10.4674     0.6632    16.8982 </r>
       <r>    10.5351     0.8798    16.9578 </r>
       <r>    10.6029     1.0075    17.0261 </r>
       <r>    10.6706     1.0068    17.0943 </r>
       <r>    10.7384     1.0702    17.1668 </r>
       <r>    10.8062     1.0107    17.2353 </r>
       <r>    10.8739     0.7419    17.2856 </r>
       <r>    10.9417     0.4943    17.3191 </r>
       <r>    11.0095     0.3663    17.3439 </r>
       <r>    11.0772     0.3063    17.3646 </r>
       <r>    11.1450     0.2618    17.3824 </r>
       <r>    11.2128     0.2629    17.4002 </r>
       <r>    11.2805     0.2672    17.4183 </r>
       <r>    11.3483     0.1750    17.4302 </r>
       <r>    11.4160     0.1028    17.4371 </r>
       <r>    11.4838     0.1754    17.4490 </r>
       <r>    11.5516     0.2926    17.4688 </r>
       <r>    11.6193     0.2958    17.4889 </r>
       <r>    11.6871     0.1994    17.5024 </r>
       <r>    11.7549     0.2157    17.5170 </r>
       <r>    11.8226     0.4285    17.5460 </r>
       <r>    11.8904     0.5960    17.5864 </r>
       <r>    11.9581     0.5438    17.6233 </r>
       <r>    12.0259     0.4240    17.6520 </r>
       <r>    12.0937     0.4953    17.6856 </r>
       <r>    12.1614     0.5292    17.7214 </r>
       <r>    12.2292     0.3385    17.7444 </r>
       <r>    12.2970     0.2646    17.7623 </r>
       <r>    12.3647     0.3400    17.7853 </r>
       <r>    12.4325     0.2926    17.8052 </r>
       <r>    12.5002     0.1537    17.8156 </r>
       <r>    12.5680     0.1429    17.8253 </r>
       <r>    12.6358     0.2783    17.8441 </r>
       <r>    12.7035     0.3298    17.8665 </r>
       <r>    12.7713     0.2110    17.8808 </r>
       <r>    12.8391     0.0737    17.8858 </r>
       <r>    12.9068     0.0130    17.8866 </r>
       <r>    12.9746     0.0011    17.8867 </r>
       <r>    13.0423     0.0000    17.8867 </r>
       <r>    13.1101     0.0000    17.8867 </r>
       <r>    13.1779     0.0000    17.8867 </r>
       <r>    13.2456     0.0007    17.8868 </r>
       <r>    13.3134     0.0062    17.8872 </r>
       <r>    13.3812     0.0257    17.8889 </r>
       <r>    13.4489     0.0555    17.8927 </r>
       <r>    13.5167     0.1091    17.9001 </r>
       <r>    13.5844     0.2201    17.9150 </r>
       <r>    13.6522     0.2874    17.9345 </r>
       <r>    13.7200     0.2463    17.9512 </r>
       <r>    13.7877     0.1771    17.9632 </r>
       <r>    13.8555     0.1323    17.9721 </r>
       <r>    13.9233     0.1267    17.9807 </r>
       <r>    13.9910     0.1278    17.9894 </r>
       <r>    14.0588     0.1004    17.9962 </r>
       <r>    14.1266     0.0457    17.9993 </r>
       <r>    14.1943     0.0098    17.9999 </r>
       <r>    14.2621     0.0009    18.0000 </r>
       <r>    14.3298     0.0000    18.0000 </r>
       <r>    14.3976     0.0000    18.0000 </r>
       <r>    14.4654     0.0000    18.0000 </r>
       <r>    14.5331     0.0000    18.0000 </r>
       <r>    14.6009     0.0000    18.0000 </r>
       <r>    14.6687     0.0000    18.0000 </r>
       <r>    14.7364     0.0000    18.0000 </r>
       <r>    14.8042     0.0000    18.0000 </r>
       <r>    14.8719     0.0000    18.0000 </r>
       <r>    14.9397     0.0000    18.0000 </r>
       <r>    15.0075     0.0000    18.0000 </r>
      </set>
     </set>
    </array>
   </total>
  </dos>
 </calculation>
 <structure name="finalpos" >
  <crystal>
   <varray name="basis" >
    <v>       1.59726937       0.92218403       7.65329546 </v>
    <v>      -1.59726937       0.92218403       7.65329546 </v>
    <v>       0.00000000      -1.84436806       7.65329546 </v>
   </varray>
   <i name="volume">     67.63873708 </i>
   <varray name="rec_basis" >
    <v>       0.31303424       0.18073038       0.04355422 </v>
    <v>      -0.31303424       0.18073038       0.04355422 </v>
    <v>       0.00000000      -0.36146075       0.04355422 </v>
   </varray>
  </crystal>
  <varray name="positions" >
   <v>       0.00000000       0.00000000       0.00000000 </v>
   <v>       0.22204962       0.22204962       0.22204962 </v>
   <v>       0.77795038       0.77795038       0.77795038 </v>
  </varray>
 </structure>
</modeling>
