       N       E                     dE             d eps       ncg     rms          ort
DAV:   1     0.159041025898E+03    0.15904E+03   -0.30570E+03    36   0.217E+02
DAV:   2     0.866533624615E+02   -0.72388E+02   -0.72388E+02    36   0.243E+01
DAV:   3     0.898005354274E+01   -0.77673E+02   -0.77673E+02    36   0.527E+01
DAV:   4     0.792348852456E+00   -0.81877E+01   -0.81877E+01    36   0.229E+01
DAV:   5     0.859885089473E-01   -0.70636E+00   -0.70636E+00    36   0.636E+00
SDA:   6     0.368872575275E-01   -0.49101E-01   -0.17132E+00    36   0.428E+00 0.000E+00
DMP:   7    -0.376889490464E-01   -0.74576E-01   -0.73331E-01    36   0.206E+00-0.596E-01
DMP:   8    -0.712576447988E-01   -0.33569E-01   -0.19594E-01    36   0.565E-01-0.196E-01
DMP:   9    -0.751479398557E-01   -0.38903E-02   -0.17504E-01    36   0.557E-01-0.313E-01
DMP:  10    -0.825366461472E-01   -0.73887E-02   -0.54352E-02    36   0.164E-01-0.725E-02
DMP:  11    -0.853987584940E-01   -0.28621E-02   -0.19127E-02    36   0.455E-02 0.606E-03
DMP:  12    -0.866243647167E-01   -0.12256E-02   -0.85681E-03    36   0.165E-02 0.129E-02
DMP:  13    -0.871515056225E-01   -0.52714E-03   -0.48238E-03    36   0.103E-02 0.461E-03
DMP:  14    -0.874866943536E-01   -0.33519E-03   -0.17291E-03    36   0.260E-03 0.450E-03
DMP:  15    -0.876156384645E-01   -0.12894E-03   -0.11116E-03    36   0.202E-03 0.200E-03
DMP:  16    -0.877030397742E-01   -0.87401E-04   -0.52063E-04    36   0.727E-04 0.150E-03
DMP:  17    -0.877444965201E-01   -0.41457E-04   -0.26392E-04    36   0.389E-04 0.709E-04
   1 F= -.87744497E-01 E0= -.87744497E-01  d E =-.877445E-01  mag=     0.0000
