   2   2   1   0
  0.9573706E+01  0.3002906E-09  0.3002906E-09  0.3002906E-09  0.5000000E-15
  1.000000000000000E-004
  CAR 
 unknown system                          
     50.56135080    -17.21523850  301      3.58370234      1.00000000
    -17.215  0.0000E+00  0.0000E+00
    -16.989  0.0000E+00  0.0000E+00
    -16.763  0.0000E+00  0.0000E+00
    -16.537  0.0000E+00  0.0000E+00
    -16.312  0.0000E+00  0.0000E+00
    -16.086  0.0000E+00  0.0000E+00
    -15.860  0.0000E+00  0.0000E+00
    -15.634  0.0000E+00  0.0000E+00
    -15.408  0.0000E+00  0.0000E+00
    -15.182  0.0000E+00  0.0000E+00
    -14.956  0.0000E+00  0.0000E+00
    -14.730  0.0000E+00  0.0000E+00
    -14.504  0.1517E-10  0.3428E-11
    -14.278  0.4143E-05  0.9360E-06
    -14.052  0.9681E-03  0.2196E-03
    -13.826  0.4655E-02  0.1271E-02
    -13.600  0.7734E-02  0.3019E-02
    -13.375  0.1326E-01  0.6015E-02
    -13.149  0.1939E-01  0.1040E-01
    -12.923  0.3422E-01  0.1813E-01
    -12.697  0.6536E-01  0.3289E-01
    -12.471  0.3129E-01  0.3996E-01
    -12.245  0.1686E-03  0.4000E-01
    -12.019  0.2551E-09  0.4000E-01
    -11.793  0.0000E+00  0.4000E-01
    -11.567  0.0000E+00  0.4000E-01
    -11.341  0.0000E+00  0.4000E-01
    -11.115  0.0000E+00  0.4000E-01
    -10.889  0.0000E+00  0.4000E-01
    -10.664  0.0000E+00  0.4000E-01
    -10.438  0.0000E+00  0.4000E-01
    -10.212  0.0000E+00  0.4000E-01
     -9.986  0.0000E+00  0.4000E-01
     -9.760  0.0000E+00  0.4000E-01
     -9.534  0.0000E+00  0.4000E-01
     -9.308  0.0000E+00  0.4000E-01
     -9.082  0.0000E+00  0.4000E-01
     -8.856  0.0000E+00  0.4000E-01
     -8.630  0.0000E+00  0.4000E-01
     -8.404  0.0000E+00  0.4000E-01
     -8.178  0.0000E+00  0.4000E-01
     -7.952  0.0000E+00  0.4000E-01
     -7.727  0.0000E+00  0.4000E-01
     -7.501  0.0000E+00  0.4000E-01
     -7.275  0.0000E+00  0.4000E-01
     -7.049  0.0000E+00  0.4000E-01
     -6.823  0.0000E+00  0.4000E-01
     -6.597  0.0000E+00  0.4000E-01
     -6.371  0.0000E+00  0.4000E-01
     -6.145  0.0000E+00  0.4000E-01
     -5.919  0.0000E+00  0.4000E-01
     -5.693  0.0000E+00  0.4000E-01
     -5.467  0.0000E+00  0.4000E-01
     -5.241  0.0000E+00  0.4000E-01
     -5.015  0.0000E+00  0.4000E-01
     -4.790  0.0000E+00  0.4000E-01
     -4.564  0.0000E+00  0.4000E-01
     -4.338  0.0000E+00  0.4000E-01
     -4.112  0.0000E+00  0.4000E-01
     -3.886  0.0000E+00  0.4000E-01
     -3.660  0.0000E+00  0.4000E-01
     -3.434  0.0000E+00  0.4000E-01
     -3.208  0.0000E+00  0.4000E-01
     -2.982  0.0000E+00  0.4000E-01
     -2.756  0.0000E+00  0.4000E-01
     -2.530  0.0000E+00  0.4000E-01
     -2.304  0.0000E+00  0.4000E-01
     -2.078  0.1966E-18  0.4000E-01
     -1.853  0.3128E-09  0.4000E-01
     -1.627  0.3026E-04  0.4001E-01
     -1.401  0.1392E-02  0.4032E-01
     -1.175  0.8025E-02  0.4213E-01
     -0.949  0.1041E-01  0.4449E-01
     -0.723  0.2619E-01  0.5040E-01
     -0.497  0.4921E-01  0.6152E-01
     -0.271  0.2869E-01  0.6800E-01
     -0.045  0.2162E-01  0.7289E-01
      0.181  0.1043E-01  0.7524E-01
      0.407  0.1233E-01  0.7803E-01
      0.633  0.1431E-01  0.8126E-01
      0.859  0.2687E-01  0.8733E-01
      1.084  0.1088E-01  0.8979E-01
      1.310  0.2247E-01  0.9487E-01
      1.536  0.3032E-01  0.1017E+00
      1.762  0.4108E-01  0.1110E+00
      1.988  0.5181E-01  0.1227E+00
      2.214  0.5421E-01  0.1350E+00
      2.440  0.5682E-01  0.1478E+00
      2.666  0.3179E-01  0.1550E+00
      2.892  0.1767E-01  0.1590E+00
      3.118  0.4545E-02  0.1600E+00
      3.344  0.4786E-04  0.1600E+00
      3.570  0.4496E-09  0.1600E+00
      3.796  0.3538E-18  0.1600E+00
      4.021  0.0000E+00  0.1600E+00
      4.247  0.0000E+00  0.1600E+00
      4.473  0.0000E+00  0.1600E+00
      4.699  0.0000E+00  0.1600E+00
      4.925  0.0000E+00  0.1600E+00
      5.151  0.0000E+00  0.1600E+00
      5.377  0.0000E+00  0.1600E+00
      5.603  0.0000E+00  0.1600E+00
      5.829  0.0000E+00  0.1600E+00
      6.055  0.0000E+00  0.1600E+00
      6.281  0.0000E+00  0.1600E+00
      6.507  0.0000E+00  0.1600E+00
      6.732  0.0000E+00  0.1600E+00
      6.958  0.2752E-17  0.1600E+00
      7.184  0.9644E-09  0.1600E+00
      7.410  0.2025E-04  0.1600E+00
      7.636  0.1527E-03  0.1600E+00
      7.862  0.4238E-05  0.1600E+00
      8.088  0.4126E-03  0.1601E+00
      8.314  0.1439E-02  0.1605E+00
      8.540  0.6258E-03  0.1606E+00
      8.766  0.2710E-04  0.1606E+00
      8.992  0.1730E-02  0.1610E+00
      9.218  0.7034E-03  0.1612E+00
      9.444  0.5040E-02  0.1623E+00
      9.669  0.2916E-03  0.1624E+00
      9.895  0.1669E-03  0.1624E+00
     10.121  0.4061E-02  0.1633E+00
     10.347  0.5969E-02  0.1647E+00
     10.573  0.5077E-02  0.1658E+00
     10.799  0.2200E-02  0.1663E+00
     11.025  0.9631E-02  0.1685E+00
     11.251  0.1215E-01  0.1712E+00
     11.477  0.9770E-02  0.1734E+00
     11.703  0.1721E-02  0.1738E+00
     11.929  0.1476E-01  0.1772E+00
     12.155  0.1291E-01  0.1801E+00
     12.381  0.1152E-01  0.1827E+00
     12.606  0.1142E-01  0.1853E+00
     12.832  0.1586E-01  0.1888E+00
     13.058  0.3010E-01  0.1956E+00
     13.284  0.1957E-01  0.2001E+00
     13.510  0.5071E-02  0.2012E+00
     13.736  0.4279E-02  0.2022E+00
     13.962  0.1827E-01  0.2063E+00
     14.188  0.2477E-01  0.2119E+00
     14.414  0.8443E-02  0.2138E+00
     14.640  0.1618E-01  0.2175E+00
     14.866  0.3959E-01  0.2264E+00
     15.092  0.3895E-01  0.2352E+00
     15.318  0.2086E-01  0.2399E+00
     15.543  0.1913E-01  0.2442E+00
     15.769  0.1899E-01  0.2485E+00
     15.995  0.2214E-01  0.2535E+00
     16.221  0.6683E-02  0.2550E+00
     16.447  0.1070E-01  0.2575E+00
     16.673  0.1040E-01  0.2598E+00
     16.899  0.5865E-02  0.2611E+00
     17.125  0.1715E-01  0.2650E+00
     17.351  0.5313E-02  0.2662E+00
     17.577  0.1230E-02  0.2665E+00
     17.803  0.7012E-02  0.2681E+00
     18.029  0.7472E-02  0.2698E+00
     18.255  0.9566E-02  0.2719E+00
     18.480  0.6866E-02  0.2735E+00
     18.706  0.8647E-02  0.2754E+00
     18.932  0.1203E-01  0.2781E+00
     19.158  0.1088E-01  0.2806E+00
     19.384  0.2479E-01  0.2862E+00
     19.610  0.2689E-01  0.2923E+00
     19.836  0.3726E-01  0.3007E+00
     20.062  0.3222E-01  0.3080E+00
     20.288  0.2010E-01  0.3125E+00
     20.514  0.1664E-01  0.3163E+00
     20.740  0.1292E-01  0.3192E+00
     20.966  0.8236E-02  0.3211E+00
     21.191  0.1564E-01  0.3246E+00
     21.417  0.2235E-01  0.3296E+00
     21.643  0.1934E-01  0.3340E+00
     21.869  0.6507E-02  0.3355E+00
     22.095  0.1186E-01  0.3382E+00
     22.321  0.1233E-01  0.3409E+00
     22.547  0.1094E-01  0.3434E+00
     22.773  0.1814E-01  0.3475E+00
     22.999  0.1621E-01  0.3512E+00
     23.225  0.8859E-02  0.3532E+00
     23.451  0.1310E-01  0.3561E+00
     23.677  0.1203E-01  0.3589E+00
     23.903  0.9545E-02  0.3610E+00
     24.128  0.8054E-02  0.3628E+00
     24.354  0.1904E-01  0.3671E+00
     24.580  0.2443E-01  0.3727E+00
     24.806  0.1245E-01  0.3755E+00
     25.032  0.1784E-01  0.3795E+00
     25.258  0.2056E-01  0.3841E+00
     25.484  0.1415E-01  0.3873E+00
     25.710  0.1424E-01  0.3906E+00
     25.936  0.1486E-01  0.3939E+00
     26.162  0.6850E-02  0.3955E+00
     26.388  0.1712E-01  0.3993E+00
     26.614  0.6192E-02  0.4007E+00
     26.840  0.5346E-02  0.4019E+00
     27.065  0.1525E-02  0.4023E+00
     27.291  0.4109E-02  0.4032E+00
     27.517  0.2818E-01  0.4096E+00
     27.743  0.1789E-01  0.4136E+00
     27.969  0.1213E-01  0.4164E+00
     28.195  0.7382E-02  0.4180E+00
     28.421  0.9767E-02  0.4202E+00
     28.647  0.1308E-01  0.4232E+00
     28.873  0.9101E-02  0.4252E+00
     29.099  0.6928E-02  0.4268E+00
     29.325  0.1312E-01  0.4298E+00
     29.551  0.2248E-01  0.4349E+00
     29.777  0.1853E-01  0.4390E+00
     30.002  0.1751E-01  0.4430E+00
     30.228  0.3003E-01  0.4498E+00
     30.454  0.1140E-01  0.4524E+00
     30.680  0.2170E-01  0.4573E+00
     30.906  0.2018E-01  0.4618E+00
     31.132  0.3274E-01  0.4692E+00
     31.358  0.4059E-01  0.4784E+00
     31.584  0.2157E-01  0.4833E+00
     31.810  0.3968E-01  0.4922E+00
     32.036  0.5331E-01  0.5043E+00
     32.262  0.1818E-01  0.5084E+00
     32.488  0.2994E-01  0.5151E+00
     32.714  0.1534E-01  0.5186E+00
     32.939  0.2491E-01  0.5242E+00
     33.165  0.1064E-01  0.5266E+00
     33.391  0.9952E-02  0.5289E+00
     33.617  0.7072E-02  0.5305E+00
     33.843  0.1971E-01  0.5349E+00
     34.069  0.8574E-02  0.5369E+00
     34.295  0.1372E-01  0.5400E+00
     34.521  0.9231E-02  0.5421E+00
     34.747  0.8270E-02  0.5439E+00
     34.973  0.1309E-01  0.5469E+00
     35.199  0.9583E-02  0.5490E+00
     35.425  0.3048E-01  0.5559E+00
     35.651  0.1336E-01  0.5590E+00
     35.876  0.1986E-01  0.5634E+00
     36.102  0.8505E-02  0.5654E+00
     36.328  0.1962E-01  0.5698E+00
     36.554  0.1679E-01  0.5736E+00
     36.780  0.1935E-01  0.5780E+00
     37.006  0.2265E-01  0.5831E+00
     37.232  0.1418E-01  0.5863E+00
     37.458  0.1008E-01  0.5886E+00
     37.684  0.9054E-02  0.5906E+00
     37.910  0.1877E-01  0.5948E+00
     38.136  0.1122E-01  0.5974E+00
     38.362  0.9676E-02  0.5996E+00
     38.587  0.2844E-01  0.6060E+00
     38.813  0.2361E-01  0.6113E+00
     39.039  0.2165E-02  0.6118E+00
     39.265  0.1424E-01  0.6150E+00
     39.491  0.1041E-01  0.6174E+00
     39.717  0.1622E-01  0.6210E+00
     39.943  0.2340E-01  0.6263E+00
     40.169  0.1952E-01  0.6307E+00
     40.395  0.6822E-02  0.6323E+00
     40.621  0.1644E-01  0.6360E+00
     40.847  0.1629E-01  0.6397E+00
     41.073  0.3095E-01  0.6467E+00
     41.299  0.1301E-01  0.6496E+00
     41.524  0.1323E-01  0.6526E+00
     41.750  0.2827E-01  0.6590E+00
     41.976  0.2569E-01  0.6648E+00
     42.202  0.1235E-01  0.6676E+00
     42.428  0.1340E-01  0.6706E+00
     42.654  0.8394E-02  0.6725E+00
     42.880  0.3451E-02  0.6733E+00
     43.106  0.1979E-01  0.6778E+00
     43.332  0.2478E-01  0.6834E+00
     43.558  0.1875E-01  0.6876E+00
     43.784  0.6488E-02  0.6891E+00
     44.010  0.1718E-01  0.6929E+00
     44.236  0.2577E-01  0.6988E+00
     44.461  0.1592E-01  0.7024E+00
     44.687  0.1744E-01  0.7063E+00
     44.913  0.1945E-01  0.7107E+00
     45.139  0.2604E-02  0.7113E+00
     45.365  0.5434E-04  0.7113E+00
     45.591  0.7846E-02  0.7131E+00
     45.817  0.8967E-02  0.7151E+00
     46.043  0.2688E-03  0.7152E+00
     46.269  0.6581E-02  0.7166E+00
     46.495  0.4541E-02  0.7177E+00
     46.721  0.4474E-02  0.7187E+00
     46.947  0.2018E-03  0.7187E+00
     47.173  0.4442E-07  0.7187E+00
     47.398  0.7240E-03  0.7189E+00
     47.624  0.4829E-02  0.7200E+00
     47.850  0.1129E-03  0.7200E+00
     48.076  0.4355E-09  0.7200E+00
     48.302  0.0000E+00  0.7200E+00
     48.528  0.0000E+00  0.7200E+00
     48.754  0.0000E+00  0.7200E+00
     48.980  0.0000E+00  0.7200E+00
     49.206  0.0000E+00  0.7200E+00
     49.432  0.0000E+00  0.7200E+00
     49.658  0.0000E+00  0.7200E+00
     49.884  0.0000E+00  0.7200E+00
     50.110  0.0000E+00  0.7200E+00
     50.335  0.0000E+00  0.7200E+00
     50.561  0.0000E+00  0.7200E+00
     50.56135080    -17.21523850  301      3.58370234      1.00000000
    -17.215  0.0000E+00  0.0000E+00  0.0000E+00  0.0000E+00  0.0000E+00  0.0000E+00  0.0000E+00  0.0000E+00  0.0000E+00
    -16.989  0.0000E+00  0.0000E+00  0.0000E+00  0.0000E+00  0.0000E+00  0.0000E+00  0.0000E+00  0.0000E+00  0.0000E+00
    -16.763  0.0000E+00  0.0000E+00  0.0000E+00  0.0000E+00  0.0000E+00  0.0000E+00  0.0000E+00  0.0000E+00  0.0000E+00
    -16.537  0.0000E+00  0.0000E+00  0.0000E+00  0.0000E+00  0.0000E+00  0.0000E+00  0.0000E+00  0.0000E+00  0.0000E+00
    -16.312  0.0000E+00  0.0000E+00  0.0000E+00  0.0000E+00  0.0000E+00  0.0000E+00  0.0000E+00  0.0000E+00  0.0000E+00
    -16.086  0.0000E+00  0.0000E+00  0.0000E+00  0.0000E+00  0.0000E+00  0.0000E+00  0.0000E+00  0.0000E+00  0.0000E+00
    -15.860  0.0000E+00  0.0000E+00  0.0000E+00  0.0000E+00  0.0000E+00  0.0000E+00  0.0000E+00  0.0000E+00  0.0000E+00
    -15.634  0.0000E+00  0.0000E+00  0.0000E+00  0.0000E+00  0.0000E+00  0.0000E+00  0.0000E+00  0.0000E+00  0.0000E+00
    -15.408  0.0000E+00  0.0000E+00  0.0000E+00  0.0000E+00  0.0000E+00  0.0000E+00  0.0000E+00  0.0000E+00  0.0000E+00
    -15.182  0.0000E+00  0.0000E+00  0.0000E+00  0.0000E+00  0.0000E+00  0.0000E+00  0.0000E+00  0.0000E+00  0.0000E+00
    -14.956  0.0000E+00  0.0000E+00  0.0000E+00  0.0000E+00  0.0000E+00  0.0000E+00  0.0000E+00  0.0000E+00  0.0000E+00
    -14.730  0.0000E+00  0.0000E+00  0.0000E+00  0.0000E+00  0.0000E+00  0.0000E+00  0.0000E+00  0.0000E+00  0.0000E+00
    -14.504  0.3141E-10  0.4908E-15  0.5436E-15  0.4908E-15  0.1246E-18  0.1247E-18  0.1390E-17  0.1246E-18  0.1255E-27
    -14.278  0.8511E-05  0.9487E-08  0.1376E-07  0.9487E-08  0.2409E-11  0.2410E-11  0.1126E-09  0.2408E-11  0.1479E-20
    -14.052  0.1864E-02  0.1522E-04  0.3721E-04  0.1522E-04  0.4626E-08  0.3583E-08  0.6427E-06  0.3581E-08  0.5605E-17
    -13.826  0.7963E-02  0.2208E-03  0.3367E-03  0.2208E-03  0.1604E-06  0.7046E-07  0.1722E-04  0.7043E-07  0.2092E-09
    -13.600  0.1098E-01  0.5665E-03  0.1167E-02  0.4896E-03  0.5196E-06  0.4406E-06  0.9510E-04  0.2543E-06  0.1694E-05
    -13.375  0.1424E-01  0.1468E-02  0.2888E-02  0.1130E-02  0.1166E-05  0.1767E-05  0.3705E-03  0.9499E-06  0.7885E-05
    -13.149  0.1341E-01  0.3347E-02  0.4692E-02  0.2106E-02  0.2692E-05  0.4150E-05  0.1063E-02  0.1083E-05  0.6151E-04
    -12.923  0.1179E-01  0.6976E-02  0.7719E-02  0.5465E-02  0.4668E-05  0.5114E-05  0.3148E-02  0.1976E-05  0.1998E-03
    -12.697  0.8102E-02  0.1452E-01  0.8932E-02  0.9083E-02  0.7261E-05  0.5912E-05  0.1159E-01  0.1218E-05  0.7728E-03
    -12.471  0.2270E-02  0.6453E-02  0.1438E-02  0.2332E-02  0.2062E-05  0.1214E-05  0.8339E-02  0.1426E-06  0.5964E-03
    -12.245  0.9319E-05  0.3645E-04  0.2905E-05  0.7125E-05  0.6036E-08  0.2951E-08  0.4842E-04  0.1722E-09  0.4592E-05
    -12.019  0.1000E-10  0.6092E-10  0.1970E-11  0.5632E-11  0.4690E-14  0.2205E-14  0.7318E-10  0.5568E-16  0.8669E-11
    -11.793  0.0000E+00  0.0000E+00  0.0000E+00  0.0000E+00  0.0000E+00  0.0000E+00  0.0000E+00  0.0000E+00  0.0000E+00
    -11.567  0.0000E+00  0.0000E+00  0.0000E+00  0.0000E+00  0.0000E+00  0.0000E+00  0.0000E+00  0.0000E+00  0.0000E+00
    -11.341  0.0000E+00  0.0000E+00  0.0000E+00  0.0000E+00  0.0000E+00  0.0000E+00  0.0000E+00  0.0000E+00  0.0000E+00
    -11.115  0.0000E+00  0.0000E+00  0.0000E+00  0.0000E+00  0.0000E+00  0.0000E+00  0.0000E+00  0.0000E+00  0.0000E+00
    -10.889  0.0000E+00  0.0000E+00  0.0000E+00  0.0000E+00  0.0000E+00  0.0000E+00  0.0000E+00  0.0000E+00  0.0000E+00
    -10.664  0.0000E+00  0.0000E+00  0.0000E+00  0.0000E+00  0.0000E+00  0.0000E+00  0.0000E+00  0.0000E+00  0.0000E+00
    -10.438  0.0000E+00  0.0000E+00  0.0000E+00  0.0000E+00  0.0000E+00  0.0000E+00  0.0000E+00  0.0000E+00  0.0000E+00
    -10.212  0.0000E+00  0.0000E+00  0.0000E+00  0.0000E+00  0.0000E+00  0.0000E+00  0.0000E+00  0.0000E+00  0.0000E+00
     -9.986  0.0000E+00  0.0000E+00  0.0000E+00  0.0000E+00  0.0000E+00  0.0000E+00  0.0000E+00  0.0000E+00  0.0000E+00
     -9.760  0.0000E+00  0.0000E+00  0.0000E+00  0.0000E+00  0.0000E+00  0.0000E+00  0.0000E+00  0.0000E+00  0.0000E+00
     -9.534  0.0000E+00  0.0000E+00  0.0000E+00  0.0000E+00  0.0000E+00  0.0000E+00  0.0000E+00  0.0000E+00  0.0000E+00
     -9.308  0.0000E+00  0.0000E+00  0.0000E+00  0.0000E+00  0.0000E+00  0.0000E+00  0.0000E+00  0.0000E+00  0.0000E+00
     -9.082  0.0000E+00  0.0000E+00  0.0000E+00  0.0000E+00  0.0000E+00  0.0000E+00  0.0000E+00  0.0000E+00  0.0000E+00
     -8.856  0.0000E+00  0.0000E+00  0.0000E+00  0.0000E+00  0.0000E+00  0.0000E+00  0.0000E+00  0.0000E+00  0.0000E+00
     -8.630  0.0000E+00  0.0000E+00  0.0000E+00  0.0000E+00  0.0000E+00  0.0000E+00  0.0000E+00  0.0000E+00  0.0000E+00
     -8.404  0.0000E+00  0.0000E+00  0.0000E+00  0.0000E+00  0.0000E+00  0.0000E+00  0.0000E+00  0.0000E+00  0.0000E+00
     -8.178  0.0000E+00  0.0000E+00  0.0000E+00  0.0000E+00  0.0000E+00  0.0000E+00  0.0000E+00  0.0000E+00  0.0000E+00
     -7.952  0.0000E+00  0.0000E+00  0.0000E+00  0.0000E+00  0.0000E+00  0.0000E+00  0.0000E+00  0.0000E+00  0.0000E+00
     -7.727  0.0000E+00  0.0000E+00  0.0000E+00  0.0000E+00  0.0000E+00  0.0000E+00  0.0000E+00  0.0000E+00  0.0000E+00
     -7.501  0.0000E+00  0.0000E+00  0.0000E+00  0.0000E+00  0.0000E+00  0.0000E+00  0.0000E+00  0.0000E+00  0.0000E+00
     -7.275  0.0000E+00  0.0000E+00  0.0000E+00  0.0000E+00  0.0000E+00  0.0000E+00  0.0000E+00  0.0000E+00  0.0000E+00
     -7.049  0.0000E+00  0.0000E+00  0.0000E+00  0.0000E+00  0.0000E+00  0.0000E+00  0.0000E+00  0.0000E+00  0.0000E+00
     -6.823  0.0000E+00  0.0000E+00  0.0000E+00  0.0000E+00  0.0000E+00  0.0000E+00  0.0000E+00  0.0000E+00  0.0000E+00
     -6.597  0.0000E+00  0.0000E+00  0.0000E+00  0.0000E+00  0.0000E+00  0.0000E+00  0.0000E+00  0.0000E+00  0.0000E+00
     -6.371  0.0000E+00  0.0000E+00  0.0000E+00  0.0000E+00  0.0000E+00  0.0000E+00  0.0000E+00  0.0000E+00  0.0000E+00
     -6.145  0.0000E+00  0.0000E+00  0.0000E+00  0.0000E+00  0.0000E+00  0.0000E+00  0.0000E+00  0.0000E+00  0.0000E+00
     -5.919  0.0000E+00  0.0000E+00  0.0000E+00  0.0000E+00  0.0000E+00  0.0000E+00  0.0000E+00  0.0000E+00  0.0000E+00
     -5.693  0.0000E+00  0.0000E+00  0.0000E+00  0.0000E+00  0.0000E+00  0.0000E+00  0.0000E+00  0.0000E+00  0.0000E+00
     -5.467  0.0000E+00  0.0000E+00  0.0000E+00  0.0000E+00  0.0000E+00  0.0000E+00  0.0000E+00  0.0000E+00  0.0000E+00
     -5.241  0.0000E+00  0.0000E+00  0.0000E+00  0.0000E+00  0.0000E+00  0.0000E+00  0.0000E+00  0.0000E+00  0.0000E+00
     -5.015  0.0000E+00  0.0000E+00  0.0000E+00  0.0000E+00  0.0000E+00  0.0000E+00  0.0000E+00  0.0000E+00  0.0000E+00
     -4.790  0.0000E+00  0.0000E+00  0.0000E+00  0.0000E+00  0.0000E+00  0.0000E+00  0.0000E+00  0.0000E+00  0.0000E+00
     -4.564  0.0000E+00  0.0000E+00  0.0000E+00  0.0000E+00  0.0000E+00  0.0000E+00  0.0000E+00  0.0000E+00  0.0000E+00
     -4.338  0.0000E+00  0.0000E+00  0.0000E+00  0.0000E+00  0.0000E+00  0.0000E+00  0.0000E+00  0.0000E+00  0.0000E+00
     -4.112  0.0000E+00  0.0000E+00  0.0000E+00  0.0000E+00  0.0000E+00  0.0000E+00  0.0000E+00  0.0000E+00  0.0000E+00
     -3.886  0.0000E+00  0.0000E+00  0.0000E+00  0.0000E+00  0.0000E+00  0.0000E+00  0.0000E+00  0.0000E+00  0.0000E+00
     -3.660  0.0000E+00  0.0000E+00  0.0000E+00  0.0000E+00  0.0000E+00  0.0000E+00  0.0000E+00  0.0000E+00  0.0000E+00
     -3.434  0.0000E+00  0.0000E+00  0.0000E+00  0.0000E+00  0.0000E+00  0.0000E+00  0.0000E+00  0.0000E+00  0.0000E+00
     -3.208  0.0000E+00  0.0000E+00  0.0000E+00  0.0000E+00  0.0000E+00  0.0000E+00  0.0000E+00  0.0000E+00  0.0000E+00
     -2.982  0.0000E+00  0.0000E+00  0.0000E+00  0.0000E+00  0.0000E+00  0.0000E+00  0.0000E+00  0.0000E+00  0.0000E+00
     -2.756  0.0000E+00  0.0000E+00  0.0000E+00  0.0000E+00  0.0000E+00  0.0000E+00  0.0000E+00  0.0000E+00  0.0000E+00
     -2.530  0.0000E+00  0.0000E+00  0.0000E+00  0.0000E+00  0.0000E+00  0.0000E+00  0.0000E+00  0.0000E+00  0.0000E+00
     -2.304  0.0000E+00  0.0000E+00  0.0000E+00  0.0000E+00  0.0000E+00  0.0000E+00  0.0000E+00  0.0000E+00  0.0000E+00
     -2.078  0.1010E-17  0.4163E-36  0.9226E-36  0.8523E-36  0.3436E-19  0.3436E-19  0.4590E-31  0.3436E-19  0.1319E-30
     -1.853  0.1608E-08  0.2517E-16  0.6391E-16  0.2517E-16  0.5468E-10  0.5468E-10  0.5291E-18  0.5468E-10  0.2099E-21
     -1.627  0.1555E-03  0.3889E-08  0.9878E-08  0.3889E-08  0.5290E-05  0.5290E-05  0.8207E-10  0.5290E-05  0.2132E-16
     -1.401  0.6881E-02  0.3842E-04  0.1013E-03  0.3845E-04  0.2353E-03  0.2343E-03  0.1165E-05  0.2343E-03  0.1610E-09
     -1.175  0.3784E-01  0.2286E-03  0.1273E-02  0.4687E-03  0.1385E-02  0.1250E-02  0.4876E-04  0.1222E-02  0.1593E-05
     -0.949  0.4069E-01  0.4874E-03  0.6234E-02  0.1814E-02  0.1531E-02  0.1440E-02  0.1634E-03  0.1231E-02  0.3032E-04
     -0.723  0.7441E-01  0.1279E-02  0.3627E-01  0.3541E-02  0.2132E-02  0.3154E-02  0.1231E-02  0.2159E-02  0.2293E-03
     -0.497  0.1144E+00  0.1835E-02  0.7827E-01  0.9264E-02  0.4349E-02  0.4855E-02  0.5302E-02  0.2291E-02  0.3845E-03
     -0.271  0.7361E-01  0.1721E-02  0.3590E-01  0.4994E-02  0.2715E-02  0.2803E-02  0.4497E-02  0.1052E-02  0.4883E-03
     -0.045  0.5144E-01  0.7215E-03  0.2478E-01  0.5779E-02  0.1157E-02  0.3002E-02  0.3416E-02  0.6470E-03  0.5100E-03
      0.181  0.2652E-01  0.7070E-03  0.6129E-02  0.5889E-02  0.1480E-02  0.6443E-03  0.1751E-02  0.3977E-03  0.1858E-04
      0.407  0.1961E-01  0.1044E-02  0.1300E-01  0.7207E-02  0.9750E-03  0.9692E-03  0.2844E-02  0.5274E-03  0.9129E-04
      0.633  0.2453E-01  0.1256E-02  0.1075E-01  0.9941E-02  0.1823E-02  0.9748E-03  0.2186E-02  0.5236E-03  0.1307E-03
      0.859  0.1804E-01  0.2955E-02  0.2429E-01  0.3137E-01  0.3967E-02  0.1703E-02  0.4838E-02  0.6822E-03  0.3286E-03
      1.084  0.9479E-02  0.2090E-02  0.9351E-02  0.8476E-02  0.1402E-02  0.5656E-03  0.2611E-02  0.3597E-03  0.6126E-04
      1.310  0.1182E-01  0.2706E-02  0.2346E-01  0.1519E-01  0.2174E-02  0.1564E-02  0.5332E-02  0.1719E-02  0.5214E-03
      1.536  0.1920E-01  0.7176E-02  0.1060E-01  0.2914E-01  0.2785E-02  0.7582E-03  0.8042E-02  0.8031E-03  0.3534E-02
      1.762  0.2311E-01  0.1897E-01  0.9859E-02  0.2872E-01  0.1952E-02  0.9198E-03  0.7126E-02  0.1160E-02  0.9505E-02
      1.988  0.9783E-02  0.2087E-01  0.7516E-02  0.4143E-01  0.2185E-02  0.9002E-03  0.8378E-02  0.2366E-02  0.1753E-01
      2.214  0.5234E-02  0.1683E-01  0.1101E-01  0.1968E-01  0.1313E-02  0.1824E-02  0.1581E-01  0.2099E-02  0.2653E-01
      2.440  0.4605E-02  0.1150E-01  0.7974E-02  0.1559E-01  0.1152E-02  0.2257E-02  0.1415E-01  0.2922E-02  0.3225E-01
      2.666  0.4272E-03  0.7840E-02  0.2474E-02  0.5234E-02  0.5018E-03  0.1274E-02  0.8787E-02  0.1067E-02  0.1579E-01
      2.892  0.2954E-04  0.4694E-02  0.2082E-02  0.4224E-02  0.1778E-03  0.5182E-03  0.2257E-02  0.4751E-03  0.5615E-02
      3.118  0.1649E-06  0.1237E-02  0.6843E-03  0.1237E-02  0.1744E-04  0.4096E-04  0.1888E-03  0.4095E-04  0.7806E-03
      3.344  0.1077E-12  0.1270E-04  0.1225E-04  0.1270E-04  0.1100E-06  0.1180E-06  0.1181E-05  0.1179E-06  0.1973E-05
      3.570  0.1132E-21  0.1238E-09  0.1237E-09  0.1238E-09  0.1047E-12  0.1049E-12  0.1125E-11  0.1049E-12  0.1224E-11
      3.796  0.5745E-36  0.9777E-19  0.9777E-19  0.9777E-19  0.6009E-35  0.1552E-35  0.5286E-37  0.3175E-35  0.1164E-36
      4.021  0.0000E+00  0.0000E+00  0.0000E+00  0.0000E+00  0.0000E+00  0.0000E+00  0.0000E+00  0.0000E+00  0.0000E+00
      4.247  0.0000E+00  0.0000E+00  0.0000E+00  0.0000E+00  0.0000E+00  0.0000E+00  0.0000E+00  0.0000E+00  0.0000E+00
      4.473  0.0000E+00  0.0000E+00  0.0000E+00  0.0000E+00  0.0000E+00  0.0000E+00  0.0000E+00  0.0000E+00  0.0000E+00
      4.699  0.0000E+00  0.0000E+00  0.0000E+00  0.0000E+00  0.0000E+00  0.0000E+00  0.0000E+00  0.0000E+00  0.0000E+00
      4.925  0.0000E+00  0.0000E+00  0.0000E+00  0.0000E+00  0.0000E+00  0.0000E+00  0.0000E+00  0.0000E+00  0.0000E+00
      5.151  0.0000E+00  0.0000E+00  0.0000E+00  0.0000E+00  0.0000E+00  0.0000E+00  0.0000E+00  0.0000E+00  0.0000E+00
      5.377  0.0000E+00  0.0000E+00  0.0000E+00  0.0000E+00  0.0000E+00  0.0000E+00  0.0000E+00  0.0000E+00  0.0000E+00
      5.603  0.0000E+00  0.0000E+00  0.0000E+00  0.0000E+00  0.0000E+00  0.0000E+00  0.0000E+00  0.0000E+00  0.0000E+00
      5.829  0.0000E+00  0.0000E+00  0.0000E+00  0.0000E+00  0.0000E+00  0.0000E+00  0.0000E+00  0.0000E+00  0.0000E+00
      6.055  0.0000E+00  0.0000E+00  0.0000E+00  0.0000E+00  0.0000E+00  0.0000E+00  0.0000E+00  0.0000E+00  0.0000E+00
      6.281  0.0000E+00  0.0000E+00  0.0000E+00  0.0000E+00  0.0000E+00  0.0000E+00  0.0000E+00  0.0000E+00  0.0000E+00
      6.507  0.0000E+00  0.0000E+00  0.0000E+00  0.0000E+00  0.0000E+00  0.0000E+00  0.0000E+00  0.0000E+00  0.0000E+00
      6.732  0.0000E+00  0.0000E+00  0.0000E+00  0.0000E+00  0.0000E+00  0.0000E+00  0.0000E+00  0.0000E+00  0.0000E+00
      6.958  0.3281E-16  0.3076E-33  0.1776E-33  0.2092E-33  0.1779E-30  0.1825E-30  0.1148E-32  0.1782E-30  0.9530E-34
      7.184  0.1150E-07  0.1078E-24  0.6223E-25  0.7332E-25  0.6235E-22  0.6397E-22  0.4025E-24  0.6244E-22  0.3340E-25
      7.410  0.2415E-03  0.2264E-20  0.1307E-20  0.1539E-20  0.1309E-17  0.1343E-17  0.8450E-20  0.1311E-17  0.7012E-21
      7.636  0.1821E-02  0.5539E-15  0.5539E-15  0.5539E-15  0.1894E-16  0.1920E-16  0.6372E-19  0.1895E-16  0.5288E-20
      7.862  0.5034E-04  0.2550E-07  0.2550E-07  0.2550E-07  0.4174E-09  0.4174E-09  0.1442E-14  0.4174E-09  0.1782E-19
      8.088  0.4260E-02  0.8231E-04  0.8251E-04  0.8231E-04  0.1348E-05  0.1348E-05  0.2357E-07  0.1348E-05  0.5706E-16
      8.314  0.1474E-01  0.1993E-03  0.4516E-03  0.1993E-03  0.3264E-05  0.3264E-05  0.3008E-04  0.3264E-05  0.1400E-15
      8.540  0.6297E-02  0.1156E-05  0.3563E-03  0.1156E-05  0.1892E-07  0.1892E-07  0.4236E-04  0.1892E-07  0.3361E-17
      8.766  0.2433E-03  0.1624E-04  0.8770E-06  0.1624E-04  0.4955E-06  0.1210E-13  0.1342E-05  0.1210E-13  0.6824E-20
      8.992  0.1542E-01  0.1098E-02  0.4809E-08  0.1098E-02  0.3352E-04  0.8092E-10  0.8367E-04  0.8092E-10  0.3610E-19
      9.218  0.6083E-02  0.3526E-03  0.2919E-03  0.3526E-03  0.1101E-04  0.4693E-05  0.5583E-04  0.4693E-05  0.1306E-15
      9.444  0.4218E-01  0.1735E-02  0.4423E-02  0.1735E-02  0.5599E-04  0.6904E-04  0.5873E-03  0.6903E-04  0.1963E-14
      9.669  0.2444E-02  0.9773E-04  0.2571E-03  0.9773E-04  0.3122E-05  0.3894E-05  0.3480E-04  0.3894E-05  0.1132E-15
      9.895  0.1413E-02  0.2962E-04  0.1340E-03  0.2962E-04  0.5497E-06  0.4867E-06  0.6522E-04  0.4867E-06  0.1820E-12
     10.121  0.2932E-01  0.4030E-02  0.1689E-02  0.4017E-02  0.7509E-04  0.6676E-04  0.7191E-03  0.6659E-04  0.3060E-06
     10.347  0.3981E-01  0.6350E-02  0.6819E-02  0.3989E-02  0.1677E-03  0.1487E-03  0.1071E-02  0.1182E-03  0.5599E-04
     10.573  0.3196E-01  0.4950E-02  0.7313E-02  0.3937E-02  0.3146E-03  0.1174E-03  0.9541E-03  0.1043E-03  0.2403E-04
     10.799  0.3461E-02  0.5644E-02  0.5448E-02  0.5644E-02  0.6289E-04  0.8040E-04  0.8177E-04  0.8039E-04  0.7955E-08
     11.025  0.4765E-01  0.1429E-01  0.1302E-01  0.1429E-01  0.5636E-03  0.3729E-03  0.2696E-02  0.3729E-03  0.1468E-08
     11.251  0.2615E-01  0.2925E-01  0.2328E-01  0.2809E-01  0.1143E-02  0.2923E-03  0.2071E-02  0.3024E-03  0.3800E-04
     11.477  0.4386E-01  0.1896E-01  0.1627E-01  0.8940E-02  0.8566E-03  0.5276E-04  0.2446E-02  0.1392E-03  0.3275E-03
     11.703  0.1395E-01  0.1188E-02  0.1525E-02  0.7617E-03  0.2646E-03  0.3542E-05  0.9729E-03  0.4258E-05  0.1448E-04
     11.929  0.5851E-01  0.2975E-01  0.2381E-01  0.1754E-01  0.4332E-02  0.5546E-03  0.5028E-02  0.1313E-03  0.4606E-03
     12.155  0.2490E-01  0.3276E-01  0.1747E-01  0.2656E-01  0.7557E-02  0.1009E-02  0.3282E-02  0.2837E-03  0.2922E-03
     12.381  0.4190E-01  0.1972E-01  0.8942E-02  0.1954E-01  0.2018E-01  0.2966E-03  0.3354E-02  0.2917E-03  0.3175E-04
     12.606  0.5317E-01  0.1382E-01  0.1757E-02  0.1129E-01  0.3487E-01  0.7408E-04  0.2583E-02  0.1801E-04  0.3298E-03
     12.832  0.7768E-01  0.2207E-01  0.7942E-02  0.1487E-01  0.4310E-01  0.4317E-03  0.3662E-02  0.3547E-04  0.2664E-03
     13.058  0.1164E+00  0.5508E-01  0.1333E-01  0.4965E-01  0.6994E-01  0.2718E-02  0.5139E-02  0.1762E-03  0.5825E-03
     13.284  0.9299E-01  0.2295E-01  0.3664E-02  0.2376E-01  0.6904E-01  0.9436E-03  0.2282E-02  0.1017E-03  0.3376E-03
     13.510  0.2528E-01  0.6730E-02  0.1261E-04  0.8057E-02  0.1848E-01  0.2564E-05  0.3671E-03  0.1403E-05  0.1183E-03
     13.736  0.3166E-02  0.3927E-02  0.5861E-03  0.6216E-02  0.2213E-01  0.2322E-03  0.2120E-03  0.2649E-03  0.8302E-04
     13.962  0.8625E-01  0.9231E-02  0.8072E-02  0.1239E-01  0.6001E-01  0.3768E-02  0.1154E-02  0.9665E-03  0.4698E-03
     14.188  0.1607E+00  0.1093E-01  0.6962E-02  0.1868E-01  0.7614E-01  0.5492E-02  0.8238E-03  0.1279E-02  0.6079E-03
     14.414  0.1054E-01  0.1597E-02  0.8141E-02  0.1837E-02  0.3549E-01  0.1196E-01  0.5508E-04  0.2212E-02  0.3381E-04
     14.640  0.5886E-01  0.1800E-02  0.1131E-01  0.1696E-01  0.4184E-01  0.1331E-01  0.4951E-04  0.6724E-02  0.5123E-03
     14.866  0.1597E+00  0.1591E-02  0.5119E-01  0.1411E-01  0.5152E-01  0.3886E-01  0.2578E-03  0.2285E-01  0.2530E-03
     15.092  0.2162E+00  0.5987E-02  0.4045E-01  0.1486E-01  0.7285E-01  0.2877E-01  0.5157E-03  0.2043E-01  0.9366E-03
     15.318  0.1369E+00  0.2128E-02  0.2204E-01  0.3988E-02  0.1504E-01  0.1938E-01  0.2874E-03  0.1675E-01  0.5288E-03
     15.543  0.1095E+00  0.1667E-02  0.8266E-01  0.1314E-02  0.1606E-02  0.1599E-01  0.6184E-03  0.8670E-02  0.7755E-03
     15.769  0.1617E+00  0.3299E-02  0.8206E-01  0.1311E-01  0.9183E-02  0.6184E-02  0.1062E-02  0.1837E-02  0.7297E-03
     15.995  0.1781E+00  0.6368E-02  0.7401E-01  0.2138E-01  0.3016E-01  0.8058E-02  0.1414E-02  0.5246E-02  0.6451E-03
     16.221  0.6416E-01  0.5838E-03  0.4862E-01  0.8600E-03  0.1394E-02  0.1531E-02  0.1600E-04  0.6805E-03  0.4753E-03
     16.447  0.8098E-01  0.3416E-02  0.6795E-01  0.4272E-02  0.1113E-02  0.9013E-02  0.3383E-03  0.8621E-02  0.2219E-03
     16.673  0.1155E+00  0.8897E-02  0.3961E-01  0.2660E-01  0.3030E-02  0.2268E-02  0.1462E-02  0.2255E-02  0.2835E-04
     16.899  0.6241E-01  0.6060E-02  0.1840E-01  0.2125E-01  0.1941E-02  0.1940E-02  0.9016E-03  0.8071E-03  0.2394E-03
     17.125  0.1566E+00  0.9840E-02  0.1179E+00  0.2225E-01  0.1500E-01  0.1206E-02  0.2158E-02  0.1036E-02  0.1209E-02
     17.351  0.4260E-01  0.7066E-03  0.4453E-01  0.3340E-02  0.5429E-02  0.9029E-03  0.5555E-03  0.9415E-03  0.3042E-03
     17.577  0.5278E-03  0.4480E-03  0.9130E-03  0.4172E-03  0.4041E-02  0.4031E-02  0.1637E-04  0.4023E-02  0.1019E-04
     17.803  0.5686E-01  0.9091E-02  0.5651E-01  0.5119E-02  0.2596E-02  0.1076E-02  0.2315E-02  0.1183E-03  0.1287E-02
     18.029  0.5074E-01  0.1541E-01  0.5332E-01  0.1408E-01  0.3082E-02  0.1236E-02  0.2277E-02  0.9142E-03  0.4324E-03