    2    2   50    1
  0.9573706E+01  0.3002906E-09  0.3002906E-09  0.3002906E-09  0.5000000E-15
  1.000000000000000E-004
  CAR 
 unknown system                          
      8     47     18
 
  0.0000000E+00  0.0000000E+00  0.0000000E+00  0.1000000E-02
    1      -14.134484   1.000000
    2        3.004641   1.000000
    3        3.004641   1.000000
    4        3.004647   1.000000
    5        7.495363   0.000000
    6       18.664786   0.000000
    7       18.664786   0.000000
    8       18.664786   0.000000
    9       22.517250   0.000000
   10       24.263110   0.000000
   11       24.263110   0.000000
   12       26.781538   0.000000
   13       26.781538   0.000000
   14       26.781555   0.000000
   15       40.783573   0.000000
   16       40.783573   0.000000
   17       40.783733   0.000000
   18       41.188374   0.000000
 
  0.1000000E+00  0.0000000E+00  0.0000000E+00  0.8000000E-02
    1      -14.033286   1.000000
    2        2.357317   1.000000
    3        2.939983   1.000000
    4        2.939989   1.000000
    5        8.126921   0.000000
    6       17.422081   0.000000
    7       18.895396   0.000000
    8       18.895397   0.000000
    9       23.498637   0.000000
   10       23.498637   0.000000
   11       24.126363   0.000000
   12       26.823209   0.000000
   13       27.967796   0.000000
   14       27.967813   0.000000
   15       39.202200   0.000000
   16       40.696215   0.000000
   17       40.696343   0.000000
   18       42.630440   0.000000
 
  0.2000000E+00  0.0000000E+00  0.0000000E+00  0.8000000E-02
    1      -13.755261   1.000000
    2        1.060844   1.000000
    3        2.776055   1.000000
    4        2.776059   1.000000
    5        9.325676   0.000000
    6       15.902762   0.000000
    7       19.347530   0.000000
    8       19.347536   0.000000
    9       22.801085   0.000000
   10       22.801085   0.000000
   11       24.874889   0.000000
   12       28.872142   0.000000
   13       30.016244   0.000000
   14       30.016270   0.000000
   15       37.334100   0.000000
   16       40.146481   0.000000
   17       40.146556   0.000000
   18       44.540156   0.000000
 
  0.3000000E+00  0.0000000E+00  0.0000000E+00  0.8000000E-02
    1      -13.381427   1.000000
    2       -0.225387   1.000000
    3        2.583117   1.000000
    4        2.583121   1.000000
    5       10.285226   0.000000
    6       15.169644   0.000000
    7       19.418239   0.000000
    8       19.418246   0.000000
    9       23.252727   0.000000
   10       23.252732   0.000000
   11       24.255231   0.000000
   12       31.584481   0.000000
   13       31.959644   0.000000
   14       31.959685   0.000000
   15       36.915249   0.000000
   16       38.381542   0.000000
   17       38.381553   0.000000
   18       46.329849   0.000000
 
  0.4000000E+00  0.0000000E+00  0.0000000E+00  0.8000000E-02
    1      -13.047775   1.000000
    2       -1.160166   1.000000
    3        2.433990   1.000000
    4        2.433994   1.000000
    5       10.680779   0.000000
    6       15.193182   0.000000
    7       19.180704   0.000000
    8       19.180711   0.000000
    9       23.717984   0.000000
   10       24.485618   0.000000
   11       24.485632   0.000000
   12       31.517211   0.000000
   13       33.221444   0.000000
   14       33.221482   0.000000
   15       36.110646   0.000000
   16       36.110649   0.000000
   17       40.489572   0.000000
   18       47.473824   0.000000
 
  0.5000000E+00  0.0000000E+00  0.0000000E+00  0.4000000E-02
    1      -12.911136   1.000000
    2       -1.504932   1.000000
    3        2.378529   1.000000
    4        2.378532   1.000000
    5       10.746253   0.000000
    6       15.332928   0.000000
    7       19.062442   0.000000
    8       19.062448   0.000000
    9       23.527915   0.000000
   10       25.197280   0.000000
   11       25.197300   0.000000
   12       31.111867   0.000000
   13       33.475654   0.000000
   14       33.475654   0.000000
   15       35.192706   0.000000
   16       35.192742   0.000000
   17       44.943128   0.000000
   18       46.592257   0.000000
 
  0.1000000E+00  0.1000000E+00  0.0000000E+00  0.6000000E-02
    1      -14.000532   1.000000
    2        2.290299   1.000000
    3        2.856119   1.000000
    4        2.856123   1.000000
    5        8.329149   0.000000
    6       17.070430   0.000000
    7       18.980651   0.000000
    8       18.980653   0.000000
    9       22.254824   0.000000
   10       24.565895   0.000000
   11       24.775439   0.000000
   12       27.270869   0.000000
   13       27.270879   0.000000
   14       28.479183   0.000000
   15       39.255726   0.000000
   16       40.343375   0.000000
   17       40.343467   0.000000
   18       43.201828   0.000000
 
  0.2000000E+00  0.1000000E+00  0.0000000E+00  0.2400000E-01
    1      -13.783787   1.000000
    2        1.336727   1.000000
    3        2.680344   1.000000
    4        2.705292   1.000000
    5        9.329068   0.000000
    6       15.828565   0.000000
    7       19.291904   0.000000
    8       19.368646   0.000000
    9       21.184740   0.000000
   10       24.328338   0.000000
   11       26.124670   0.000000
   12       28.496801   0.000000
   13       28.806410   0.000000
   14       30.000946   0.000000
   15       37.697981   0.000000
   16       39.603658   0.000000
   17       40.554476   0.000000
   18       44.639466   0.000000
 
  0.3000000E+00  0.1000000E+00  0.0000000E+00  0.2400000E-01
    1      -13.444154   1.000000
    2        0.157759   1.000000
    3        2.472723   1.000000
    4        2.486766   1.000000
    5       10.412266   0.000000
    6       15.001981   0.000000
    7       18.919301   0.000000
    8       19.591733   0.000000
    9       21.570362   0.000000
   10       24.407157   0.000000
   11       25.761144   0.000000
   12       31.132017   0.000000
   13       31.260728   0.000000
   14       31.680589   0.000000
   15       36.576474   0.000000
   16       37.707954   0.000000
   17       40.967823   0.000000
   18       44.729550   0.000000
 
  0.4000000E+00  0.1000000E+00  0.0000000E+00  0.2400000E-01
    1      -13.096370   1.000000
    2       -0.822738   1.000000
    3        2.224310   1.000000
    4        2.346854   1.000000
    5       11.032147   0.000000
    6       14.949203   0.000000
    7       18.317967   0.000000
    8       19.469631   0.000000
    9       22.795355   0.000000
   10       25.166484   0.000000
   11       25.314475   0.000000
   12       31.918564   0.000000
   13       32.557765   0.000000
   14       33.423947   0.000000
   15       35.045652   0.000000
   16       38.658447   0.000000
   17       39.826703   0.000000
   18       45.555541   0.000000
 
  0.5000000E+00  0.1000000E+00  0.0000000E+00  0.2400000E-01
    1      -12.890775   1.000000
    2       -1.334205   1.000000
    3        2.051499   1.000000
    4        2.306517   1.000000
    5       11.196965   0.000000
    6       15.215586   0.000000
    7       18.023386   0.000000
    8       19.311462   0.000000
    9       23.887184   0.000000
   10       25.152358   0.000000
   11       25.507277   0.000000
   12       31.972293   0.000000
   13       32.675902   0.000000
   14       33.162609   0.000000
   15       35.447025   0.000000
   16       36.666906   0.000000
   17       44.188831   0.000000
   18       47.480597   0.000000
 
 -0.4000000E+00  0.1000000E+00  0.0000000E+00  0.2400000E-01
    1      -12.934872   1.000000
    2       -1.223723   1.000000
    3        2.011445   1.000000
    4        2.378378   1.000000
    5       11.184653   0.000000
    6       15.170148   0.000000
    7       18.076290   0.000000
    8       19.358016   0.000000
    9       24.412957   0.000000
   10       24.440041   0.000000
   11       25.174722   0.000000
   12       32.099562   0.000000
   13       32.725617   0.000000
   14       33.722483   0.000000
   15       34.579564   0.000000
   16       37.484978   0.000000
   17       42.597080   0.000000
   18       46.175492   0.000000
 
 -0.3000000E+00  0.1000000E+00  0.0000000E+00  0.2400000E-01
    1      -13.204208   1.000000
    2       -0.528783   1.000000
    3        2.121951   1.000000
    4        2.540185   1.000000
    5       10.906408   0.000000
    6       14.966462   0.000000
    7       18.431453   0.000000
    8       19.668504   0.000000
    9       22.671836   0.000000
   10       24.237029   0.000000
   11       25.426052   0.000000
   12       31.896322   0.000000
   13       32.399219   0.000000
   14       32.811536   0.000000
   15       35.703814   0.000000
   16       38.519115   0.000000
   17       39.839015   0.000000
   18       44.397071   0.000000
 
 -0.2000000E+00  0.1000000E+00  0.0000000E+00  0.2400000E-01
    1      -13.565174   1.000000
    2        0.538189   1.000000
    3        2.363414   1.000000
    4        2.737045   1.000000
    5       10.075354   0.000000
    6       15.309569   0.000000
    7       18.872758   0.000000
    8       19.915855   0.000000
    9       21.536133   0.000000
   10       23.665945   0.000000
   11       25.907270   0.000000
   12       29.633226   0.000000
   13       31.185032   0.000000
   14       31.321727   0.000000
   15       36.099280   0.000000
   16       39.196626   0.000000
   17       41.233142   0.000000
   18       44.044165   0.000000
 
 -0.1000000E+00  0.1000000E+00  0.0000000E+00  0.1200000E-01
    1      -13.873892   1.000000
    2        1.649255   1.000000
    3        2.681882   1.000000
    4        2.893004   1.000000
    5        8.925311   0.000000
    6       16.355034   0.000000
    7       19.021319   0.000000
    8       19.323961   0.000000
    9       22.137004   0.000000
   10       23.597177   0.000000
   11       25.565531   0.000000
   12       27.860131   0.000000
   13       28.334264   0.000000
   14       29.662494   0.000000
   15       37.912972   0.000000
   16       40.073423   0.000000
   17       41.055351   0.000000
   18       43.660361   0.000000
 
  0.2000000E+00  0.2000000E+00  0.0000000E+00  0.6000000E-02
    1      -13.642819   1.000000
    2        1.011375   1.000000
    3        2.494536   1.000000
    4        2.494539   1.000000
    5        9.973326   0.000000
    6       14.973813   0.000000
    7       19.469561   0.000000
    8       19.756415   0.000000
    9       19.756424   0.000000
   10       25.458683   0.000000
   11       28.755293   0.000000
   12       28.755299   0.000000
   13       28.862792   0.000000
   14       30.120759   0.000000
   15       38.023502   0.000000
   16       39.105926   0.000000
   17       39.105983   0.000000
   18       46.386676   0.000000
 
  0.3000000E+00  0.2000000E+00  0.0000000E+00  0.2400000E-01
    1      -13.372330   1.000000
    2        0.263270   1.000000
    3        2.219432   1.000000
    4        2.296546   1.000000
    5       10.948318   0.000000
    6       14.224584   0.000000
    7       18.105556   0.000000
    8       20.106868   0.000000
    9       20.544800   0.000000
   10       25.796664   0.000000
   11       28.599625   0.000000
   12       30.529451   0.000000
   13       30.597714   0.000000
   14       32.207596   0.000000
   15       36.935632   0.000000
   16       37.695806   0.000000
   17       40.060721   0.000000
   18       44.712408   0.000000
 
  0.4000000E+00  0.2000000E+00  0.0000000E+00  0.2400000E-01
    1      -13.061210   1.000000
    2       -0.464954   1.000000
    3        1.799263   1.000000
    4        2.158463   1.000000
    5       11.790959   0.000000
    6       14.177786   0.000000
    7       17.110418   0.000000
    8       20.124199   0.000000
    9       21.401050   0.000000
   10       26.304886   0.000000
   11       28.286158   0.000000
   12       30.778920   0.000000
   13       32.780241   0.000000
   14       33.833963   0.000000
   15       35.316894   0.000000
   16       38.527735   0.000000
   17       42.299969   0.000000
   18       43.462180   0.000000
 
  0.5000000E+00  0.2000000E+00  0.0000000E+00  0.2400000E-01
    1      -12.833690   1.000000
    2       -0.914762   1.000000
    3        1.389021   1.000000
    4        2.124934   1.000000
    5       12.145796   0.000000
    6       14.759979   0.000000
    7       16.554775   0.000000
    8       19.953841   0.000000
    9       22.097920   0.000000
   10       26.458887   0.000000
   11       27.928497   0.000000
   12       31.197161   0.000000
   13       32.428983   0.000000
   14       33.743861   0.000000
   15       36.130290   0.000000
   16       39.395009   0.000000
   17       43.488965   0.000000
   18       45.634475   0.000000
 
 -0.4000000E+00  0.2000000E+00  0.0000000E+00  0.2400000E-01
    1      -12.798008   1.000000
    2       -0.945459   1.000000
    3        1.163297   1.000000
    4        2.206464   1.000000
    5       12.259936   0.000000
    6       15.033552   0.000000
    7       16.454324   0.000000
    8       19.873608   0.000000
    9       22.886225   0.000000
   10       25.109204   0.000000
   11       27.660393   0.000000
   12       31.908227   0.000000
   13       32.095885   0.000000
   14       34.140799   0.000000
   15       36.419830   0.000000
   16       38.698742   0.000000
   17       44.241907   0.000000
   18       45.533596   0.000000
 
 -0.3000000E+00  0.2000000E+00  0.0000000E+00  0.2400000E-01
    1      -12.972198   1.000000
    2       -0.584717   1.000000
    3        1.249473   1.000000
    4        2.378118   1.000000
    5       12.062934   0.000000
    6       14.756457   0.000000
    7       16.911802   0.000000
    8       20.045867   0.000000
    9       23.053642   0.000000
   10       23.780605   0.000000
   11       27.652186   0.000000
   12       31.682380   0.000000
   13       32.339782   0.000000
   14       33.804186   0.000000
   15       35.845140   0.000000
   16       40.969924   0.000000
   17       41.544438   0.000000
   18       42.135676   0.000000
 
 -0.2000000E+00  0.2000000E+00  0.0000000E+00  0.1200000E-01
    1      -13.269930   1.000000
    2       -0.033335   1.000000
    3        1.707809   1.000000
    4        2.581450   1.000000
    5       11.213167   0.000000
    6       14.775952   0.000000
    7       17.837261   0.000000
    8       20.501545   0.000000
    9       21.297999   0.000000
   10       24.079198   0.000000
   11       27.407237   0.000000
   12       30.149329   0.000000
   13       32.162035   0.000000
   14       34.228019   0.000000
   15       34.370939   0.000000
   16       39.474154   0.000000
   17       41.873361   0.000000
   18       42.987723   0.000000
 
  0.3000000E+00  0.3000000E+00  0.0000000E+00  0.6000000E-02
    1      -13.187166   1.000000
    2       -0.081773   1.000000
    3        2.092759   1.000000
    4        2.092761   1.000000
    5       11.600038   0.000000
    6       13.386317   0.000000
    7       17.164305   0.000000
    8       20.643117   0.000000
    9       20.643133   0.000000
   10       26.872960   0.000000
   11       29.884080   0.000000
   12       31.077124   0.000000
   13       31.077127   0.000000
   14       33.764987   0.000000
   15       37.699643   0.000000
   16       37.699667   0.000000
   17       38.537042   0.000000
   18       42.190790   0.000000
 
  0.4000000E+00  0.3000000E+00  0.0000000E+00  0.2400000E-01
    1      -12.951883   1.000000
    2       -0.490854   1.000000
    3        1.737087   1.000000
    4        1.949608   1.000000
    5       12.337185   0.000000
    6       13.103664   0.000000
    7       16.346054   0.000000
    8       20.861297   0.000000
    9       21.063412   0.000000
   10       27.589814   0.000000
   11       29.491848   0.000000
   12       31.376907   0.000000
   13       32.449691   0.000000
   14       35.747179   0.000000
   15       36.392300   0.000000
   16       38.413563   0.000000
   17       40.582299   0.000000
   18       41.730924   0.000000
 
  0.5000000E+00  0.3000000E+00  0.0000000E+00  0.2400000E-01
    1      -12.756736   1.000000
    2       -0.650324   1.000000
    3        1.082659   1.000000
    4        1.913029   1.000000
    5       12.696347   0.000000
    6       13.896336   0.000000
    7       15.769327   0.000000
    8       20.732641   0.000000
    9       21.172663   0.000000
   10       28.001216   0.000000
   11       29.615387   0.000000
   12       30.955813   0.000000
   13       31.697233   0.000000
   14       35.676771   0.000000
   15       37.148289   0.000000
   16       41.955681   0.000000
   17       43.070646   0.000000
   18       43.537411   0.000000
 
 -0.4000000E+00  0.3000000E+00  0.0000000E+00  0.2400000E-01
    1      -12.685931   1.000000
    2       -0.462478   1.000000
    3        0.410670   1.000000
    4        1.994333   1.000000
    5       12.998431   0.000000
    6       14.821837   0.000000
    7       15.382433   0.000000
    8       20.482911   0.000000
    9       21.336266   0.000000
   10       26.702619   0.000000
   11       29.892505   0.000000
   12       30.751585   0.000000
   13       31.291824   0.000000
   14       36.129735   0.000000
   15       38.732839   0.000000
   16       39.629123   0.000000
   17       43.255519   0.000000
   18       46.251358   0.000000
 
 -0.3000000E+00  0.3000000E+00  0.0000000E+00  0.1200000E-01
    1      -12.771393   1.000000
    2       -0.385650   1.000000
    3        0.415135   1.000000
    4        2.168979   1.000000
    5       12.992908   0.000000
    6       14.805130   0.000000
    7       15.748736   0.000000
    8       20.269170   0.000000
    9       22.381249   0.000000
   10       24.570987   0.000000
   11       29.332993   0.000000
   12       31.135389   0.000000
   13       31.883766   0.000000
   14       35.301227   0.000000
   15       37.196666   0.000000
   16       41.065898   0.000000
   17       41.754900   0.000000
   18       44.745743   0.000000
 
  0.4000000E+00  0.4000000E+00  0.0000000E+00  0.6000000E-02
    1      -12.808504   1.000000
    2       -0.757660   1.000000
    3        1.797307   1.000000
    4        1.797309   1.000000
    5       12.418525   0.000000
    6       12.569800   0.000000
    7       15.977985   0.000000
    8       21.337296   0.000000
    9       21.337319   0.000000
   10       28.529115   0.000000
   11       28.555655   0.000000
   12       33.053568   0.000000
   13       33.053570   0.000000
   14       37.812527   0.000000
   15       37.812532   0.000000
   16       38.523165   0.000000
   17       39.362251   0.000000
   18       40.258370   0.000000
 
  0.5000000E+00  0.4000000E+00  0.0000000E+00  0.2400000E-01
    1      -12.688849   1.000000
    2       -0.842571   1.000000
    3        1.438011   1.000000
    4        1.750572   1.000000
    5       12.407071   0.000000
    6       13.020547   0.000000
    7       15.759678   0.000000
    8       21.318118   0.000000
    9       21.361636   0.000000
   10       28.417266   0.000000
   11       29.347068   0.000000
   12       31.984869   0.000000
   13       32.773959   0.000000
   14       38.092583   0.000000
   15       38.235910   0.000000
   16       40.126965   0.000000
   17       41.800740   0.000000
   18       43.062471   0.000000
 
 -0.4000000E+00  0.4000000E+00  0.0000000E+00  0.1200000E-01
    1      -12.642597   1.000000
    2       -0.604005   1.000000
    3        0.723894   1.000000
    4        1.823501   1.000000
    5       12.767652   0.000000
    6       13.984099   0.000000
    7       15.483808   0.000000
    8       20.949108   0.000000
    9       21.019183   0.000000
   10       29.070176   0.000000
   11       29.246077   0.000000
   12       30.401717   0.000000
   13       31.745935   0.000000
   14       38.375088   0.000000
   15       39.690415   0.000000
   16       40.034638   0.000000
   17       43.128564   0.000000
   18       44.057065   0.000000
 
  0.5000000E+00  0.5000000E+00  0.0000000E+00  0.3000000E-02
    1      -12.662028   1.000000
    2       -0.979047   1.000000
    3        1.690412   1.000000
    4        1.690414   1.000000
    5       12.094272   0.000000
    6       12.708277   0.000000
    7       15.844221   0.000000
    8       21.604468   0.000000
    9       21.604496   0.000000
   10       27.838574   0.000000
   11       29.525262   0.000000
   12       33.380045   0.000000
   13       33.380045   0.000000
   14       36.890924   0.000000
   15       39.671256   0.000000
   16       39.671256   0.000000
   17       41.189873   0.000000
   18       43.559484   0.000000
 
  0.3000000E+00  0.2000000E+00  0.1000000E+00  0.2400000E-01
    1      -13.538673   1.000000
    2        0.619467   1.000000
    3        2.260385   1.000000
    4        2.607228   1.000000
    5       10.310012   0.000000
    6       14.968957   0.000000
    7       18.717973   0.000000
    8       20.166346   0.000000
    9       20.486438   0.000000
   10       24.609993   0.000000
   11       27.411035   0.000000
   12       29.109232   0.000000
   13       31.033678   0.000000
   14       31.277526   0.000000
   15       36.236642   0.000000
   16       39.200886   0.000000
   17       40.622816   0.000000
   18       44.661978   0.000000
 
  0.4000000E+00  0.2000000E+00  0.1000000E+00  0.4800000E-01
    1      -13.213038   1.000000
    2       -0.203056   1.000000
    3        1.842343   1.000000
    4        2.421474   1.000000
    5       11.341103   0.000000
    6       14.553762   0.000000
    7       17.754971   0.000000
    8       20.039866   0.000000
    9       21.495547   0.000000
   10       24.911027   0.000000
   11       27.467943   0.000000
   12       31.020926   0.000000
   13       31.717631   0.000000
   14       33.828657   0.000000
   15       35.321897   0.000000
   16       38.460736   0.000000
   17       41.684949   0.000000
   18       43.209745   0.000000
 
  0.5000000E+00  0.2000000E+00  0.1000000E+00  0.4800000E-01
    1      -12.927531   1.000000
    2       -0.857365   1.000000
    3        1.568371   1.000000
    4        2.245414   1.000000
    5       11.871405   0.000000
    6       14.815245   0.000000
    7       17.070951   0.000000
    8       19.709013   0.000000
    9       22.829064   0.000000
   10       24.993746   0.000000
   11       27.334687   0.000000
   12       31.805896   0.000000
   13       32.418316   0.000000
   14       34.260701   0.000000
   15       34.736585   0.000000
   16       39.854312   0.000000
   17       41.852616   0.000000
   18       43.934169   0.000000
 
 -0.4000000E+00  0.2000000E+00  0.1000000E+00  0.2400000E-01
    1      -12.812274   1.000000
    2       -1.108048   1.000000
    3        1.475493   1.000000
    4        2.174818   1.000000
    5       11.973816   0.000000
    6       15.087220   0.000000
    7       16.841727   0.000000
    8       19.572580   0.000000
    9       23.513259   0.000000
   10       24.790625   0.000000
   11       27.419848   0.000000
   12       31.931262   0.000000
   13       32.370364   0.000000
   14       33.331930   0.000000
   15       37.027488   0.000000
   16       37.232600   0.000000
   17       45.679799   0.000000
   18       46.598273   0.000000
 
  0.4000000E+00  0.3000000E+00  0.1000000E+00  0.2400000E-01
    1      -13.118273   1.000000
    2       -0.212513   1.000000
    3        1.795567   1.000000
    4        2.139843   1.000000
    5       11.884538   0.000000
    6       13.730803   0.000000
    7       17.034621   0.000000
    8       20.319728   0.000000
    9       21.081064   0.000000
   10       26.316762   0.000000
   11       30.135529   0.000000
   12       30.325519   0.000000
   13       31.143106   0.000000
   14       34.990181   0.000000
   15       35.618300   0.000000
   16       38.423879   0.000000
   17       39.963790   0.000000
   18       43.932620   0.000000
 
  0.5000000E+00  0.3000000E+00  0.1000000E+00  0.4800000E-01
    1      -12.867721   1.000000
    2       -0.556389   1.000000
    3        1.277826   1.000000
    4        1.959931   1.000000
    5       12.685068   0.000000
    6       13.964558   0.000000
    7       16.187686   0.000000
    8       19.992944   0.000000
    9       21.940945   0.000000
   10       26.305335   0.000000
   11       30.201128   0.000000
   12       30.540572   0.000000
   13       31.971735   0.000000
   14       35.321011   0.000000
   15       35.686987   0.000000
   16       41.016562   0.000000
   17       41.552956   0.000000
   18       43.373137   0.000000
 
 -0.4000000E+00  0.3000000E+00  0.1000000E+00  0.4800000E-01
    1      -12.725401   1.000000
    2       -0.656828   1.000000
    3        0.821899   1.000000
    4        1.910469   1.000000
    5       12.969319   0.000000
    6       14.719655   0.000000
    7       15.723865   0.000000
    8       19.631581   0.000000
    9       22.570268   0.000000
   10       25.644893   0.000000
   11       30.122856   0.000000
   12       30.657198   0.000000
   13       31.862145   0.000000
   14       34.905661   0.000000
   15       37.854806   0.000000
   16       39.724543   0.000000
   17       44.200519   0.000000
   18       44.656356   0.000000
 
 -0.3000000E+00  0.3000000E+00  0.1000000E+00  0.4800000E-01
    1      -12.758365   1.000000
    2       -0.560272   1.000000
    3        0.701933   1.000000
    4        2.018637   1.000000
    5       13.026894   0.000000
    6       14.730173   0.000000
    7       15.815043   0.000000
    8       19.660214   0.000000
    9       23.283974   0.000000
   10       24.304243   0.000000
   11       29.729339   0.000000
   12       31.100937   0.000000
   13       31.846209   0.000000
   14       35.334028   0.000000
   15       36.704782   0.000000
   16       40.915560   0.000000
   17       42.226096   0.000000
   18       44.864603   0.000000
 
 -0.2000000E+00  0.3000000E+00  0.1000000E+00  0.2400000E-01
    1      -12.950025   1.000000
    2       -0.424339   1.000000
    3        1.116435   1.000000
    4        2.225241   1.000000
    5       12.474626   0.000000
    6       14.378307   0.000000
    7       16.571825   0.000000
    8       19.967620   0.000000
    9       22.492122   0.000000
   10       24.485508   0.000000
   11       29.173257   0.000000
   12       31.130582   0.000000
   13       31.742952   0.000000
   14       34.361416   0.000000
   15       36.405975   0.000000
   16       40.697916   0.000000
   17       40.919542   0.000000
   18       43.816740   0.000000
 
  0.5000000E+00  0.4000000E+00  0.1000000E+00  0.2400000E-01
    1      -12.775670   1.000000
    2       -0.665050   1.000000
    3        1.455517   1.000000
    4        1.718469   1.000000
    5       12.929990   0.000000
    6       13.033812   0.000000
    7       15.812594   0.000000
    8       20.479024   0.000000
    9       21.764848   0.000000
   10       27.933692   0.000000
   11       29.388139   0.000000
   12       31.409549   0.000000
   13       32.925351   0.000000
   14       36.637525   0.000000
   15       36.821290   0.000000
   16       40.126820   0.000000
   17       41.494753   0.000000
   18       43.301685   0.000000
 
 -0.4000000E+00  0.4000000E+00  0.1000000E+00  0.4800000E-01
    1      -12.660578   1.000000
    2       -0.540001   1.000000
    3        0.811121   1.000000
    4        1.646364   1.000000
    5       13.155036   0.000000
    6       14.061414   0.000000
    7       15.396444   0.000000
    8       19.722401   0.000000
    9       22.257351   0.000000
   10       27.510953   0.000000
   11       29.398134   0.000000
   12       30.823823   0.000000
   13       32.808590   0.000000
   14       36.891694   0.000000
   15       38.714987   0.000000
   16       41.518508   0.000000
   17       41.788189   0.000000
   18       44.072994   0.000000
 
 -0.3000000E+00  0.4000000E+00  0.1000000E+00  0.2400000E-01
    1      -12.654783   1.000000
    2       -0.075126   1.000000
    3        0.054453   1.000000
    4        1.780048   1.000000
    5       13.484546   0.000000
    6       14.961765   0.000000
    7       14.971235   0.000000
    8       19.375247   0.000000
    9       22.611021   0.000000
   10       25.859014   0.000000
   11       29.903584   0.000000
   12       31.396521   0.000000
   13       31.651432   0.000000
   14       37.235058   0.000000
   15       38.000599   0.000000
   16       41.008013   0.000000
   17       42.589978   0.000000
   18       44.393913   0.000000
 
 -0.4000000E+00  0.5000000E+00  0.1000000E+00  0.1200000E-01
    1      -12.644782   1.000000
    2       -0.789532   1.000000
    3        1.332802   1.000000
    4        1.543394   1.000000
    5       12.656164   0.000000
    6       13.287373   0.000000
    7       15.641756   0.000000
    8       20.472485   0.000000
    9       22.023895   0.000000
   10       28.421890   0.000000
   11       30.013700   0.000000
   12       30.087501   0.000000
   13       33.610185   0.000000
   14       38.576310   0.000000
   15       38.683644   0.000000
   16       40.662588   0.000000
   17       42.231123   0.000000
   18       42.935888   0.000000
 
 -0.4000000E+00  0.4000000E+00  0.2000000E+00  0.2400000E-01
    1      -12.705901   1.000000
    2       -0.400752   1.000000
    3        0.693056   1.000000
    4        1.661867   1.000000
    5       13.832568   0.000000
    6       14.019681   0.000000
    7       15.412695   0.000000
    8       19.190566   0.000000
    9       23.206172   0.000000
   10       25.315654   0.000000
   11       30.029131   0.000000
   12       31.355148   0.000000
   13       32.345627   0.000000
   14       36.365937   0.000000
   15       36.932188   0.000000
   16       41.207434   0.000000
   17       42.957125   0.000000
   18       44.258306   0.000000
 
 -0.3000000E+00  0.4000000E+00  0.2000000E+00  0.2400000E-01
    1      -12.643003   1.000000
    2       -0.160293   1.000000
    3        0.304473   1.000000
    4        1.519881   1.000000
    5       14.025657   0.000000