       N       E                     dE             d eps       ncg     rms          rms(c)
DAV:   1     0.752601637034E+00    0.75260E+00   -0.49930E+03  1728   0.390E+02
DAV:   2    -0.134401199398E+02   -0.14193E+02   -0.14193E+02  2520   0.591E+01
DAV:   3    -0.134688250154E+02   -0.28705E-01   -0.28705E-01  1764   0.307E+00
DAV:   4    -0.134688419804E+02   -0.16965E-04   -0.16965E-04  2988   0.682E-02
DAV:   5    -0.134688419811E+02   -0.70304E-09   -0.70298E-09  1836   0.197E-04    0.720E+00
DAV:   6    -0.119321287043E+02    0.15367E+01   -0.10256E+01  1818   0.997E+00    0.229E+00
DAV:   7    -0.119179782256E+02    0.14150E-01   -0.52033E-02  2196   0.135E+00    0.133E+00
DAV:   8    -0.119118372009E+02    0.61410E-02   -0.26600E-02  2448   0.109E+00    0.179E-01
DAV:   9    -0.119117261732E+02    0.11103E-03   -0.12795E-04  2214   0.509E-02    0.125E-01
DAV:  10    -0.119117770308E+02   -0.50858E-04   -0.25825E-04  2214   0.751E-02    0.599E-03
DAV:  11    -0.119117771927E+02   -0.16185E-06   -0.73733E-06  2178   0.109E-02    0.328E-03
DAV:  12    -0.119117771648E+02    0.27896E-07   -0.35118E-07  2412   0.258E-03
   1 F= -.11911777E+02 E0= -.11911777E+02  d E =-.119118E+02
