 vasp.5.4.4.18Apr17-6-g9f103f2a35 (build Apr 25 2017 10:43:04) complex          
  
 executed on             LinuxIFC date 2019.10.28  21:34:36
 running on   36 total cores
 distrk:  each k-point on   18 cores,    2 groups
 distr:  one band on NCORES_PER_BAND=   1 cores,   18 groups


--------------------------------------------------------------------------------------------------------


 INCAR:
 POTCAR:    PAW_PBE Mg 13Apr2007                  
 POTCAR:    PAW_PBE O 08Apr2002                   

 ----------------------------------------------------------------------------- 
|                                                                             |
|           W    W    AA    RRRRR   N    N  II  N    N   GGGG   !!!           |
|           W    W   A  A   R    R  NN   N  II  NN   N  G    G  !!!           |
|           W    W  A    A  R    R  N N  N  II  N N  N  G       !!!           |
|           W WW W  AAAAAA  RRRRR   N  N N  II  N  N N  G  GGG   !            |
|           WW  WW  A    A  R   R   N   NN  II  N   NN  G    G                |
|           W    W  A    A  R    R  N    N  II  N    N   GGGG   !!!           |
|                                                                             |
|      For optimal performance we recommend to set                            |
|        NCORE= 4 - approx SQRT( number of cores)                             |
|      NCORE specifies how many cores store one orbital (NPAR=cpu/NCORE).     |
|      This setting can  greatly improve the performance of VASP for DFT.     |
|      The default,   NCORE=1            might be grossly inefficient         |
|      on modern multi-core architectures or massively parallel machines.     |
|      Do your own testing !!!!                                               |
|      Unfortunately you need to use the default for GW and RPA calculations. |
|      (for HF NCORE is supported but not extensively tested yet)             |
|                                                                             |
 ----------------------------------------------------------------------------- 


 ----------------------------------------------------------------------------- 
|                                                                             |
|           W    W    AA    RRRRR   N    N  II  N    N   GGGG   !!!           |
|           W    W   A  A   R    R  NN   N  II  NN   N  G    G  !!!           |
|           W    W  A    A  R    R  N N  N  II  N N  N  G       !!!           |
|           W WW W  AAAAAA  RRRRR   N  N N  II  N  N N  G  GGG   !            |
|           WW  WW  A    A  R   R   N   NN  II  N   NN  G    G                |
|           W    W  A    A  R    R  N    N  II  N    N   GGGG   !!!           |
|                                                                             |
|      You have enabled k-point parallelism (KPAR>1).                         |
|      This developmental code was originally  written by Paul Kent at ORNL,  |
|      and carefully double checked in Vienna.                                |
|      GW as well as linear response parallelism added by Martijn Marsman     |
|      and Georg Kresse.                                                      |
|      Carefully verify results versus KPAR=1.                                |
|      Report problems to Paul Kent and Vienna.                               |
|                                                                             |
 ----------------------------------------------------------------------------- 

 POTCAR:    PAW_PBE Mg 13Apr2007                  
   VRHFIN =Mg: s2p0                                                             
   LEXCH  = PE                                                                  
   EATOM  =    23.0369 eV,    1.6932 Ry                                         
                                                                                
   TITEL  = PAW_PBE Mg 13Apr2007                                                
   LULTRA =        F    use ultrasoft PP ?                                      
   IUNSCR =        1    unscreen: 0-lin 1-nonlin 2-no                           
   RPACOR =    1.500    partial core radius                                     
   POMASS =   24.305; ZVAL   =    2.000    mass and valenz                      
   RCORE  =    2.000    outmost cutoff radius                                   
   RWIGS  =    2.880; RWIGS  =    1.524    wigner-seitz radius (au A)           
   ENMAX  =  200.000; ENMIN  =  100.000 eV                                      
   RCLOC  =    1.506    cutoff for local pot                                    
   LCOR   =        T    correct aug charges                                     
   LPAW   =        T    paw PP                                                  
   EAUG   =  454.734                                                            
   DEXC   =    0.000                                                            
   RMAX   =    2.045    core radius for proj-oper                               
   RAUG   =    1.300    factor for augmentation sphere                          
   RDEP   =    2.025    radius for radial grids                                 
   RDEPT  =    1.942    core radius for aug-charge                              
                                                                                
   Atomic configuration                                                         
    6 entries                                                                   
     n  l   j            E        occ.                                          
     1  0  0.50     -1259.6230   2.0000                                         
     2  0  0.50       -79.8442   2.0000                                         
     2  1  1.50       -46.6121   6.0000                                         
     3  0  0.50        -4.7055   2.0000                                         
     3  1  0.50        -1.3660   0.0000                                         
     3  2  1.50        -1.3606   0.0000                                         
   Description                                                                  
     l       E           TYP  RCUT    TYP  RCUT                                 
     0     -4.7054661     23  2.000                                             
     0     27.2116520     23  2.000                                             
     1      1.3605826     23  2.000                                             
     1     27.2116520     23  2.000                                             
     2     -1.3605826     23  2.000                                             
  local pseudopotential read in
  partial core-charges read in
  partial kinetic energy density read in
  atomic valenz-charges read in
  non local Contribution for L=           0  read in
    real space projection operators read in
  non local Contribution for L=           0  read in
    real space projection operators read in
  non local Contribution for L=           1  read in
    real space projection operators read in
  non local Contribution for L=           1  read in
    real space projection operators read in
  non local Contribution for L=           2  read in
    real space projection operators read in
    PAW grid and wavefunctions read in
 
   number of l-projection  operators is LMAX  =           5
   number of lm-projection operators is LMMAX =          13
 
 POTCAR:    PAW_PBE O 08Apr2002                   
   VRHFIN =O: s2p4                                                              
   LEXCH  = PE                                                                  
   EATOM  =   432.3788 eV,   31.7789 Ry                                         
                                                                                
   TITEL  = PAW_PBE O 08Apr2002                                                 
   LULTRA =        F    use ultrasoft PP ?                                      
   IUNSCR =        1    unscreen: 0-lin 1-nonlin 2-no                           
   RPACOR =    1.200    partial core radius                                     
   POMASS =   16.000; ZVAL   =    6.000    mass and valenz                      
   RCORE  =    1.520    outmost cutoff radius                                   
   RWIGS  =    1.550; RWIGS  =    0.820    wigner-seitz radius (au A)           
   ENMAX  =  400.000; ENMIN  =  300.000 eV                                      
   ICORE  =        2    local potential                                         
   LCOR   =        T    correct aug charges                                     
   LPAW   =        T    paw PP                                                  
   EAUG   =  605.392                                                            
   DEXC   =    0.000                                                            
   RMAX   =    1.553    core radius for proj-oper                               
   RAUG   =    1.300    factor for augmentation sphere                          
   RDEP   =    1.550    radius for radial grids                                 
   RDEPT  =    1.329    core radius for aug-charge                              
                                                                                
   Atomic configuration                                                         
    4 entries                                                                   
     n  l   j            E        occ.                                          
     1  0  0.50      -514.6923   2.0000                                         
     2  0  0.50       -23.9615   2.0000                                         
     2  1  0.50        -9.0305   4.0000                                         
     3  2  1.50        -9.5241   0.0000                                         
   Description                                                                  
     l       E           TYP  RCUT    TYP  RCUT                                 
     0    -23.9615318     23  1.200                                             
     0     -9.5240782     23  1.200                                             
     1     -9.0304911     23  1.520                                             
     1      8.1634956     23  1.520                                             
     2     -9.5240782      7  1.500                                             
  local pseudopotential read in
  partial core-charges read in
  partial kinetic energy density read in
  kinetic energy density of atom read in
  atomic valenz-charges read in
  non local Contribution for L=           0  read in
    real space projection operators read in
  non local Contribution for L=           0  read in
    real space projection operators read in
  non local Contribution for L=           1  read in
    real space projection operators read in
  non local Contribution for L=           1  read in
    real space projection operators read in
    PAW grid and wavefunctions read in
 
   number of l-projection  operators is LMAX  =           4
   number of lm-projection operators is LMMAX =           8
 
  PAW_PBE Mg 13Apr2007                  :
 energy of atom  1       EATOM=  -23.0369
 kinetic energy error for atom=    0.0000 (will be added to EATOM!!)
  PAW_PBE O 08Apr2002                   :
 energy of atom  2       EATOM= -432.3788
 kinetic energy error for atom=    0.0208 (will be added to EATOM!!)
 
 
 POSCAR: Mg1 O1                                  
  positions in direct lattice
  No initial velocities read in
 exchange correlation table for  LEXCH =        8
   RHO(1)=    0.500       N(1)  =     2000
   RHO(2)=  100.500       N(2)  =     4000
 


--------------------------------------------------------------------------------------------------------


 ion  position               nearest neighbor table
   1  0.000  0.000  0.000-   2 2.12   2 2.12   2 2.12   2 2.12   2 2.12   2 2.12
   2  0.500  0.500  0.500-   1 2.12   1 2.12   1 2.12   1 2.12   1 2.12   1 2.12
 
  LATTYP: Found a face centered cubic cell.
 ALAT       =     4.2467500000
  
  Lattice vectors:
  
 A1 = (   0.0000000000,   2.1233750000,   2.1233750000)
 A2 = (   2.1233750000,   0.0000000000,   2.1233750000)
 A3 = (   2.1233750000,   2.1233750000,   0.0000000000)


Analysis of symmetry for initial positions (statically):
=====================================================================
 Subroutine PRICEL returns:
 Original cell was already a primitive cell.
 

 Routine SETGRP: Setting up the symmetry group for a 
 face centered cubic supercell.


 Subroutine GETGRP returns: Found 48 space group operations
 (whereof 48 operations were pure point group operations)
 out of a pool of 48 trial point group operations.


The static configuration has the point symmetry O_h .


Analysis of symmetry for dynamics (positions and initial velocities):
=====================================================================
 Subroutine PRICEL returns:
 Original cell was already a primitive cell.
 

 Routine SETGRP: Setting up the symmetry group for a 
 face centered cubic supercell.


 Subroutine GETGRP returns: Found 48 space group operations
 (whereof 48 operations were pure point group operations)
 out of a pool of 48 trial point group operations.


The dynamic configuration has the point symmetry O_h .


 Subroutine INISYM returns: Found 48 space group operations
 (whereof 48 operations are pure point group operations),
 and found     1 'primitive' translations

 
 
 KPOINTS: Generated by vise. Mode: primitive_unifo

Automatic generation of k-mesh.
Space group operators:
 irot       det(A)        alpha          n_x          n_y          n_z        tau_x        tau_y        tau_z
    1     1.000000     0.000000     1.000000     0.000000     0.000000     0.000000     0.000000     0.000000
    2    -1.000000     0.000000     1.000000     0.000000     0.000000     0.000000     0.000000     0.000000
    3     1.000000   120.000000    -0.577350    -0.577350    -0.577350     0.000000     0.000000     0.000000
    4    -1.000000   120.000000    -0.577350    -0.577350    -0.577350     0.000000     0.000000     0.000000
    5     1.000000   120.000000     0.577350     0.577350     0.577350     0.000000     0.000000     0.000000
    6    -1.000000   120.000000     0.577350     0.577350     0.577350     0.000000     0.000000     0.000000
    7     1.000000    90.000000     0.000000     0.000000    -1.000000     0.000000     0.000000     0.000000
    8    -1.000000    90.000000     0.000000     0.000000    -1.000000     0.000000     0.000000     0.000000
    9     1.000000   180.000000     0.000000     0.707107     0.707107     0.000000     0.000000     0.000000
   10    -1.000000   180.000000     0.000000     0.707107     0.707107     0.000000     0.000000     0.000000
   11     1.000000    90.000000     0.000000     1.000000     0.000000     0.000000     0.000000     0.000000
   12    -1.000000    90.000000     0.000000     1.000000     0.000000     0.000000     0.000000     0.000000
   13     1.000000   180.000000     0.000000     0.000000     1.000000     0.000000     0.000000     0.000000
   14    -1.000000   180.000000     0.000000     0.000000     1.000000     0.000000     0.000000     0.000000
   15     1.000000   120.000000    -0.577350     0.577350     0.577350     0.000000     0.000000     0.000000
   16    -1.000000   120.000000    -0.577350     0.577350     0.577350     0.000000     0.000000     0.000000
   17     1.000000   120.000000    -0.577350     0.577350    -0.577350     0.000000     0.000000     0.000000
   18    -1.000000   120.000000    -0.577350     0.577350    -0.577350     0.000000     0.000000     0.000000
   19     1.000000    90.000000     0.000000     0.000000     1.000000     0.000000     0.000000     0.000000
   20    -1.000000    90.000000     0.000000     0.000000     1.000000     0.000000     0.000000     0.000000
   21     1.000000    90.000000    -1.000000     0.000000     0.000000     0.000000     0.000000     0.000000
   22    -1.000000    90.000000    -1.000000     0.000000     0.000000     0.000000     0.000000     0.000000
   23     1.000000   180.000000     0.707107     0.000000     0.707107     0.000000     0.000000     0.000000
   24    -1.000000   180.000000     0.707107     0.000000     0.707107     0.000000     0.000000     0.000000
   25     1.000000   120.000000     0.577350    -0.577350     0.577350     0.000000     0.000000     0.000000
   26    -1.000000   120.000000     0.577350    -0.577350     0.577350     0.000000     0.000000     0.000000
   27     1.000000   120.000000    -0.577350    -0.577350     0.577350     0.000000     0.000000     0.000000
   28    -1.000000   120.000000    -0.577350    -0.577350     0.577350     0.000000     0.000000     0.000000
   29     1.000000   180.000000     1.000000     0.000000     0.000000     0.000000     0.000000     0.000000
   30    -1.000000   180.000000     1.000000     0.000000     0.000000     0.000000     0.000000     0.000000
   31     1.000000    90.000000     0.000000    -1.000000     0.000000     0.000000     0.000000     0.000000
   32    -1.000000    90.000000     0.000000    -1.000000     0.000000     0.000000     0.000000     0.000000
   33     1.000000   180.000000     0.707107     0.707107     0.000000     0.000000     0.000000     0.000000
   34    -1.000000   180.000000     0.707107     0.707107     0.000000     0.000000     0.000000     0.000000
   35     1.000000    90.000000     1.000000     0.000000     0.000000     0.000000     0.000000     0.000000
   36    -1.000000    90.000000     1.000000     0.000000     0.000000     0.000000     0.000000     0.000000
   37     1.000000   120.000000     0.577350    -0.577350    -0.577350     0.000000     0.000000     0.000000
   38    -1.000000   120.000000     0.577350    -0.577350    -0.577350     0.000000     0.000000     0.000000
   39     1.000000   180.000000     0.000000     1.000000     0.000000     0.000000     0.000000     0.000000
   40    -1.000000   180.000000     0.000000     1.000000     0.000000     0.000000     0.000000     0.000000
   41     1.000000   120.000000     0.577350     0.577350    -0.577350     0.000000     0.000000     0.000000
   42    -1.000000   120.000000     0.577350     0.577350    -0.577350     0.000000     0.000000     0.000000
   43     1.000000   180.000000     0.000000    -0.707107     0.707107     0.000000     0.000000     0.000000
   44    -1.000000   180.000000     0.000000    -0.707107     0.707107     0.000000     0.000000     0.000000
   45     1.000000   180.000000     0.707107    -0.707107     0.000000     0.000000     0.000000     0.000000
   46    -1.000000   180.000000     0.707107    -0.707107     0.000000     0.000000     0.000000     0.000000
   47     1.000000   180.000000     0.707107     0.000000    -0.707107     0.000000     0.000000     0.000000
   48    -1.000000   180.000000     0.707107     0.000000    -0.707107     0.000000     0.000000     0.000000
 
 Subroutine IBZKPT returns following result:
 ===========================================
 
 Found     47 irreducible k-points:
 
 Following reciprocal coordinates:
            Coordinates               Weight
  0.000000  0.000000  0.000000      1.000000
  0.100000  0.000000  0.000000      8.000000
  0.200000  0.000000  0.000000      8.000000
  0.300000  0.000000  0.000000      8.000000
  0.400000  0.000000  0.000000      8.000000
  0.500000  0.000000  0.000000      4.000000
  0.100000  0.100000  0.000000      6.000000
  0.200000  0.100000  0.000000     24.000000
  0.300000  0.100000  0.000000     24.000000
  0.400000  0.100000  0.000000     24.000000
  0.500000  0.100000  0.000000     24.000000
 -0.400000  0.100000  0.000000     24.000000
 -0.300000  0.100000  0.000000     24.000000
 -0.200000  0.100000  0.000000     24.000000
 -0.100000  0.100000  0.000000     12.000000
  0.200000  0.200000  0.000000      6.000000
  0.300000  0.200000  0.000000     24.000000
  0.400000  0.200000  0.000000     24.000000
  0.500000  0.200000  0.000000     24.000000
 -0.400000  0.200000  0.000000     24.000000
 -0.300000  0.200000  0.000000     24.000000
 -0.200000  0.200000  0.000000     12.000000
  0.300000  0.300000  0.000000      6.000000
  0.400000  0.300000  0.000000     24.000000
  0.500000  0.300000  0.000000     24.000000
 -0.400000  0.300000  0.000000     24.000000
 -0.300000  0.300000  0.000000     12.000000
  0.400000  0.400000  0.000000      6.000000
  0.500000  0.400000  0.000000     24.000000
 -0.400000  0.400000  0.000000     12.000000
  0.500000  0.500000  0.000000      3.000000
  0.300000  0.200000  0.100000     24.000000
  0.400000  0.200000  0.100000     48.000000
  0.500000  0.200000  0.100000     48.000000
 -0.400000  0.200000  0.100000     24.000000
  0.400000  0.300000  0.100000     24.000000
  0.500000  0.300000  0.100000     48.000000
 -0.400000  0.300000  0.100000     48.000000
 -0.300000  0.300000  0.100000     48.000000
 -0.200000  0.300000  0.100000     24.000000
  0.500000  0.400000  0.100000     24.000000
 -0.400000  0.400000  0.100000     48.000000
 -0.300000  0.400000  0.100000     24.000000
 -0.400000  0.500000  0.100000     12.000000
 -0.400000  0.400000  0.200000     24.000000
 -0.300000  0.400000  0.200000     24.000000
 -0.300000  0.500000  0.200000     12.000000
 
 Following cartesian coordinates:
            Coordinates               Weight
  0.000000  0.000000  0.000000      1.000000
 -0.023547  0.023547  0.023547      8.000000
 -0.047095  0.047095  0.047095      8.000000
 -0.070642  0.070642  0.070642      8.000000
 -0.094190  0.094190  0.094190      8.000000
 -0.117737  0.117737  0.117737      4.000000
  0.000000  0.000000  0.047095      6.000000
 -0.023547  0.023547  0.070642     24.000000
 -0.047095  0.047095  0.094190     24.000000
 -0.070642  0.070642  0.117737     24.000000
 -0.094190  0.094190  0.141285     24.000000
  0.117737 -0.117737 -0.070642     24.000000
  0.094190 -0.094190 -0.047095     24.000000
  0.070642 -0.070642 -0.023547     24.000000
  0.047095 -0.047095  0.000000     12.000000
  0.000000  0.000000  0.094190      6.000000
 -0.023547  0.023547  0.117737     24.000000
 -0.047095  0.047095  0.141285     24.000000
 -0.070642  0.070642  0.164832     24.000000
  0.141285 -0.141285 -0.047095     24.000000
  0.117737 -0.117737 -0.023547     24.000000
  0.094190 -0.094190  0.000000     12.000000
  0.000000  0.000000  0.141285      6.000000
 -0.023547  0.023547  0.164832     24.000000
 -0.047095  0.047095  0.188379     24.000000
  0.164832 -0.164832 -0.023547     24.000000
  0.141285 -0.141285  0.000000     12.000000
  0.000000  0.000000  0.188379      6.000000
 -0.023547  0.023547  0.211927     24.000000
  0.188379 -0.188379  0.000000     12.000000
  0.000000  0.000000  0.235474      3.000000
 -0.000000  0.047095  0.094190     24.000000
 -0.023547  0.070642  0.117737     48.000000
 -0.047095  0.094190  0.141285     48.000000
  0.164832 -0.117737 -0.070642     24.000000
 -0.000000  0.047095  0.141285     24.000000
 -0.023547  0.070642  0.164832     48.000000
  0.188379 -0.141285 -0.047095     48.000000
  0.164832 -0.117737 -0.023547     48.000000
  0.141285 -0.094190 -0.000000     24.000000
  0.000000  0.047095  0.188379     24.000000
  0.211927 -0.164832 -0.023547     48.000000
  0.188379 -0.141285  0.000000     24.000000
  0.235474 -0.188379  0.000000     12.000000
  0.235474 -0.141285 -0.047095     24.000000
  0.211927 -0.117737 -0.023547     24.000000
  0.235474 -0.141285 -0.000000     12.000000
 


--------------------------------------------------------------------------------------------------------




 Dimension of arrays:
   k-points           NKPTS =     47   k-points in BZ     NKDIM =     47   number of bands    NBANDS=     18
   number of dos      NEDOS =    301   number of ions     NIONS =      2
   non local maximal  LDIM  =      5   non local SUM 2l+1 LMDIM =     13
   total plane-waves  NPLWV =   5832
   max r-space proj   IRMAX =      1   max aug-charges    IRDMAX=  13137
   dimension x,y,z NGX =    18 NGY =   18 NGZ =   18
   dimension x,y,z NGXF=    36 NGYF=   36 NGZF=   36
   support grid    NGXF=    36 NGYF=   36 NGZF=   36
   ions per type =               1   1
   NGX,Y,Z   is equivalent  to a cutoff of   9.97,  9.97,  9.97 a.u.
   NGXF,Y,Z  is equivalent  to a cutoff of  19.93, 19.93, 19.93 a.u.

 SYSTEM =  unknown system                          
 POSCAR =  Mg1 O1                                  

 Startparameter for this run:
   NWRITE =      2    write-flag & timer
   PREC   = n         normal or accurate (medium, high low for compatibility)
   ISTART =      0    job   : 0-new  1-cont  2-samecut
   ICHARG =      2    charge: 1-file 2-atom 10-const
   ISPIN  =      1    spin polarized calculation?
   LNONCOLLINEAR =      F non collinear calculations
   LSORBIT =      F    spin-orbit coupling
   INIWAV =      1    electr: 0-lowe 1-rand  2-diag
   LASPH  =      T    aspherical Exc in radial PAW
   METAGGA=      F    non-selfconsistent MetaGGA calc.

 Electronic Relaxation 1
   ENCUT  =  520.0 eV  38.22 Ry    6.18 a.u.   5.58  5.58  5.58*2*pi/ulx,y,z
   ENINI  =  520.0     initial cutoff
   ENAUG  =  605.4 eV  augmentation charge cutoff
   NELM   =    100;   NELMIN=  2; NELMDL= -5     # of ELM steps 
   EDIFF  = 0.1E-06   stopping-criterion for ELM
   LREAL  =      F    real-space projection
   NLSPLINE    = F    spline interpolate recip. space projectors
   LCOMPAT=      F    compatible to vasp.4.4
   GGA_COMPAT  = T    GGA compatible to vasp.4.4-vasp.4.6
   LMAXPAW     = -100 max onsite density
   LMAXMIX     =    2 max onsite mixed and CHGCAR
   VOSKOWN=      0    Vosko Wilk Nusair interpolation
   ROPT   =    0.00000   0.00000
 Ionic relaxation
   EDIFFG = -.5E-02   stopping-criterion for IOM
   NSW    =     50    number of steps for IOM
   NBLOCK =      1;   KBLOCK =     50    inner block; outer block 
   IBRION =      2    ionic relax: 0-MD 1-quasi-New 2-CG
   NFREE  =      1    steps in history (QN), initial steepest desc. (CG)
   ISIF   =      3    stress and relaxation
   IWAVPR =     11    prediction:  0-non 1-charg 2-wave 3-comb
   ISYM   =      2    0-nonsym 1-usesym 2-fastsym
   LCORR  =      T    Harris-Foulkes like correction to forces

   POTIM  = 0.5000    time-step for ionic-motion
   TEIN   =    0.0    initial temperature
   TEBEG  =    0.0;   TEEND  =   0.0 temperature during run
   SMASS  =  -3.00    Nose mass-parameter (am)
   estimated Nose-frequenzy (Omega)   =  0.10E-29 period in steps =****** mass=  -0.206E-27a.u.
   SCALEE = 1.0000    scale energy and forces
   NPACO  =    256;   APACO  = 16.0  distance and # of slots for P.C.
   PSTRESS=    0.0 pullay stress

  Mass of Ions in am
   POMASS =  24.30 16.00
  Ionic Valenz
   ZVAL   =   2.00  6.00
  Atomic Wigner-Seitz radii
   RWIGS  =  -1.00 -1.00
  virtual crystal weights 
   VCA    =   1.00  1.00
   NELECT =       8.0000    total number of electrons
   NUPDOWN=      -1.0000    fix difference up-down

 DOS related values:
   EMIN   =  10.00;   EMAX   =-10.00  energy-range for DOS
   EFERMI =   0.00
   ISMEAR =     0;   SIGMA  =   0.10  broadening in eV -4-tet -1-fermi 0-gaus

 Electronic relaxation 2 (details)
   IALGO  =     38    algorithm
   LDIAG  =      T    sub-space diagonalisation (order eigenvalues)
   LSUBROT=      F    optimize rotation matrix (better conditioning)
   TURBO    =      0    0=normal 1=particle mesh
   IRESTART =      0    0=no restart 2=restart with 2 vectors
   NREBOOT  =      0    no. of reboots
   NMIN     =      0    reboot dimension
   EREF     =   0.00    reference energy to select bands
   IMIX   =      4    mixing-type and parameters
     AMIX     =   0.40;   BMIX     =  1.00
     AMIX_MAG =   1.60;   BMIX_MAG =  1.00
     AMIN     =   0.10
     WC   =   100.;   INIMIX=   1;  MIXPRE=   1;  MAXMIX= -45

 Intra band minimization:
   WEIMIN = 0.0010     energy-eigenvalue tresh-hold
   EBREAK =  0.14E-08  absolut break condition
   DEPER  =   0.30     relativ break condition  

   TIME   =   0.40     timestep for ELM

  volume/ion in A,a.u.               =       9.57        64.61
  Fermi-wavevector in a.u.,A,eV,Ry     =   1.223869  2.312776 20.379546  1.497854
  Thomas-Fermi vector in A             =   2.358964
 
 Write flags
   LWAVE        =      F    write WAVECAR
   LDOWNSAMPLE  =      F    k-point downsampling of WAVECAR
   LCHARG       =      F    write CHGCAR
   LVTOT        =      F    write LOCPOT, total local potential
   LVHAR        =      F    write LOCPOT, Hartree potential only
   LELF         =      F    write electronic localiz. function (ELF)
   LORBIT       =     12    0 simple, 1 ext, 2 COOP (PROOUT), +10 PAW based schemes


 Dipole corrections
   LMONO  =      F    monopole corrections only (constant potential shift)
   LDIPOL =      F    correct potential (dipole corrections)
   IDIPOL =      0    1-x, 2-y, 3-z, 4-all directions 
   EPSILON=  1.0000000 bulk dielectric constant

 Exchange correlation treatment:
   GGA     =    --    GGA type
   LEXCH   =     8    internal setting for exchange type
   VOSKOWN=      0    Vosko Wilk Nusair interpolation
   LHFCALC =     F    Hartree Fock is set to
   LHFONE  =     F    Hartree Fock one center treatment
   AEXX    =    0.0000 exact exchange contribution

 Linear response parameters
   LEPSILON=     F    determine dielectric tensor
   LRPA    =     F    only Hartree local field effects (RPA)
   LNABLA  =     F    use nabla operator in PAW spheres
   LVEL    =     F    velocity operator in full k-point grid
   LINTERFAST=   F  fast interpolation
   KINTER  =     0    interpolate to denser k-point grid
   CSHIFT  =0.1000    complex shift for real part using Kramers Kronig
   OMEGAMAX=  -1.0    maximum frequency
   DEG_THRESHOLD= 0.2000000E-02 threshold for treating states as degnerate
   RTIME   =   -0.100 relaxation time in fs
  (WPLASMAI=    0.000 imaginary part of plasma frequency in eV, 0.658/RTIME)
   DFIELD  = 0.0000000 0.0000000 0.0000000 field for delta impulse in time
 
 Orbital magnetization related:
   ORBITALMAG=     F  switch on orbital magnetization
   LCHIMAG   =     F  perturbation theory with respect to B field
   DQ        =  0.001000  dq finite difference perturbation B field
   LLRAUG    =     F  two centre corrections for induced B field



--------------------------------------------------------------------------------------------------------


 conjugate gradient relaxation of ions
 charge density and potential will be updated during run
 non-spin polarized calculation
 Variant of blocked Davidson
 Davidson routine will perform the subspace rotation
 perform sub-space diagonalisation
    after iterative eigenvector-optimisation
 modified Broyden-mixing scheme, WC =      100.0
 initial mixing is a Kerker type mixing with AMIX =  0.4000 and BMIX =      1.0000
 Hartree-type preconditioning will be used
 using additional bands           14
 reciprocal scheme for non local part
 use partial core corrections
 calculate Harris-corrections to forces 
   (improved forces if not selfconsistent)
 use gradient corrections 
 use of overlap-Matrix (Vanderbilt PP)
 Gauss-broadening in eV      SIGMA  =   0.10


--------------------------------------------------------------------------------------------------------


  energy-cutoff  :      520.00
  volume of cell :       19.15
      direct lattice vectors                 reciprocal lattice vectors
     0.000000000  2.123375000  2.123375000    -0.235474186  0.235474186  0.235474186
     2.123375000  0.000000000  2.123375000     0.235474186 -0.235474186  0.235474186
     2.123375000  2.123375000  0.000000000     0.235474186  0.235474186 -0.235474186

  length of vectors
     3.002905723  3.002905723  3.002905723     0.407853254  0.407853254  0.407853254


 
 k-points in units of 2pi/SCALE and weight: Generated by vise. Mode: primitive_unifo
   0.00000000  0.00000000  0.00000000       0.001
  -0.02354742  0.02354742  0.02354742       0.008
  -0.04709484  0.04709484  0.04709484       0.008
  -0.07064226  0.07064226  0.07064226       0.008
  -0.09418967  0.09418967  0.09418967       0.008
  -0.11773709  0.11773709  0.11773709       0.004
   0.00000000  0.00000000  0.04709484       0.006
  -0.02354742  0.02354742  0.07064226       0.024
  -0.04709484  0.04709484  0.09418967       0.024
  -0.07064226  0.07064226  0.11773709       0.024
  -0.09418967  0.09418967  0.14128451       0.024
   0.11773709 -0.11773709 -0.07064226       0.024
   0.09418967 -0.09418967 -0.04709484       0.024
   0.07064226 -0.07064226 -0.02354742       0.024
   0.04709484 -0.04709484  0.00000000       0.012
   0.00000000  0.00000000  0.09418967       0.006
  -0.02354742  0.02354742  0.11773709       0.024
  -0.04709484  0.04709484  0.14128451       0.024
  -0.07064226  0.07064226  0.16483193       0.024
   0.14128451 -0.14128451 -0.04709484       0.024
   0.11773709 -0.11773709 -0.02354742       0.024
   0.09418967 -0.09418967  0.00000000       0.012
   0.00000000  0.00000000  0.14128451       0.006
  -0.02354742  0.02354742  0.16483193       0.024
  -0.04709484  0.04709484  0.18837935       0.024
   0.16483193 -0.16483193 -0.02354742       0.024
   0.14128451 -0.14128451  0.00000000       0.012
   0.00000000  0.00000000  0.18837935       0.006
  -0.02354742  0.02354742  0.21192677       0.024
   0.18837935 -0.18837935  0.00000000       0.012
   0.00000000  0.00000000  0.23547419       0.003
  -0.00000000  0.04709484  0.09418967       0.024
  -0.02354742  0.07064226  0.11773709       0.048
  -0.04709484  0.09418967  0.14128451       0.048
   0.16483193 -0.11773709 -0.07064226       0.024
  -0.00000000  0.04709484  0.14128451       0.024
  -0.02354742  0.07064226  0.16483193       0.048
   0.18837935 -0.14128451 -0.04709484       0.048
   0.16483193 -0.11773709 -0.02354742       0.048
   0.14128451 -0.09418967 -0.00000000       0.024
   0.00000000  0.04709484  0.18837935       0.024
   0.21192677 -0.16483193 -0.02354742       0.048
   0.18837935 -0.14128451  0.00000000       0.024
   0.23547419 -0.18837935  0.00000000       0.012
   0.23547419 -0.14128451 -0.04709484       0.024
   0.21192677 -0.11773709 -0.02354742       0.024
   0.23547419 -0.14128451 -0.00000000       0.012
 
 k-points in reciprocal lattice and weights: Generated by vise. Mode: primitive_unifo
   0.00000000  0.00000000  0.00000000       0.001
   0.10000000  0.00000000  0.00000000       0.008
   0.20000000  0.00000000  0.00000000       0.008
   0.30000000  0.00000000  0.00000000       0.008
   0.40000000  0.00000000  0.00000000       0.008
   0.50000000  0.00000000  0.00000000       0.004
   0.10000000  0.10000000  0.00000000       0.006
   0.20000000  0.10000000  0.00000000       0.024
   0.30000000  0.10000000  0.00000000       0.024
   0.40000000  0.10000000  0.00000000       0.024
   0.50000000  0.10000000  0.00000000       0.024
  -0.40000000  0.10000000  0.00000000       0.024
  -0.30000000  0.10000000  0.00000000       0.024
  -0.20000000  0.10000000  0.00000000       0.024
  -0.10000000  0.10000000  0.00000000       0.012
   0.20000000  0.20000000  0.00000000       0.006
   0.30000000  0.20000000  0.00000000       0.024
   0.40000000  0.20000000  0.00000000       0.024
   0.50000000  0.20000000  0.00000000       0.024
  -0.40000000  0.20000000  0.00000000       0.024
  -0.30000000  0.20000000  0.00000000       0.024
  -0.20000000  0.20000000  0.00000000       0.012
   0.30000000  0.30000000  0.00000000       0.006
   0.40000000  0.30000000  0.00000000       0.024
   0.50000000  0.30000000  0.00000000       0.024
  -0.40000000  0.30000000  0.00000000       0.024
  -0.30000000  0.30000000  0.00000000       0.012
   0.40000000  0.40000000  0.00000000       0.006
   0.50000000  0.40000000  0.00000000       0.024
  -0.40000000  0.40000000  0.00000000       0.012
   0.50000000  0.50000000  0.00000000       0.003
   0.30000000  0.20000000  0.10000000       0.024
   0.40000000  0.20000000  0.10000000       0.048
   0.50000000  0.20000000  0.10000000       0.048
  -0.40000000  0.20000000  0.10000000       0.024
   0.40000000  0.30000000  0.10000000       0.024
   0.50000000  0.30000000  0.10000000       0.048
  -0.40000000  0.30000000  0.10000000       0.048
  -0.30000000  0.30000000  0.10000000       0.048
  -0.20000000  0.30000000  0.10000000       0.024
   0.50000000  0.40000000  0.10000000       0.024
  -0.40000000  0.40000000  0.10000000       0.048
  -0.30000000  0.40000000  0.10000000       0.024
  -0.40000000  0.50000000  0.10000000       0.012
  -0.40000000  0.40000000  0.20000000       0.024
  -0.30000000  0.40000000  0.20000000       0.024
  -0.30000000  0.50000000  0.20000000       0.012
 
 position of ions in fractional coordinates (direct lattice) 
   0.00000000  0.00000000  0.00000000
   0.50000000  0.50000000  0.50000000
 
 position of ions in cartesian coordinates  (Angst):
   0.00000000  0.00000000  0.00000000
   2.12337500  2.12337500  2.12337500
 


--------------------------------------------------------------------------------------------------------


 k-point  1 :   0.0000 0.0000 0.0000  plane waves:     531
 k-point  2 :   0.1000 0.0000 0.0000  plane waves:     531
 k-point  3 :   0.2000 0.0000 0.0000  plane waves:     522
 k-point  4 :   0.3000 0.0000 0.0000  plane waves:     522
 k-point  5 :   0.4000 0.0000 0.0000  plane waves:     516
 k-point  6 :   0.5000 0.0000 0.0000  plane waves:     502
 k-point  7 :   0.1000 0.1000 0.0000  plane waves:     532
 k-point  8 :   0.2000 0.1000 0.0000  plane waves:     518
 k-point  9 :   0.3000 0.1000 0.0000  plane waves:     517
 k-point 10 :   0.4000 0.1000 0.0000  plane waves:     513
 k-point 11 :   0.5000 0.1000 0.0000  plane waves:     518
 k-point 12 :  -0.4000 0.1000 0.0000  plane waves:     517
 k-point 13 :  -0.3000 0.1000 0.0000  plane waves:     514
 k-point 14 :  -0.2000 0.1000 0.0000  plane waves:     523
 k-point 15 :  -0.1000 0.1000 0.0000  plane waves:     527
 k-point 16 :   0.2000 0.2000 0.0000  plane waves:     524
 k-point 17 :   0.3000 0.2000 0.0000  plane waves:     522
 k-point 18 :   0.4000 0.2000 0.0000  plane waves:     517
 k-point 19 :   0.5000 0.2000 0.0000  plane waves:     520
 k-point 20 :  -0.4000 0.2000 0.0000  plane waves:     522
 k-point 21 :  -0.3000 0.2000 0.0000  plane waves:     513
 k-point 22 :  -0.2000 0.2000 0.0000  plane waves:     515
 k-point 23 :   0.3000 0.3000 0.0000  plane waves:     508
 k-point 24 :   0.4000 0.3000 0.0000  plane waves:     513
 k-point 25 :   0.5000 0.3000 0.0000  plane waves:     518
 k-point 26 :  -0.4000 0.3000 0.0000  plane waves:     515
 k-point 27 :  -0.3000 0.3000 0.0000  plane waves:     522
 k-point 28 :   0.4000 0.4000 0.0000  plane waves:     508
 k-point 29 :   0.5000 0.4000 0.0000  plane waves:     504
 k-point 30 :  -0.4000 0.4000 0.0000  plane waves:     510
 k-point 31 :   0.5000 0.5000 0.0000  plane waves:     524
 k-point 32 :   0.3000 0.2000 0.1000  plane waves:     522
 k-point 33 :   0.4000 0.2000 0.1000  plane waves:     518
 k-point 34 :   0.5000 0.2000 0.1000  plane waves:     517
 k-point 35 :  -0.4000 0.2000 0.1000  plane waves:     516
 k-point 36 :   0.4000 0.3000 0.1000  plane waves:     517
 k-point 37 :   0.5000 0.3000 0.1000  plane waves:     516
 k-point 38 :  -0.4000 0.3000 0.1000  plane waves:     510
 k-point 39 :  -0.3000 0.3000 0.1000  plane waves:     512
 k-point 40 :  -0.2000 0.3000 0.1000  plane waves:     520
 k-point 41 :   0.5000 0.4000 0.1000  plane waves:     512
 k-point 42 :  -0.4000 0.4000 0.1000  plane waves:     508
 k-point 43 :  -0.3000 0.4000 0.1000  plane waves:     515
 k-point 44 :  -0.4000 0.5000 0.1000  plane waves:     500
 k-point 45 :  -0.4000 0.4000 0.2000  plane waves:     507
 k-point 46 :  -0.3000 0.4000 0.2000  plane waves:     512
 k-point 47 :  -0.3000 0.5000 0.2000  plane waves:     512

 maximum and minimum number of plane-waves per node :       532      500

 maximum number of plane-waves:       532
 maximum index in each direction: 
   IXMAX=    5   IYMAX=    5   IZMAX=    5
   IXMIN=   -6   IYMIN=   -6   IZMIN=   -5


 serial   3D FFT for wavefunctions
 parallel 3D FFT for charge:
    minimum data exchange during FFTs selected (reduces bandwidth)


 total amount of memory used by VASP MPI-rank0    36251. kBytes
=======================================================================

   base      :      30000. kBytes
   nonl-proj :       5296. kBytes
   fftplans  :        117. kBytes
   grid      :        389. kBytes
   one-center:         16. kBytes
   wavefun   :        433. kBytes
 
     INWAV:  cpu time    0.0000: real time    0.0005
 Broyden mixing: mesh for mixing (old mesh)
   NGX = 11   NGY = 11   NGZ = 11
  (NGX  = 36   NGY  = 36   NGZ  = 36)
  gives a total of   1331 points

 initial charge density was supplied:
 charge density of overlapping atoms calculated
 number of electron       8.0000000 magnetization 
 keeping initial charge density in first step


--------------------------------------------------------------------------------------------------------


 Maximum index for augmentation-charges          595 (set IRDMAX)


--------------------------------------------------------------------------------------------------------


 First call to EWALD:  gamma=   0.663
 Maximum number of real-space cells 3x 3x 3
 Maximum number of reciprocal cells 3x 3x 3

    FEWALD:  cpu time    0.0000: real time    0.0011


--------------------------------------- Iteration      1(   1)  ---------------------------------------


    POTLOK:  cpu time    0.0040: real time    0.0055
    SETDIJ:  cpu time    0.1000: real time    0.1005
     EDDAV:  cpu time    0.0880: real time    0.0892
       DOS:  cpu time    0.0000: real time    0.0005
    --------------------------------------------
      LOOP:  cpu time    0.1920: real time    0.1957

 eigenvalue-minimisations  :  1728
 total energy-change (2. order) : 0.7526016E+00  (-0.4992954E+03)
 number of electron       8.0000000 magnetization 
 augmentation part        8.0000000 magnetization 

 Free energy of the ion-electron system (eV)
  ---------------------------------------------------
  alpha Z        PSCENC =        19.07805803
  Ewald energy   TEWEN  =      -355.26551564
  -Hartree energ DENC   =      -122.44930271
  -exchange      EXHF   =         0.00000000
  -V(xc)+E(xc)   XCENC  =       -20.50704350
  PAW double counting   =       411.85617216     -361.79210629
  entropy T*S    EENTRO =        -0.00000000
  eigenvalues    EBANDS =       -25.56251070
  atomic energy  EATOM  =       455.39485029
  Solvation  Ediel_sol  =         0.00000000
  ---------------------------------------------------
  free energy    TOTEN  =         0.75260164 eV

  energy without entropy =        0.75260164  energy(sigma->0) =        0.75260164


--------------------------------------------------------------------------------------------------------




--------------------------------------- Iteration      1(   2)  ---------------------------------------


     EDDAV:  cpu time    0.1400: real time    0.1454
       DOS:  cpu time    0.0000: real time    0.0004
    --------------------------------------------
      LOOP:  cpu time    0.1400: real time    0.1459

 eigenvalue-minimisations  :  2520
 total energy-change (2. order) :-0.1419272E+02  (-0.1419272E+02)
 number of electron       8.0000000 magnetization 
 augmentation part        8.0000000 magnetization 

 Free energy of the ion-electron system (eV)
  ---------------------------------------------------
  alpha Z        PSCENC =        19.07805803
  Ewald energy   TEWEN  =      -355.26551564
  -Hartree energ DENC   =      -122.44930271
  -exchange      EXHF   =         0.00000000
  -V(xc)+E(xc)   XCENC  =       -20.50704350
  PAW double counting   =       411.85617216     -361.79210629
  entropy T*S    EENTRO =        -0.00000000
  eigenvalues    EBANDS =       -39.75523228
  atomic energy  EATOM  =       455.39485029
  Solvation  Ediel_sol  =         0.00000000
  ---------------------------------------------------
  free energy    TOTEN  =       -13.44011994 eV

  energy without entropy =      -13.44011994  energy(sigma->0) =      -13.44011994


--------------------------------------------------------------------------------------------------------




--------------------------------------- Iteration      1(   3)  ---------------------------------------


     EDDAV:  cpu time    0.1200: real time    0.1297
       DOS:  cpu time    0.0000: real time    0.0012
    --------------------------------------------
      LOOP:  cpu time    0.1240: real time    0.1309

 eigenvalue-minimisations  :  1764
 total energy-change (2. order) :-0.2870508E-01  (-0.2870508E-01)
 number of electron       8.0000000 magnetization 
 augmentation part        8.0000000 magnetization 

 Free energy of the ion-electron system (eV)
  ---------------------------------------------------
  alpha Z        PSCENC =        19.07805803
  Ewald energy   TEWEN  =      -355.26551564
  -Hartree energ DENC   =      -122.44930271
  -exchange      EXHF   =         0.00000000
  -V(xc)+E(xc)   XCENC  =       -20.50704350
  PAW double counting   =       411.85617216     -361.79210629
  entropy T*S    EENTRO =        -0.00000000
  eigenvalues    EBANDS =       -39.78393735
  atomic energy  EATOM  =       455.39485029
  Solvation  Ediel_sol  =         0.00000000
  ---------------------------------------------------
  free energy    TOTEN  =       -13.46882502 eV

  energy without entropy =      -13.46882502  energy(sigma->0) =      -13.46882502


--------------------------------------------------------------------------------------------------------




--------------------------------------- Iteration      1(   4)  ---------------------------------------


     EDDAV:  cpu time    0.1840: real time    0.1842
       DOS:  cpu time    0.0000: real time    0.0004
    --------------------------------------------
      LOOP:  cpu time    0.1800: real time    0.1846

 eigenvalue-minimisations  :  2988
 total energy-change (2. order) :-0.1696499E-04  (-0.1696499E-04)
 number of electron       8.0000000 magnetization 
 augmentation part        8.0000000 magnetization 

 Free energy of the ion-electron system (eV)
  ---------------------------------------------------
  alpha Z        PSCENC =        19.07805803
  Ewald energy   TEWEN  =      -355.26551564
  -Hartree energ DENC   =      -122.44930271
  -exchange      EXHF   =         0.00000000
  -V(xc)+E(xc)   XCENC  =       -20.50704350
  PAW double counting   =       411.85617216     -361.79210629
  entropy T*S    EENTRO =        -0.00000000
  eigenvalues    EBANDS =       -39.78395432
  atomic energy  EATOM  =       455.39485029
  Solvation  Ediel_sol  =         0.00000000
  ---------------------------------------------------
  free energy    TOTEN  =       -13.46884198 eV

  energy without entropy =      -13.46884198  energy(sigma->0) =      -13.46884198


--------------------------------------------------------------------------------------------------------




--------------------------------------- Iteration      1(   5)  ---------------------------------------


     EDDAV:  cpu time    0.1000: real time    0.0984
       DOS:  cpu time    0.0000: real time    0.0004
    CHARGE:  cpu time    0.0040: real time    0.0039
    MIXING:  cpu time    0.0000: real time    0.0006
    --------------------------------------------
      LOOP:  cpu time    0.1040: real time    0.1033

 eigenvalue-minimisations  :  1836
 total energy-change (2. order) :-0.7030394E-09  (-0.7029758E-09)
 number of electron       8.0000001 magnetization 
 augmentation part        0.8033132 magnetization 

 Broyden mixing:
  rms(total) = 0.71980E+00    rms(broyden)= 0.71964E+00
  rms(prec ) = 0.27969E+01
  weight for this iteration     100.00

 Free energy of the ion-electron system (eV)
  ---------------------------------------------------
  alpha Z        PSCENC =        19.07805803
  Ewald energy   TEWEN  =      -355.26551564
  -Hartree energ DENC   =      -122.44930271
  -exchange      EXHF   =         0.00000000
  -V(xc)+E(xc)   XCENC  =       -20.50704350
  PAW double counting   =       411.85617216     -361.79210629
  entropy T*S    EENTRO =        -0.00000000
  eigenvalues    EBANDS =       -39.78395432
  atomic energy  EATOM  =       455.39485029
  Solvation  Ediel_sol  =         0.00000000
  ---------------------------------------------------
  free energy    TOTEN  =       -13.46884198 eV

  energy without entropy =      -13.46884198  energy(sigma->0) =      -13.46884198


--------------------------------------------------------------------------------------------------------




--------------------------------------- Iteration      1(   6)  ---------------------------------------


    POTLOK:  cpu time    0.0040: real time    0.0023
    SETDIJ:  cpu time    0.1000: real time    0.1017
     EDDAV:  cpu time    0.1000: real time    0.0984
       DOS:  cpu time    0.0000: real time    0.0004
    CHARGE:  cpu time    0.0040: real time    0.0037
    MIXING:  cpu time    0.0000: real time    0.0002
    --------------------------------------------
      LOOP:  cpu time    0.2080: real time    0.2068

 eigenvalue-minimisations  :  1818
 total energy-change (2. order) : 0.1536713E+01  (-0.1025594E+01)
 number of electron       8.0000001 magnetization 
 augmentation part        0.6572852 magnetization 

 Broyden mixing:
  rms(total) = 0.22869E+00    rms(broyden)= 0.22836E+00
  rms(prec ) = 0.56604E+00
  weight for this iteration     100.00

 eigenvalues of (default mixing * dielectric matrix)
  average eigenvalue GAMMA=   0.8478
  0.8478

 Free energy of the ion-electron system (eV)
  ---------------------------------------------------
  alpha Z        PSCENC =        19.07805803
  Ewald energy   TEWEN  =      -355.26551564
  -Hartree energ DENC   =      -141.07007673
  -exchange      EXHF   =         0.00000000
  -V(xc)+E(xc)   XCENC  =       -19.19462355
  PAW double counting   =       482.92534709     -433.21321343
  entropy T*S    EENTRO =        -0.00000000
  eigenvalues    EBANDS =       -20.58695477
  atomic energy  EATOM  =       455.39485029
  Solvation  Ediel_sol  =         0.00000000
  ---------------------------------------------------
  free energy    TOTEN  =       -11.93212870 eV

  energy without entropy =      -11.93212870  energy(sigma->0) =      -11.93212870


--------------------------------------------------------------------------------------------------------




--------------------------------------- Iteration      1(   7)  ---------------------------------------


    POTLOK:  cpu time    0.0000: real time    0.0022
    SETDIJ:  cpu time    0.1040: real time    0.1018
     EDDAV:  cpu time    0.1200: real time    0.1228
       DOS:  cpu time    0.0040: real time    0.0005
    CHARGE:  cpu time    0.0040: real time    0.0037
    MIXING:  cpu time    0.0000: real time    0.0003
    --------------------------------------------
      LOOP:  cpu time    0.2320: real time    0.2312

 eigenvalue-minimisations  :  2196
 total energy-change (2. order) : 0.1415048E-01  (-0.5203328E-02)
 number of electron       8.0000001 magnetization 
 augmentation part        0.6645136 magnetization 

 Broyden mixing:
  rms(total) = 0.13262E+00    rms(broyden)= 0.13262E+00
  rms(prec ) = 0.35299E+00
  weight for this iteration     100.00

 eigenvalues of (default mixing * dielectric matrix)
  average eigenvalue GAMMA=   1.8203
  0.9567  2.6839

 Free energy of the ion-electron system (eV)
  ---------------------------------------------------
  alpha Z        PSCENC =        19.07805803
  Ewald energy   TEWEN  =      -355.26551564
  -Hartree energ DENC   =      -140.98321660
  -exchange      EXHF   =         0.00000000
  -V(xc)+E(xc)   XCENC  =       -19.15935329
  PAW double counting   =       506.05475655     -456.29760525
  entropy T*S    EENTRO =        -0.00000000
  eigenvalues    EBANDS =       -20.73995230
  atomic energy  EATOM  =       455.39485029
  Solvation  Ediel_sol  =         0.00000000
  ---------------------------------------------------
  free energy    TOTEN  =       -11.91797823 eV

  energy without entropy =      -11.91797823  energy(sigma->0) =      -11.91797823


--------------------------------------------------------------------------------------------------------




--------------------------------------- Iteration      1(   8)  ---------------------------------------


    POTLOK:  cpu time    0.0000: real time    0.0022
    SETDIJ:  cpu time    0.1000: real time    0.1016
     EDDAV:  cpu time    0.1520: real time    0.1531
       DOS:  cpu time    0.0000: real time    0.0004
    CHARGE:  cpu time    0.0040: real time    0.0038
    MIXING:  cpu time    0.0000: real time    0.0002
    --------------------------------------------
      LOOP:  cpu time    0.2560: real time    0.2614

 eigenvalue-minimisations  :  2448
 total energy-change (2. order) : 0.6141025E-02  (-0.2659968E-02)
 number of electron       8.0000001 magnetization 
 augmentation part        0.6656875 magnetization 

 Broyden mixing:
  rms(total) = 0.17865E-01    rms(broyden)= 0.17861E-01
  rms(prec ) = 0.33997E-01
  weight for this iteration     100.00

 eigenvalues of (default mixing * dielectric matrix)
  average eigenvalue GAMMA=   1.3847
  2.5991  0.9512  0.6038

 Free energy of the ion-electron system (eV)
  ---------------------------------------------------
  alpha Z        PSCENC =        19.07805803
  Ewald energy   TEWEN  =      -355.26551564
  -Hartree energ DENC   =      -142.44164803
  -exchange      EXHF   =         0.00000000
  -V(xc)+E(xc)   XCENC  =       -18.96445325
  PAW double counting   =       552.17326454     -502.38824831
  entropy T*S    EENTRO =        -0.00000000
  eigenvalues    EBANDS =       -19.49814482
  atomic energy  EATOM  =       455.39485029
  Solvation  Ediel_sol  =         0.00000000
  ---------------------------------------------------
  free energy    TOTEN  =       -11.91183720 eV

  energy without entropy =      -11.91183720  energy(sigma->0) =      -11.91183720


--------------------------------------------------------------------------------------------------------




--------------------------------------- Iteration      1(   9)  ---------------------------------------


    POTLOK:  cpu time    0.0040: real time    0.0023
    SETDIJ:  cpu time    0.1000: real time    0.1021
     EDDAV:  cpu time    0.1320: real time    0.1295
       DOS:  cpu time    0.0000: real time    0.0006
    CHARGE:  cpu time    0.0040: real time    0.0043
    MIXING:  cpu time    0.0000: real time    0.0002
    --------------------------------------------
      LOOP:  cpu time    0.2400: real time    0.2389

 eigenvalue-minimisations  :  2214
 total energy-change (2. order) : 0.1110277E-03  (-0.1279497E-04)
 number of electron       8.0000001 magnetization 
 augmentation part        0.6652235 magnetization 

 Broyden mixing:
  rms(total) = 0.12473E-01    rms(broyden)= 0.12473E-01
  rms(prec ) = 0.22519E-01
  weight for this iteration     100.00

 eigenvalues of (default mixing * dielectric matrix)
  average eigenvalue GAMMA=   1.8077
  0.9710  0.9710  2.7820  2.5067

 Free energy of the ion-electron system (eV)
  ---------------------------------------------------
  alpha Z        PSCENC =        19.07805803
  Ewald energy   TEWEN  =      -355.26551564
  -Hartree energ DENC   =      -142.45921597
  -exchange      EXHF   =         0.00000000
  -V(xc)+E(xc)   XCENC  =       -18.96482970
  PAW double counting   =       550.09067446     -500.30864652
  entropy T*S    EENTRO =        -0.00000000
  eigenvalues    EBANDS =       -19.47710113
  atomic energy  EATOM  =       455.39485029
  Solvation  Ediel_sol  =         0.00000000
  ---------------------------------------------------
  free energy    TOTEN  =       -11.91172617 eV

  energy without entropy =      -11.91172617  energy(sigma->0) =      -11.91172617


--------------------------------------------------------------------------------------------------------




--------------------------------------- Iteration      1(  10)  ---------------------------------------


    POTLOK:  cpu time    0.0000: real time    0.0022
    SETDIJ:  cpu time    0.1040: real time    0.1026
     EDDAV:  cpu time    0.1240: real time    0.1220
       DOS:  cpu time    0.0000: real time    0.0004
    CHARGE:  cpu time    0.0040: real time    0.0038
    MIXING:  cpu time    0.0000: real time    0.0003
    --------------------------------------------
      LOOP:  cpu time    0.2320: real time    0.2313

 eigenvalue-minimisations  :  2214
 total energy-change (2. order) :-0.5085759E-04  (-0.2582546E-04)
 number of electron       8.0000001 magnetization 
 augmentation part        0.6647350 magnetization 

 Broyden mixing:
  rms(total) = 0.59900E-03    rms(broyden)= 0.59705E-03
  rms(prec ) = 0.19724E-02
  weight for this iteration     100.00

 eigenvalues of (default mixing * dielectric matrix)
  average eigenvalue GAMMA=   1.6335
  2.7815  2.4763  0.9577  0.9577  0.9946

 Free energy of the ion-electron system (eV)
  ---------------------------------------------------
  alpha Z        PSCENC =        19.07805803
  Ewald energy   TEWEN  =      -355.26551564
  -Hartree energ DENC   =      -142.45994187
  -exchange      EXHF   =         0.00000000
  -V(xc)+E(xc)   XCENC  =       -18.96341179
  PAW double counting   =       542.73931149     -492.96644932
  entropy T*S    EENTRO =        -0.00000000
  eigenvalues    EBANDS =       -19.46867822
  atomic energy  EATOM  =       455.39485029
  Solvation  Ediel_sol  =         0.00000000
  ---------------------------------------------------
  free energy    TOTEN  =       -11.91177703 eV

  energy without entropy =      -11.91177703  energy(sigma->0) =      -11.91177703


--------------------------------------------------------------------------------------------------------




--------------------------------------- Iteration      1(  11)  ---------------------------------------


    POTLOK:  cpu time    0.0000: real time    0.0022
    SETDIJ:  cpu time    0.1040: real time    0.1028
     EDDAV:  cpu time    0.1240: real time    0.1237
       DOS:  cpu time    0.0000: real time    0.0008
    CHARGE:  cpu time    0.0040: real time    0.0037
    MIXING:  cpu time    0.0000: real time    0.0003
    --------------------------------------------
      LOOP:  cpu time    0.2320: real time    0.2335

 eigenvalue-minimisations  :  2178
 total energy-change (2. order) :-0.1618504E-06  (-0.7373281E-06)
 number of electron       8.0000001 magnetization 
 augmentation part        0.6646242 magnetization 

 Broyden mixing:
  rms(total) = 0.32818E-03    rms(broyden)= 0.32745E-03
  rms(prec ) = 0.65073E-03
  weight for this iteration     100.00

 eigenvalues of (default mixing * dielectric matrix)
  average eigenvalue GAMMA=   1.8179
  2.8143  2.6275  2.5290  1.0304  0.9531  0.9531

 Free energy of the ion-electron system (eV)
  ---------------------------------------------------
  alpha Z        PSCENC =        19.07805803
  Ewald energy   TEWEN  =      -355.26551564
  -Hartree energ DENC   =      -142.47402487
  -exchange      EXHF   =         0.00000000
  -V(xc)+E(xc)   XCENC  =       -18.96250514
  PAW double counting   =       542.81136896     -493.03869742
  entropy T*S    EENTRO =        -0.00000000
  eigenvalues    EBANDS =       -19.45531140
  atomic energy  EATOM  =       455.39485029
  Solvation  Ediel_sol  =         0.00000000
  ---------------------------------------------------
  free energy    TOTEN  =       -11.91177719 eV

  energy without entropy =      -11.91177719  energy(sigma->0) =      -11.91177719


--------------------------------------------------------------------------------------------------------




--------------------------------------- Iteration      1(  12)  ---------------------------------------


    POTLOK:  cpu time    0.0000: real time    0.0022
    SETDIJ:  cpu time    0.1040: real time    0.1017
     EDDAV:  cpu time    0.1360: real time    0.1368
       DOS:  cpu time    0.0000: real time    0.0008
    --------------------------------------------
      LOOP:  cpu time    0.2400: real time    0.2415

 eigenvalue-minimisations  :  2412
 total energy-change (2. order) : 0.2789591E-07  (-0.3511825E-07)
 number of electron       8.0000001 magnetization 
 augmentation part        0.6646242 magnetization 

 Free energy of the ion-electron system (eV)
  ---------------------------------------------------
  alpha Z        PSCENC =        19.07805803
  Ewald energy   TEWEN  =      -355.26551564
  -Hartree energ DENC   =      -142.47339153
  -exchange      EXHF   =         0.00000000
  -V(xc)+E(xc)   XCENC  =       -18.96265550
  PAW double counting   =       543.04635909     -493.27336716
  entropy T*S    EENTRO =        -0.00000000
  eigenvalues    EBANDS =       -19.45611474
  atomic energy  EATOM  =       455.39485029
  Solvation  Ediel_sol  =         0.00000000
  ---------------------------------------------------
  free energy    TOTEN  =       -11.91177716 eV

  energy without entropy =      -11.91177716  energy(sigma->0) =      -11.91177716


--------------------------------------------------------------------------------------------------------




 average (electrostatic) potential at core
  the test charge radii are     1.0714  0.7215
  (the norm of the test charge is              1.0000)
       1 -35.2895       2 -69.7444
 
 
 
 E-fermi :   3.5837     XC(G=0): -10.9627     alpha+bet :-12.8408


 k-point     1 :       0.0000    0.0000    0.0000
  band No.  band energies     occupation 
      1     -14.1345      2.00000
      2       3.0046      2.00000
      3       3.0046      2.00000
      4       3.0046      2.00000
      5       7.4954      0.00000
      6      18.6648      0.00000
      7      18.6648      0.00000
      8      18.6648      0.00000
      9      22.5172      0.00000
     10      24.2631      0.00000
     11      24.2631      0.00000
     12      26.7815      0.00000
     13      26.7815      0.00000
     14      26.7816      0.00000
     15      40.7836      0.00000
     16      40.7836      0.00000
     17      40.7837      0.00000
     18      41.1884      0.00000

 k-point     2 :       0.1000    0.0000    0.0000
  band No.  band energies     occupation 
      1     -14.0333      2.00000
      2       2.3573      2.00000
      3       2.9400      2.00000
      4       2.9400      2.00000
      5       8.1269      0.00000
      6      17.4221      0.00000
      7      18.8954      0.00000
      8      18.8954      0.00000
      9      23.4986      0.00000
     10      23.4986      0.00000
     11      24.1264      0.00000
     12      26.8232      0.00000
     13      27.9678      0.00000
     14      27.9678      0.00000
     15      39.2022      0.00000
     16      40.6962      0.00000
     17      40.6963      0.00000
     18      42.6304      0.00000

 k-point     3 :       0.2000    0.0000    0.0000
  band No.  band energies     occupation 
      1     -13.7553      2.00000
      2       1.0608      2.00000
      3       2.7761      2.00000
      4       2.7761      2.00000
      5       9.3257      0.00000
      6      15.9028      0.00000
      7      19.3475      0.00000
      8      19.3475      0.00000
      9      22.8011      0.00000
     10      22.8011      0.00000
     11      24.8749      0.00000
     12      28.8721      0.00000
     13      30.0162      0.00000
     14      30.0163      0.00000
     15      37.3341      0.00000
     16      40.1465      0.00000
     17      40.1466      0.00000
     18      44.5402      0.00000

 k-point     4 :       0.3000    0.0000    0.0000
  band No.  band energies     occupation 
      1     -13.3814      2.00000
      2      -0.2254      2.00000
      3       2.5831      2.00000
      4       2.5831      2.00000
      5      10.2852      0.00000
      6      15.1696      0.00000
      7      19.4182      0.00000
      8      19.4182      0.00000
      9      23.2527      0.00000
     10      23.2527      0.00000
     11      24.2552      0.00000
     12      31.5845      0.00000
     13      31.9596      0.00000
     14      31.9597      0.00000
     15      36.9152      0.00000
     16      38.3815      0.00000
     17      38.3816      0.00000
     18      46.3298      0.00000

 k-point     5 :       0.4000    0.0000    0.0000
  band No.  band energies     occupation 
      1     -13.0478      2.00000
      2      -1.1602      2.00000
      3       2.4340      2.00000
      4       2.4340      2.00000
      5      10.6808      0.00000
      6      15.1932      0.00000
      7      19.1807      0.00000
      8      19.1807      0.00000
      9      23.7180      0.00000
     10      24.4856      0.00000
     11      24.4856      0.00000
     12      31.5172      0.00000
     13      33.2214      0.00000
     14      33.2215      0.00000
     15      36.1106      0.00000
     16      36.1106      0.00000
     17      40.4896      0.00000
     18      47.4738      0.00000

 k-point     6 :       0.5000    0.0000    0.0000
  band No.  band energies     occupation 
      1     -12.9111      2.00000
      2      -1.5049      2.00000
      3       2.3785      2.00000
      4       2.3785      2.00000
      5      10.7463      0.00000
      6      15.3329      0.00000
      7      19.0624      0.00000
      8      19.0624      0.00000
      9      23.5279      0.00000
     10      25.1973      0.00000
     11      25.1973      0.00000
     12      31.1119      0.00000
     13      33.4757      0.00000
     14      33.4757      0.00000
     15      35.1927      0.00000
     16      35.1927      0.00000
     17      44.9431      0.00000
     18      46.5923      0.00000

 k-point     7 :       0.1000    0.1000    0.0000
  band No.  band energies     occupation 
      1     -14.0005      2.00000
      2       2.2903      2.00000
      3       2.8561      2.00000
      4       2.8561      2.00000
      5       8.3291      0.00000
      6      17.0704      0.00000
      7      18.9807      0.00000
      8      18.9807      0.00000
      9      22.2548      0.00000
     10      24.5659      0.00000
     11      24.7754      0.00000
     12      27.2709      0.00000
     13      27.2709      0.00000
     14      28.4792      0.00000
     15      39.2557      0.00000
     16      40.3434      0.00000
     17      40.3435      0.00000
     18      43.2018      0.00000

 k-point     8 :       0.2000    0.1000    0.0000
  band No.  band energies     occupation 
      1     -13.7838      2.00000
      2       1.3367      2.00000
      3       2.6803      2.00000
      4       2.7053      2.00000
      5       9.3291      0.00000
      6      15.8286      0.00000
      7      19.2919      0.00000
      8      19.3686      0.00000
      9      21.1847      0.00000
     10      24.3283      0.00000
     11      26.1247      0.00000
     12      28.4968      0.00000
     13      28.8064      0.00000
     14      30.0009      0.00000
     15      37.6980      0.00000
     16      39.6037      0.00000
     17      40.5545      0.00000
     18      44.6395      0.00000

 k-point     9 :       0.3000    0.1000    0.0000
  band No.  band energies     occupation 
      1     -13.4442      2.00000
      2       0.1578      2.00000
      3       2.4727      2.00000
      4       2.4868      2.00000
      5      10.4123      0.00000
      6      15.0020      0.00000
      7      18.9193      0.00000
      8      19.5917      0.00000
      9      21.5704      0.00000
     10      24.4072      0.00000
     11      25.7611      0.00000
     12      31.1320      0.00000
     13      31.2607      0.00000
     14      31.6806      0.00000
     15      36.5765      0.00000
     16      37.7080      0.00000
     17      40.9678      0.00000
     18      44.7296      0.00000

 k-point    10 :       0.4000    0.1000    0.0000
  band No.  band energies     occupation 
      1     -13.0964      2.00000
      2      -0.8227      2.00000
      3       2.2243      2.00000
      4       2.3469      2.00000
      5      11.0321      0.00000
      6      14.9492      0.00000
      7      18.3180      0.00000
      8      19.4696      0.00000
      9      22.7954      0.00000
     10      25.1665      0.00000
     11      25.3145      0.00000
     12      31.9186      0.00000
     13      32.5578      0.00000
     14      33.4239      0.00000
     15      35.0457      0.00000
     16      38.6584      0.00000
     17      39.8267      0.00000
     18      45.5555      0.00000

 k-point    11 :       0.5000    0.1000    0.0000
  band No.  band energies     occupation 
      1     -12.8908      2.00000
      2      -1.3342      2.00000
      3       2.0515      2.00000
      4       2.3065      2.00000
      5      11.1970      0.00000
      6      15.2156      0.00000
      7      18.0234      0.00000
      8      19.3115      0.00000
      9      23.8872      0.00000
     10      25.1524      0.00000
     11      25.5073      0.00000
     12      31.9723      0.00000
     13      32.6759      0.00000
     14      33.1626      0.00000
     15      35.4470      0.00000
     16      36.6669      0.00000
     17      44.1888      0.00000
     18      47.4806      0.00000

 k-point    12 :      -0.4000    0.1000    0.0000
  band No.  band energies     occupation 
      1     -12.9349      2.00000
      2      -1.2237      2.00000
      3       2.0114      2.00000
      4       2.3784      2.00000
      5      11.1847      0.00000
      6      15.1701      0.00000
      7      18.0763      0.00000
      8      19.3580      0.00000
      9      24.4130      0.00000
     10      24.4400      0.00000
     11      25.1747      0.00000
     12      32.0996      0.00000
     13      32.7256      0.00000
     14      33.7225      0.00000
     15      34.5796      0.00000
     16      37.4850      0.00000
     17      42.5971      0.00000
     18      46.1755      0.00000

 k-point    13 :      -0.3000    0.1000    0.0000
  band No.  band energies     occupation 
      1     -13.2042      2.00000
      2      -0.5288      2.00000
      3       2.1220      2.00000
      4       2.5402      2.00000
      5      10.9064      0.00000
      6      14.9665      0.00000
      7      18.4315      0.00000
      8      19.6685      0.00000
      9      22.6718      0.00000
     10      24.2370      0.00000
     11      25.4261      0.00000
     12      31.8963      0.00000
     13      32.3992      0.00000
     14      32.8115      0.00000
     15      35.7038      0.00000
     16      38.5191      0.00000
     17      39.8390      0.00000
     18      44.3971      0.00000

 k-point    14 :      -0.2000    0.1000    0.0000
  band No.  band energies     occupation 
      1     -13.5652      2.00000
      2       0.5382      2.00000
      3       2.3634      2.00000
      4       2.7370      2.00000
      5      10.0754      0.00000
      6      15.3096      0.00000
      7      18.8728      0.00000
      8      19.9159      0.00000
      9      21.5361      0.00000
     10      23.6659      0.00000
     11      25.9073      0.00000
     12      29.6332      0.00000
     13      31.1850      0.00000
     14      31.3217      0.00000
     15      36.0993      0.00000
     16      39.1966      0.00000
     17      41.2331      0.00000
     18      44.0442      0.00000

 k-point    15 :      -0.1000    0.1000    0.0000
  band No.  band energies     occupation 
      1     -13.8739      2.00000
      2       1.6493      2.00000
      3       2.6819      2.00000
      4       2.8930      2.00000
      5       8.9253      0.00000
      6      16.3550      0.00000
      7      19.0213      0.00000
      8      19.3240      0.00000
      9      22.1370      0.00000
     10      23.5972      0.00000
     11      25.5655      0.00000
     12      27.8601      0.00000
     13      28.3343      0.00000
     14      29.6625      0.00000
     15      37.9130      0.00000
     16      40.0734      0.00000
     17      41.0554      0.00000
     18      43.6604      0.00000

 k-point    16 :       0.2000    0.2000    0.0000
  band No.  band energies     occupation 
      1     -13.6428      2.00000
      2       1.0114      2.00000
      3       2.4945      2.00000
      4       2.4945      2.00000
      5       9.9733      0.00000
      6      14.9738      0.00000
      7      19.4696      0.00000
      8      19.7564      0.00000
      9      19.7564      0.00000
     10      25.4587      0.00000
     11      28.7553      0.00000
     12      28.7553      0.00000
     13      28.8628      0.00000
     14      30.1208      0.00000
     15      38.0235      0.00000
     16      39.1059      0.00000
     17      39.1060      0.00000
     18      46.3867      0.00000

 k-point    17 :       0.3000    0.2000    0.0000
  band No.  band energies     occupation 
      1     -13.3723      2.00000
      2       0.2633      2.00000
      3       2.2194      2.00000
      4       2.2965      2.00000
      5      10.9483      0.00000
      6      14.2246      0.00000
      7      18.1056      0.00000
      8      20.1069      0.00000
      9      20.5448      0.00000
     10      25.7967      0.00000
     11      28.5996      0.00000
     12      30.5295      0.00000
     13      30.5977      0.00000
     14      32.2076      0.00000
     15      36.9356      0.00000
     16      37.6958      0.00000
     17      40.0607      0.00000
     18      44.7124      0.00000

 k-point    18 :       0.4000    0.2000    0.0000
  band No.  band energies     occupation 
      1     -13.0612      2.00000
      2      -0.4650      2.00000
      3       1.7993      2.00000
      4       2.1585      2.00000
      5      11.7910      0.00000
      6      14.1778      0.00000
      7      17.1104      0.00000
      8      20.1242      0.00000
      9      21.4010      0.00000
     10      26.3049      0.00000
     11      28.2862      0.00000
     12      30.7789      0.00000
     13      32.7802      0.00000
     14      33.8340      0.00000
     15      35.3169      0.00000
     16      38.5277      0.00000
     17      42.3000      0.00000
     18      43.4622      0.00000

 k-point    19 :       0.5000    0.2000    0.0000
  band No.  band energies     occupation 
      1     -12.8337      2.00000
      2      -0.9148      2.00000
      3       1.3890      2.00000
      4       2.1249      2.00000
      5      12.1458      0.00000
      6      14.7600      0.00000
      7      16.5548      0.00000
      8      19.9538      0.00000
      9      22.0979      0.00000
     10      26.4589      0.00000
     11      27.9285      0.00000
     12      31.1972      0.00000
     13      32.4290      0.00000
     14      33.7439      0.00000
     15      36.1303      0.00000
     16      39.3950      0.00000
     17      43.4890      0.00000
     18      45.6345      0.00000

 k-point    20 :      -0.4000    0.2000    0.0000
  band No.  band energies     occupation 
      1     -12.7980      2.00000
      2      -0.9455      2.00000
      3       1.1633      2.00000
      4       2.2065      2.00000
      5      12.2599      0.00000
      6      15.0336      0.00000
      7      16.4543      0.00000
      8      19.8736      0.00000
      9      22.8862      0.00000
     10      25.1092      0.00000
     11      27.6604      0.00000
     12      31.9082      0.00000
     13      32.0959      0.00000
     14      34.1408      0.00000
     15      36.4198      0.00000
     16      38.6987      0.00000
     17      44.2419      0.00000
     18      45.5336      0.00000

 k-point    21 :      -0.3000    0.2000    0.0000
  band No.  band energies     occupation 
      1     -12.9722      2.00000
      2      -0.5847      2.00000
      3       1.2495      2.00000
      4       2.3781      2.00000
      5      12.0629      0.00000
      6      14.7565      0.00000
      7      16.9118      0.00000
      8      20.0459      0.00000
      9      23.0536      0.00000
     10      23.7806      0.00000
     11      27.6522      0.00000
     12      31.6824      0.00000
     13      32.3398      0.00000
     14      33.8042      0.00000
     15      35.8451      0.00000
     16      40.9699      0.00000
     17      41.5444      0.00000
     18      42.1357      0.00000

 k-point    22 :      -0.2000    0.2000    0.0000
  band No.  band energies     occupation 
      1     -13.2699      2.00000
      2      -0.0333      2.00000
      3       1.7078      2.00000
      4       2.5815      2.00000
      5      11.2132      0.00000
      6      14.7760      0.00000
      7      17.8373      0.00000
      8      20.5015      0.00000
      9      21.2980      0.00000
     10      24.0792      0.00000
     11      27.4072      0.00000
     12      30.1493      0.00000
     13      32.1620      0.00000
     14      34.2280      0.00000
     15      34.3709      0.00000
     16      39.4742      0.00000
     17      41.8734      0.00000
     18      42.9877      0.00000

 k-point    23 :       0.3000    0.3000    0.0000
  band No.  band energies     occupation 
      1     -13.1872      2.00000
      2      -0.0818      2.00000
      3       2.0928      2.00000
      4       2.0928      2.00000
      5      11.6000      0.00000
      6      13.3863      0.00000
      7      17.1643      0.00000
      8      20.6431      0.00000
      9      20.6431      0.00000
     10      26.8730      0.00000
     11      29.8841      0.00000
     12      31.0771      0.00000
     13      31.0771      0.00000
     14      33.7650      0.00000
     15      37.6996      0.00000
     16      37.6997      0.00000
     17      38.5370      0.00000
     18      42.1908      0.00000

 k-point    24 :       0.4000    0.3000    0.0000
  band No.  band energies     occupation 
      1     -12.9519      2.00000
      2      -0.4909      2.00000
      3       1.7371      2.00000
      4       1.9496      2.00000
      5      12.3372      0.00000
      6      13.1037      0.00000
      7      16.3461      0.00000
      8      20.8613      0.00000
      9      21.0634      0.00000
     10      27.5898      0.00000
     11      29.4918      0.00000
     12      31.3769      0.00000
     13      32.4497      0.00000
     14      35.7472      0.00000
     15      36.3923      0.00000
     16      38.4136      0.00000
     17      40.5823      0.00000
     18      41.7309      0.00000

 k-point    25 :       0.5000    0.3000    0.0000
  band No.  band energies     occupation 
      1     -12.7567      2.00000
      2      -0.6503      2.00000
      3       1.0827      2.00000
      4       1.9130      2.00000
      5      12.6963      0.00000
      6      13.8963      0.00000
      7      15.7693      0.00000
      8      20.7326      0.00000
      9      21.1727      0.00000
     10      28.0012      0.00000
     11      29.6154      0.00000
     12      30.9558      0.00000
     13      31.6972      0.00000
     14      35.6768      0.00000
     15      37.1483      0.00000
     16      41.9557      0.00000
     17      43.0706      0.00000
     18      43.5374      0.00000

 k-point    26 :      -0.4000    0.3000    0.0000
  band No.  band energies     occupation 
      1     -12.6859      2.00000
      2      -0.4625      2.00000
      3       0.4107      2.00000
      4       1.9943      2.00000
      5      12.9984      0.00000
      6      14.8218      0.00000
      7      15.3824      0.00000
      8      20.4829      0.00000
      9      21.3363      0.00000
     10      26.7026      0.00000
     11      29.8925      0.00000
     12      30.7516      0.00000
     13      31.2918      0.00000
     14      36.1297      0.00000
     15      38.7328      0.00000
     16      39.6291      0.00000
     17      43.2555      0.00000
     18      46.2514      0.00000

 k-point    27 :      -0.3000    0.3000    0.0000
  band No.  band energies     occupation 
[...]
  band No.  band energies     occupation 
      1     -13.5387      2.00000
      2       0.6195      2.00000
      3       2.2604      2.00000
      4       2.6072      2.00000
      5      10.3100      0.00000
      6      14.9690      0.00000
      7      18.7180      0.00000
      8      20.1663      0.00000
      9      20.4864      0.00000
     10      24.6100      0.00000
     11      27.4110      0.00000
     12      29.1092      0.00000
     13      31.0337      0.00000
     14      31.2775      0.00000
     15      36.2366      0.00000
     16      39.2009      0.00000
     17      40.6228      0.00000
     18      44.6620      0.00000

 k-point    33 :       0.4000    0.2000    0.1000
  band No.  band energies     occupation 
      1     -13.2130      2.00000
      2      -0.2031      2.00000
      3       1.8423      2.00000
      4       2.4215      2.00000
      5      11.3411      0.00000
      6      14.5538      0.00000
      7      17.7550      0.00000
      8      20.0399      0.00000
      9      21.4955      0.00000
     10      24.9110      0.00000
     11      27.4679      0.00000
     12      31.0209      0.00000
     13      31.7176      0.00000
     14      33.8287      0.00000
     15      35.3219      0.00000
     16      38.4607      0.00000
     17      41.6849      0.00000
     18      43.2097      0.00000

 k-point    34 :       0.5000    0.2000    0.1000
  band No.  band energies     occupation 
      1     -12.9275      2.00000
      2      -0.8574      2.00000
      3       1.5684      2.00000
      4       2.2454      2.00000
      5      11.8714      0.00000
      6      14.8152      0.00000
      7      17.0710      0.00000
      8      19.7090      0.00000
      9      22.8291      0.00000
     10      24.9937      0.00000
     11      27.3347      0.00000
     12      31.8059      0.00000
     13      32.4183      0.00000
     14      34.2607      0.00000
     15      34.7366      0.00000
     16      39.8543      0.00000
     17      41.8526      0.00000
     18      43.9342      0.00000

 k-point    35 :      -0.4000    0.2000    0.1000
  band No.  band energies     occupation 
      1     -12.8123      2.00000
      2      -1.1080      2.00000
      3       1.4755      2.00000
      4       2.1748      2.00000
      5      11.9738      0.00000
      6      15.0872      0.00000
      7      16.8417      0.00000
      8      19.5726      0.00000
      9      23.5133      0.00000
     10      24.7906      0.00000
     11      27.4198      0.00000
     12      31.9313      0.00000
     13      32.3704      0.00000
     14      33.3319      0.00000
     15      37.0275      0.00000
     16      37.2326      0.00000
     17      45.6798      0.00000
     18      46.5983      0.00000

 k-point    36 :       0.4000    0.3000    0.1000
  band No.  band energies     occupation 
      1     -13.1183      2.00000
      2      -0.2125      2.00000
      3       1.7956      2.00000
      4       2.1398      2.00000
      5      11.8845      0.00000
      6      13.7308      0.00000
      7      17.0346      0.00000
      8      20.3197      0.00000
      9      21.0811      0.00000
     10      26.3168      0.00000
     11      30.1355      0.00000
     12      30.3255      0.00000
     13      31.1431      0.00000
     14      34.9902      0.00000
     15      35.6183      0.00000
     16      38.4239      0.00000
     17      39.9638      0.00000
     18      43.9326      0.00000

 k-point    37 :       0.5000    0.3000    0.1000
  band No.  band energies     occupation 
      1     -12.8677      2.00000
      2      -0.5564      2.00000
      3       1.2778      2.00000
      4       1.9599      2.00000
      5      12.6851      0.00000
      6      13.9646      0.00000
      7      16.1877      0.00000
      8      19.9929      0.00000
      9      21.9409      0.00000
     10      26.3053      0.00000
     11      30.2011      0.00000
     12      30.5406      0.00000
     13      31.9717      0.00000
     14      35.3210      0.00000
     15      35.6870      0.00000
     16      41.0166      0.00000
     17      41.5530      0.00000
     18      43.3731      0.00000

 k-point    38 :      -0.4000    0.3000    0.1000
  band No.  band energies     occupation 
      1     -12.7254      2.00000
      2      -0.6568      2.00000
      3       0.8219      2.00000
      4       1.9105      2.00000
      5      12.9693      0.00000
      6      14.7197      0.00000
      7      15.7239      0.00000
      8      19.6316      0.00000
      9      22.5703      0.00000
     10      25.6449      0.00000
     11      30.1229      0.00000
     12      30.6572      0.00000
     13      31.8621      0.00000
     14      34.9057      0.00000
     15      37.8548      0.00000
     16      39.7245      0.00000
     17      44.2005      0.00000
     18      44.6564      0.00000

 k-point    39 :      -0.3000    0.3000    0.1000
  band No.  band energies     occupation 
      1     -12.7584      2.00000
      2      -0.5603      2.00000
      3       0.7019      2.00000
      4       2.0186      2.00000
      5      13.0269      0.00000
      6      14.7302      0.00000
      7      15.8150      0.00000
      8      19.6602      0.00000
      9      23.2840      0.00000
     10      24.3042      0.00000
     11      29.7293      0.00000
     12      31.1009      0.00000
     13      31.8462      0.00000
     14      35.3340      0.00000
     15      36.7048      0.00000
     16      40.9156      0.00000
     17      42.2261      0.00000
     18      44.8646      0.00000

 k-point    40 :      -0.2000    0.3000    0.1000
  band No.  band energies     occupation 
      1     -12.9500      2.00000
      2      -0.4243      2.00000
      3       1.1164      2.00000
      4       2.2252      2.00000
      5      12.4746      0.00000
      6      14.3783      0.00000
      7      16.5718      0.00000
      8      19.9676      0.00000
      9      22.4921      0.00000
     10      24.4855      0.00000
     11      29.1733      0.00000
     12      31.1306      0.00000
     13      31.7430      0.00000
     14      34.3614      0.00000
     15      36.4060      0.00000
     16      40.6979      0.00000
     17      40.9195      0.00000
     18      43.8167      0.00000

 k-point    41 :       0.5000    0.4000    0.1000
  band No.  band energies     occupation 
      1     -12.7757      2.00000
      2      -0.6651      2.00000
      3       1.4555      2.00000
      4       1.7185      2.00000
      5      12.9300      0.00000
      6      13.0338      0.00000
      7      15.8126      0.00000
      8      20.4790      0.00000
      9      21.7648      0.00000
     10      27.9337      0.00000
     11      29.3881      0.00000
     12      31.4095      0.00000
     13      32.9254      0.00000
     14      36.6375      0.00000
     15      36.8213      0.00000
     16      40.1268      0.00000
     17      41.4948      0.00000
     18      43.3017      0.00000

 k-point    42 :      -0.4000    0.4000    0.1000
  band No.  band energies     occupation 
      1     -12.6606      2.00000
      2      -0.5400      2.00000
      3       0.8111      2.00000
      4       1.6464      2.00000
      5      13.1550      0.00000
      6      14.0614      0.00000
      7      15.3964      0.00000
      8      19.7224      0.00000
      9      22.2574      0.00000
     10      27.5110      0.00000
     11      29.3981      0.00000
     12      30.8238      0.00000
     13      32.8086      0.00000
     14      36.8917      0.00000
     15      38.7150      0.00000
     16      41.5185      0.00000
     17      41.7882      0.00000
     18      44.0730      0.00000

 k-point    43 :      -0.3000    0.4000    0.1000
  band No.  band energies     occupation 
      1     -12.6548      2.00000
      2      -0.0751      2.00000
      3       0.0545      2.00000
      4       1.7800      2.00000
      5      13.4845      0.00000
      6      14.9618      0.00000
      7      14.9712      0.00000
      8      19.3752      0.00000
      9      22.6110      0.00000
     10      25.8590      0.00000
     11      29.9036      0.00000
     12      31.3965      0.00000
     13      31.6514      0.00000
     14      37.2351      0.00000
     15      38.0006      0.00000
     16      41.0080      0.00000
     17      42.5900      0.00000
     18      44.3939      0.00000

 k-point    44 :      -0.4000    0.5000    0.1000
  band No.  band energies     occupation 
      1     -12.6448      2.00000
      2      -0.7895      2.00000
      3       1.3328      2.00000
      4       1.5434      2.00000
      5      12.6562      0.00000
      6      13.2874      0.00000
      7      15.6418      0.00000
      8      20.4725      0.00000
      9      22.0239      0.00000
     10      28.4219      0.00000
     11      30.0137      0.00000
     12      30.0875      0.00000
     13      33.6102      0.00000
     14      38.5763      0.00000
     15      38.6836      0.00000
     16      40.6626      0.00000
     17      42.2311      0.00000
     18      42.9359      0.00000

 k-point    45 :      -0.4000    0.4000    0.2000
  band No.  band energies     occupation 
      1     -12.7059      2.00000
      2      -0.4008      2.00000
      3       0.6931      2.00000
      4       1.6619      2.00000
      5      13.8326      0.00000
      6      14.0197      0.00000
      7      15.4127      0.00000
      8      19.1906      0.00000
      9      23.2062      0.00000
     10      25.3157      0.00000
     11      30.0291      0.00000
     12      31.3551      0.00000
     13      32.3456      0.00000
     14      36.3659      0.00000
     15      36.9322      0.00000
     16      41.2074      0.00000
     17      42.9571      0.00000
     18      44.2583      0.00000

 k-point    46 :      -0.3000    0.4000    0.2000
  band No.  band energies     occupation 
      1     -12.6430      2.00000
      2      -0.1603      2.00000
      3       0.3045      2.00000
      4       1.5199      2.00000
      5      14.0257      0.00000
      6      14.5913      0.00000
      7      15.0797      0.00000
      8      18.6448      0.00000
      9      24.0665      0.00000
     10      24.6420      0.00000
     11      29.5272      0.00000
     12      31.5047      0.00000
     13      33.0184      0.00000
     14      36.2022      0.00000
     15      39.1843      0.00000
     16      40.5224      0.00000
     17      43.0418      0.00000
     18      43.1259      0.00000

 k-point    47 :      -0.3000    0.5000    0.2000
  band No.  band energies     occupation 
      1     -12.6176      2.00000
      2      -0.2483      2.00000
      3       0.5418      2.00000
      4       1.3171      2.00000
      5      13.8810      0.00000
      6      14.5545      0.00000
      7      14.9923      0.00000
      8      18.5942      0.00000
      9      23.4406      0.00000
     10      26.1340      0.00000
     11      28.8669      0.00000
     12      31.2724      0.00000
     13      34.1210      0.00000
     14      37.3180      0.00000
     15      39.4672      0.00000
     16      40.6409      0.00000
     17      42.0803      0.00000
     18      42.3858      0.00000


--------------------------------------------------------------------------------------------------------


 soft charge-density along one line, spin component           1
         0         1         2         3         4         5         6         7         8         9
 total charge-density along one line
 
 pseudopotential strength for first ion, spin component:           1
  2.973   9.448  -0.000  -0.000   0.000  -0.000  -0.000   0.000
  9.448  29.867  -0.000  -0.000   0.000  -0.000  -0.000   0.000
 -0.000  -0.000   7.293   0.000   0.000  10.570   0.000   0.000
 -0.000  -0.000   0.000   7.293   0.000   0.000  10.570   0.000
  0.000   0.000   0.000   0.000   7.293   0.000   0.000  10.570
 -0.000  -0.000  10.570   0.000   0.000  14.536   0.000   0.000
 -0.000  -0.000   0.000  10.570   0.000   0.000  14.536   0.000
  0.000   0.000   0.000   0.000  10.570   0.000   0.000  14.536
  0.000   0.000   0.000   0.000  -0.000   0.000   0.000  -0.000
  0.000   0.000  -0.000  -0.000   0.000  -0.000  -0.000   0.000
 -0.000  -0.000   0.000  -0.000  -0.000   0.000  -0.000   0.000
  0.000   0.000   0.000   0.000  -0.000   0.000   0.000  -0.000
  0.000   0.000   0.000   0.000  -0.000   0.000   0.000  -0.000
 total augmentation occupancy for first ion, spin component:           1
  0.993  -0.045   0.000   0.000   0.000   0.000   0.000   0.000  -0.000   0.000   0.000   0.000   0.000
 -0.045   0.002   0.000   0.000   0.000   0.000   0.000   0.000   0.000  -0.000   0.000   0.000   0.000
  0.000   0.000   0.115  -0.000   0.000  -0.012   0.000  -0.000   0.000   0.000   0.000   0.000   0.000
  0.000   0.000  -0.000   0.115   0.000  -0.000  -0.012  -0.000   0.000   0.000   0.000   0.000   0.000
  0.000   0.000   0.000   0.000   0.115  -0.000  -0.000  -0.012   0.000   0.000   0.000   0.000   0.000
  0.000   0.000  -0.012   0.000  -0.000   0.001   0.000   0.000   0.000   0.000   0.000   0.000   0.000
  0.000   0.000  -0.000  -0.012   0.000   0.000   0.001   0.000   0.000   0.000   0.000   0.000   0.000
  0.000   0.000  -0.000   0.000  -0.012   0.000   0.000   0.001   0.000   0.000   0.000   0.000   0.000
 -0.000   0.000   0.000   0.000   0.000   0.000   0.000   0.000   0.013   0.000   0.000  -0.000   0.000
  0.000  -0.000   0.000   0.000   0.000   0.000   0.000   0.000   0.000   0.013   0.000   0.000  -0.000
 -0.000   0.000   0.000   0.000   0.000   0.000   0.000   0.000   0.000   0.000   0.049   0.000   0.000
  0.000   0.000   0.000   0.000   0.000   0.000   0.000   0.000  -0.000   0.000  -0.000   0.013  -0.000
  0.000   0.000   0.000   0.000   0.000   0.000   0.000   0.000   0.000   0.000   0.000  -0.000   0.049


------------------------ aborting loop because EDIFF is reached ----------------------------------------


 


 total charge     
 
# of ion       s       p       d       tot
------------------------------------------
    1        0.145   0.172   0.075   0.391
    2        1.542   3.546   0.000   5.088
--------------------------------------------------
tot          1.687   3.718   0.075   5.480
 
    CHARGE:  cpu time    0.0040: real time    0.0038
    FORLOC:  cpu time    0.0000: real time    0.0001
    FORNL :  cpu time    0.0040: real time    0.0060
    STRESS:  cpu time    0.0920: real time    0.0944
    FORCOR:  cpu time    0.0080: real time    0.0057
    FORHAR:  cpu time    0.0000: real time    0.0012
    MIXING:  cpu time    0.0040: real time    0.0041
    OFIELD:  cpu time    0.0000: real time    0.0000

  FORCE on cell =-STRESS in cart. coord.  units (eV):
  Direction    XX          YY          ZZ          XY          YZ          ZX
  --------------------------------------------------------------------------------------
  Alpha Z    19.07806    19.07806    19.07806
  Ewald    -118.42187  -118.42187  -118.42187     0.00000     0.00000     0.00000
  Hartree    47.49110    47.49110    47.49110     0.00000     0.00000     0.00000
  E(xc)     -36.29795   -36.29795   -36.29795     0.00000     0.00000     0.00000
  Local     -41.50496   -41.50496   -41.50496     0.00005     0.00005     0.00005
  n-local   -19.03610   -19.68562   -17.32481    -0.51120     0.51087    -0.30121
  augment     6.82903     6.82903     6.82903    -0.00002    -0.00002    -0.00002
  Kinetic   143.17534   143.35549   138.00217     4.77093    -3.59787     2.28278
  Fock        0.00000     0.00000     0.00000     0.00000     0.00000     0.00000
  -------------------------------------------------------------------------------------
  Total       0.00225     0.00225     0.00225     0.00000     0.00000    -0.00000
  in kB       0.18811     0.18811     0.18811     0.00000     0.00000    -0.00000
  external pressure =        0.19 kB  Pullay stress =        0.00 kB


 VOLUME and BASIS-vectors are now :
 -----------------------------------------------------------------------------
  energy-cutoff  :      520.00
  volume of cell :       19.15
      direct lattice vectors                 reciprocal lattice vectors
     0.000000000  2.123375000  2.123375000    -0.235474186  0.235474186  0.235474186
     2.123375000  0.000000000  2.123375000     0.235474186 -0.235474186  0.235474186
     2.123375000  2.123375000  0.000000000     0.235474186  0.235474186 -0.235474186

  length of vectors
     3.002905723  3.002905723  3.002905723     0.407853254  0.407853254  0.407853254


 FORCES acting on ions
    electron-ion (+dipol)            ewald-force                    non-local-force                 convergence-correction
 -----------------------------------------------------------------------------------------------
   -.199E-14 0.260E-15 0.220E-14   -.448E-15 0.104E-15 0.175E-15   0.517E-25 0.517E-25 -.323E-25   0.705E-16 -.780E-16 -.183E-15
   -.487E-12 -.972E-13 -.252E-12   0.743E-15 -.918E-16 0.291E-15   0.414E-24 0.414E-24 0.620E-24   0.634E-14 0.889E-14 0.230E-13
 -----------------------------------------------------------------------------------------------
   -.489E-12 -.969E-13 -.250E-12   0.295E-15 0.126E-16 0.466E-15   0.465E-24 0.465E-24 0.588E-24   0.641E-14 0.881E-14 0.228E-13
 
 
 POSITION                                       TOTAL-FORCE (eV/Angst)
 -----------------------------------------------------------------------------------
      0.00000      0.00000      0.00000         0.000000      0.000000     -0.000000
      2.12337      2.12337      2.12337        -0.000000     -0.000000      0.000000
 -----------------------------------------------------------------------------------
    total drift:                               -0.000000     -0.000000     -0.000000


--------------------------------------------------------------------------------------------------------



  FREE ENERGIE OF THE ION-ELECTRON SYSTEM (eV)
  ---------------------------------------------------
  free  energy   TOTEN  =       -11.91177716 eV

  energy  without entropy=      -11.91177716  energy(sigma->0) =      -11.91177716
 


--------------------------------------------------------------------------------------------------------


    POTLOK:  cpu time    0.1080: real time    0.1079


--------------------------------------------------------------------------------------------------------




--------------------------------------------------------------------------------------------------------


  
 reached required accuracy - stopping structural energy minimisation
     LOOP+:  cpu time    2.7080: real time    2.7433
    4ORBIT:  cpu time    0.0000: real time    0.0000
 


 total charge     
 
# of ion       s       p       d       tot
------------------------------------------
    1        0.145   0.172   0.075   0.391
    2        1.542   3.546   0.000   5.088
--------------------------------------------------
tot          1.687   3.718   0.075   5.480
 

 total amount of memory used by VASP MPI-rank0    36251. kBytes
=======================================================================

   base      :      30000. kBytes
   nonl-proj :       5296. kBytes
   fftplans  :        117. kBytes
   grid      :        389. kBytes
   one-center:         16. kBytes
   wavefun   :        433. kBytes
 
  
  
 General timing and accounting informations for this job:
 ========================================================
  
                  Total CPU time used (sec):        3.360
                            User time (sec):        3.156
                          System time (sec):        0.204
                         Elapsed time (sec):        3.627
  
                   Maximum memory used (kb):       58576.
                   Average memory used (kb):           0.
  
                          Minor page faults:        17495
                          Major page faults:           10
                 Voluntary context switches:         2111
