PROCAR lm decomposed + phase
# of k-points:   47         # of bands:   18         # of ions:    2

 k-point     1 :    0.00000000 0.00000000 0.00000000     weight = 0.00100000

band     1 # energy  -14.13448444 # occ.  2.00000000
 
ion      s     py     pz     px    dxy    dyz    dz2    dxz  x2-y2    tot
    1  0.041  0.000  0.000  0.000  0.000  0.000  0.000  0.000  0.000  0.041
    2  0.672  0.000  0.000  0.000  0.000  0.000  0.000  0.000  0.000  0.672
tot    0.713  0.000  0.000  0.000  0.000  0.000  0.000  0.000  0.000  0.713
ion          s             py             pz             px             dxy            dyz            dz2            dxz          dx2-y2  
    1  0.193  0.000   0.000 -0.000   0.000  0.000  -0.000 -0.000  -0.000 -0.000  -0.000 -0.000   0.000 -0.000  -0.000 -0.000  -0.000 -0.000   0.037
    2  0.808  0.001   0.000 -0.000  -0.000  0.000  -0.000 -0.000   0.000  0.000   0.000  0.000   0.000  0.000   0.000  0.000   0.000  0.000   0.653
charge 0.690          0.000          0.000          0.000          0.000          0.000          0.000          0.000          0.000          0.690       
 
band     2 # energy    3.00464061 # occ.  2.00000000
 
ion      s     py     pz     px    dxy    dyz    dz2    dxz  x2-y2    tot
    1  0.000  0.004  0.011  0.002  0.000  0.000  0.000  0.000  0.000  0.017
    2  0.000  0.185  0.490  0.073  0.000  0.000  0.000  0.000  0.000  0.747
tot    0.000  0.189  0.500  0.074  0.000  0.000  0.000  0.000  0.000  0.764
ion          s             py             pz             px             dxy            dyz            dz2            dxz          dx2-y2  
    1  0.000 -0.000   0.054 -0.033  -0.088  0.054   0.034 -0.021  -0.000 -0.000   0.000 -0.000  -0.000 -0.000   0.000  0.000  -0.000  0.000   0.016
    2 -0.000  0.000  -0.358  0.221   0.583 -0.359  -0.225  0.139   0.000  0.000   0.000  0.000   0.000  0.000   0.000  0.000   0.000  0.000   0.716
charge 0.000          0.181          0.480          0.071          0.000          0.000          0.000          0.000          0.000          0.732       
 
band     3 # energy    3.00464061 # occ.  2.00000000
 
ion      s     py     pz     px    dxy    dyz    dz2    dxz  x2-y2    tot
    1  0.000  0.007  0.000  0.009  0.000  0.000  0.000  0.000  0.000  0.017
    2  0.000  0.313  0.009  0.425  0.000  0.000  0.000  0.000  0.000  0.747
tot    0.000  0.320  0.009  0.435  0.000  0.000  0.000  0.000  0.000  0.764
ion          s             py             pz             px             dxy            dyz            dz2            dxz          dx2-y2  
    1  0.000 -0.000  -0.031  0.076  -0.005  0.013   0.037 -0.089  -0.000 -0.000  -0.000  0.000   0.000  0.000  -0.000 -0.000   0.000 -0.000   0.016
    2 -0.000  0.000   0.210 -0.506   0.035 -0.083  -0.244  0.590   0.000  0.000   0.000  0.000   0.000  0.000   0.000  0.000   0.000  0.000   0.716
charge 0.000          0.307          0.008          0.417          0.000          0.000          0.000          0.000          0.000          0.732       
 
band     4 # energy    3.00464711 # occ.  2.00000000
 
ion      s     py     pz     px    dxy    dyz    dz2    dxz  x2-y2    tot
    1  0.000  0.006  0.006  0.006  0.000  0.000  0.000  0.000  0.000  0.017
    2  0.000  0.249  0.249  0.249  0.000  0.000  0.000  0.000  0.000  0.747
tot    0.000  0.255  0.254  0.255  0.000  0.000  0.000  0.000  0.000  0.764
ion          s             py             pz             px             dxy            dyz            dz2            dxz          dx2-y2  
    1  0.000 -0.000  -0.007  0.073  -0.007  0.073  -0.007  0.073  -0.000 -0.000  -0.000  0.000  -0.000  0.000   0.000  0.000   0.000  0.000   0.016
    2 -0.000  0.000   0.047 -0.486   0.047 -0.486   0.048 -0.486   0.000  0.000   0.000  0.000   0.000  0.000   0.000  0.000   0.000  0.000   0.716
charge 0.000          0.244          0.244          0.244          0.000          0.000          0.000          0.000          0.000          0.732       
 
band     5 # energy    7.49536282 # occ.  0.00000000
 
ion      s     py     pz     px    dxy    dyz    dz2    dxz  x2-y2    tot
    1  0.238  0.000  0.000  0.000  0.000  0.000  0.000  0.000  0.000  0.238
    2  0.253  0.000  0.000  0.000  0.000  0.000  0.000  0.000  0.000  0.253
tot    0.492  0.000  0.000  0.000  0.000  0.000  0.000  0.000  0.000  0.492
ion          s             py             pz             px             dxy            dyz            dz2            dxz          dx2-y2  
    1 -0.474 -0.001   0.000 -0.000   0.000  0.000  -0.000 -0.000   0.000  0.000   0.000  0.000  -0.000 -0.000   0.000  0.000   0.000 -0.000   0.225
    2  0.498  0.001   0.000 -0.000  -0.000  0.000  -0.000 -0.000   0.000  0.000   0.000  0.000   0.000  0.000   0.000  0.000   0.000  0.000   0.248
charge 0.473          0.000          0.000          0.000          0.000          0.000          0.000          0.000          0.000          0.473       
 
band     6 # energy   18.66478607 # occ.  0.00000000
 
ion      s     py     pz     px    dxy    dyz    dz2    dxz  x2-y2    tot
    1  0.000  0.000  0.000  0.000  0.000  0.149  0.000  0.148  0.000  0.296
    2  0.000  0.000  0.000  0.000  0.000  0.000  0.000  0.000  0.000  0.000
tot    0.000  0.000  0.000  0.000  0.000  0.149  0.000  0.148  0.000  0.296
ion          s             py             pz             px             dxy            dyz            dz2            dxz          dx2-y2  
    1  0.000  0.000   0.000 -0.000  -0.000  0.000  -0.000 -0.000  -0.000 -0.000   0.108  0.370  -0.000 -0.000  -0.108 -0.369   0.000  0.000   0.296
    2  0.000  0.000  -0.000  0.000   0.000 -0.000   0.000  0.000   0.000  0.000   0.000  0.000   0.000  0.000   0.000  0.000   0.000  0.000   0.000
charge 0.000          0.000          0.000          0.000          0.000          0.149          0.000          0.148          0.000          0.296       
 
band     7 # energy   18.66478612 # occ.  0.00000000
 
ion      s     py     pz     px    dxy    dyz    dz2    dxz  x2-y2    tot
    1  0.000  0.000  0.000  0.000  0.006  0.145  0.000  0.145  0.000  0.296
    2  0.000  0.000  0.000  0.000  0.000  0.000  0.000  0.000  0.000  0.000
tot    0.000  0.000  0.000  0.000  0.006  0.145  0.000  0.145  0.000  0.296
ion          s             py             pz             px             dxy            dyz            dz2            dxz          dx2-y2  
    1 -0.000 -0.000   0.000 -0.000  -0.000  0.000   0.000 -0.000   0.078  0.009  -0.378 -0.045   0.000  0.000  -0.379 -0.045   0.000  0.000   0.296
    2 -0.000 -0.000  -0.000  0.000   0.000 -0.000  -0.000  0.000   0.000  0.000   0.000  0.000   0.000  0.000   0.000  0.000   0.000  0.000   0.000
charge 0.000          0.000          0.000          0.000          0.006          0.145          0.000          0.145          0.000          0.296       
 
band     8 # energy   18.66478637 # occ.  0.00000000
 
ion      s     py     pz     px    dxy    dyz    dz2    dxz  x2-y2    tot
    1  0.000  0.000  0.000  0.000  0.290  0.003  0.000  0.003  0.000  0.296
    2  0.000  0.000  0.000  0.000  0.000  0.000  0.000  0.000  0.000  0.000
tot    0.000  0.000  0.000  0.000  0.290  0.003  0.000  0.003  0.000  0.296
ion          s             py             pz             px             dxy            dyz            dz2            dxz          dx2-y2  
    1  0.000 -0.000   0.000  0.000   0.000  0.000   0.000 -0.000   0.538 -0.005   0.056 -0.000   0.000 -0.000   0.056 -0.000  -0.000  0.000   0.296
    2  0.000 -0.000  -0.000 -0.000  -0.000 -0.000  -0.000  0.000   0.000  0.000   0.000  0.000   0.000  0.000   0.000  0.000   0.000  0.000   0.000
charge 0.000          0.000          0.000          0.000          0.290          0.003          0.000          0.003          0.000          0.296       
 
band     9 # energy   22.51724974 # occ.  0.00000000
 
ion      s     py     pz     px    dxy    dyz    dz2    dxz  x2-y2    tot
    1  0.000  0.000  0.000  0.000  0.000  0.000  0.000  0.000  0.000  0.000
    2  0.000  0.000  0.000  0.000  0.000  0.000  0.000  0.000  0.000  0.000
tot    0.000  0.000  0.000  0.000  0.000  0.000  0.000  0.000  0.000  0.000
ion          s             py             pz             px             dxy            dyz            dz2            dxz          dx2-y2  
    1  0.000  0.000   0.000  0.000   0.000  0.000   0.000  0.000   0.000  0.000  -0.000 -0.000   0.000  0.000  -0.000 -0.000   0.000 -0.000   0.000
    2 -0.000  0.000  -0.000 -0.000  -0.000 -0.000  -0.000 -0.000   0.000  0.000   0.000  0.000   0.000  0.000   0.000  0.000   0.000  0.000   0.000
charge 0.000          0.000          0.000          0.000          0.000          0.000          0.000          0.000          0.000          0.000       
 
band    10 # energy   24.26310989 # occ.  0.00000000
 
ion      s     py     pz     px    dxy    dyz    dz2    dxz  x2-y2    tot
    1  0.000  0.000  0.000  0.000  0.000  0.000  0.000  0.000  0.511  0.511
    2  0.000  0.000  0.000  0.000  0.000  0.000  0.000  0.000  0.000  0.000
tot    0.000  0.000  0.000  0.000  0.000  0.000  0.000  0.000  0.511  0.511
ion          s             py             pz             px             dxy            dyz            dz2            dxz          dx2-y2  
    1  0.000  0.000  -0.000  0.000   0.000  0.000   0.000  0.000  -0.000 -0.000  -0.000 -0.000   0.013  0.001   0.000  0.000   0.714  0.039   0.511
    2 -0.000 -0.000  -0.000 -0.000   0.000  0.000   0.000  0.000   0.000  0.000   0.000  0.000   0.000  0.000   0.000  0.000   0.000  0.000   0.000
charge 0.000          0.000          0.000          0.000          0.000          0.000          0.000          0.000          0.511          0.511       
 
band    11 # energy   24.26311030 # occ.  0.00000000
 
ion      s     py     pz     px    dxy    dyz    dz2    dxz  x2-y2    tot
    1  0.000  0.000  0.000  0.000  0.000  0.000  0.511  0.000  0.000  0.511
    2  0.000  0.000  0.000  0.000  0.000  0.000  0.000  0.000  0.000  0.000
tot    0.000  0.000  0.000  0.000  0.000  0.000  0.511  0.000  0.000  0.511
ion          s             py             pz             px             dxy            dyz            dz2            dxz          dx2-y2  
    1  0.000  0.000  -0.000 -0.000  -0.000 -0.000  -0.000  0.000   0.000  0.000  -0.000 -0.000  -0.573 -0.428  -0.000 -0.000   0.011  0.008   0.511
    2 -0.000 -0.000  -0.000 -0.000   0.000 -0.000  -0.000  0.000   0.000  0.000   0.000  0.000   0.000  0.000   0.000  0.000   0.000  0.000   0.000
charge 0.000          0.000          0.000          0.000          0.000          0.000          0.511          0.000          0.000          0.511       
 
band    12 # energy   26.78153810 # occ.  0.00000000
 
ion      s     py     pz     px    dxy    dyz    dz2    dxz  x2-y2    tot
    1  0.000  0.166  0.379  0.043  0.000  0.000  0.000  0.000  0.000  0.588
    2  0.000  0.013  0.029  0.003  0.000  0.000  0.000  0.000  0.000  0.045
tot    0.000  0.179  0.408  0.046  0.000  0.000  0.000  0.000  0.000  0.633
ion          s             py             pz             px             dxy            dyz            dz2            dxz          dx2-y2  
    1  0.000  0.000   0.407  0.014  -0.614 -0.021   0.207  0.007   0.000 -0.000   0.000  0.000   0.000  0.000   0.000  0.000   0.000  0.000   0.586
    2 -0.000 -0.000   0.109  0.004  -0.165 -0.006   0.056  0.002   0.000  0.000   0.000  0.000   0.000  0.000   0.000  0.000   0.000  0.000   0.042
charge 0.000          0.177          0.405          0.046          0.000          0.000          0.000          0.000          0.000          0.629       
 
band    13 # energy   26.78153812 # occ.  0.00000000
 
ion      s     py     pz     px    dxy    dyz    dz2    dxz  x2-y2    tot
    1  0.000  0.226  0.013  0.349  0.000  0.000  0.000  0.000  0.000  0.588
    2  0.000  0.017  0.001  0.027  0.000  0.000  0.000  0.000  0.000  0.045
tot    0.000  0.243  0.014  0.375  0.000  0.000  0.000  0.000  0.000  0.633
ion          s             py             pz             px             dxy            dyz            dz2            dxz          dx2-y2  
    1 -0.000  0.000  -0.002  0.475  -0.000  0.115   0.003 -0.590  -0.000  0.000   0.000  0.000   0.000 -0.000  -0.000 -0.000  -0.000  0.000   0.586
    2  0.000 -0.000  -0.001  0.128  -0.000  0.031   0.001 -0.159   0.000  0.000   0.000  0.000   0.000  0.000   0.000  0.000   0.000  0.000   0.042
charge 0.000          0.242          0.014          0.373          0.000          0.000          0.000          0.000          0.000          0.629       
 
band    14 # energy   26.78155451 # occ.  0.00000000
 
ion      s     py     pz     px    dxy    dyz    dz2    dxz  x2-y2    tot
    1  0.000  0.196  0.196  0.196  0.000  0.000  0.000  0.000  0.000  0.588
    2  0.000  0.015  0.015  0.015  0.000  0.000  0.000  0.000  0.000  0.045
tot    0.000  0.211  0.211  0.211  0.000  0.000  0.000  0.000  0.000  0.633
ion          s             py             pz             px             dxy            dyz            dz2            dxz          dx2-y2  
    1  0.000  0.000  -0.112 -0.428  -0.112 -0.427  -0.112 -0.428   0.000  0.000   0.000 -0.000  -0.000  0.000  -0.000 -0.000   0.000  0.000   0.586
    2 -0.000 -0.000  -0.030 -0.115  -0.030 -0.115  -0.030 -0.115   0.000  0.000   0.000  0.000   0.000  0.000   0.000  0.000   0.000  0.000   0.042
charge 0.000          0.210          0.209          0.210          0.000          0.000          0.000          0.000          0.000          0.629       
 
band    15 # energy   40.78357314 # occ.  0.00000000
 
ion      s     py     pz     px    dxy    dyz    dz2    dxz  x2-y2    tot
    1  0.000  0.000  0.001  0.000  0.000  0.000  0.000  0.000  0.000  0.002
    2  0.000  0.044  0.171  0.042  0.000  0.000  0.000  0.000  0.000  0.257
tot    0.000  0.044  0.172  0.042  0.000  0.000  0.000  0.000  0.000  0.258
ion          s             py             pz             px             dxy            dyz            dz2            dxz          dx2-y2  
    1  0.000  0.000   0.015  0.006  -0.029 -0.013   0.014  0.006   0.000 -0.000   0.000  0.000   0.000  0.000  -0.000  0.000   0.000 -0.000   0.002
    2 -0.000  0.000   0.165  0.072  -0.325 -0.141   0.160  0.070   0.000  0.000   0.000  0.000   0.000  0.000   0.000  0.000   0.000  0.000   0.188
charge 0.000          0.032          0.127          0.031          0.000          0.000          0.000          0.000          0.000          0.190       
 
band    16 # energy   40.78357314 # occ.  0.00000000
 
ion      s     py     pz     px    dxy    dyz    dz2    dxz  x2-y2    tot
    1  0.000  0.001  0.000  0.001  0.000  0.000  0.000  0.000  0.000  0.002
    2  0.000  0.127  0.000  0.129  0.000  0.000  0.000  0.000  0.000  0.257
tot    0.000  0.128  0.000  0.130  0.000  0.000  0.000  0.000  0.000  0.258
ion          s             py             pz             px             dxy            dyz            dz2            dxz          dx2-y2  
    1 -0.000  0.000   0.022  0.016   0.000  0.000  -0.022 -0.016  -0.000  0.000   0.000  0.000  -0.000 -0.000  -0.000  0.000   0.000  0.000   0.002
    2  0.000  0.000   0.248  0.179   0.002  0.001  -0.250 -0.180   0.000  0.000   0.000  0.000   0.000  0.000   0.000  0.000   0.000  0.000   0.188
charge 0.000          0.094          0.000          0.096          0.000          0.000          0.000          0.000          0.000          0.190       
 
band    17 # energy   40.78373320 # occ.  0.00000000
 
ion      s     py     pz     px    dxy    dyz    dz2    dxz  x2-y2    tot
    1  0.000  0.001  0.001  0.001  0.000  0.000  0.000  0.000  0.000  0.002
    2  0.000  0.086  0.086  0.086  0.000  0.000  0.000  0.000  0.000  0.257
tot    0.000  0.086  0.086  0.086  0.000  0.000  0.000  0.000  0.000  0.258
ion          s             py             pz             px             dxy            dyz            dz2            dxz          dx2-y2  
    1 -0.000 -0.000   0.008  0.021   0.008  0.021   0.008  0.021  -0.000 -0.000  -0.000  0.000   0.000 -0.000   0.000  0.000  -0.000 -0.000   0.002
    2  0.000  0.000   0.093  0.233   0.093  0.233   0.093  0.233   0.000  0.000   0.000  0.000   0.000  0.000   0.000  0.000   0.000  0.000   0.188
charge 0.000          0.063          0.063          0.063          0.000          0.000          0.000          0.000          0.000          0.190       
 
band    18 # energy   41.18837407 # occ.  0.00000000
 
ion      s     py     pz     px    dxy    dyz    dz2    dxz  x2-y2    tot
    1  0.479  0.000  0.000  0.000  0.000  0.000  0.000  0.000  0.000  0.479
    2  0.000  0.000  0.000  0.000  0.000  0.000  0.000  0.000  0.000  0.000
tot    0.479  0.000  0.000  0.000  0.000  0.000  0.000  0.000  0.000  0.479
ion          s             py             pz             px             dxy            dyz            dz2            dxz          dx2-y2  
    1  0.688  0.001  -0.000  0.000   0.000 -0.000   0.000  0.000   0.000  0.000   0.000  0.000   0.000  0.000   0.000  0.000  -0.000  0.000   0.473
    2 -0.004 -0.000  -0.000  0.000   0.000 -0.000   0.000  0.000   0.000  0.000   0.000  0.000   0.000  0.000   0.000  0.000   0.000  0.000   0.000
charge 0.473          0.000          0.000          0.000          0.000          0.000          0.000          0.000          0.000          0.473       
 

 k-point     2 :    0.10000000 0.00000000 0.00000000     weight = 0.00800000

band     1 # energy  -14.03328644 # occ.  2.00000000
 
ion      s     py     pz     px    dxy    dyz    dz2    dxz  x2-y2    tot
    1  0.038  0.001  0.001  0.001  0.000  0.000  0.000  0.000  0.000  0.040
    2  0.678  0.000  0.000  0.000  0.000  0.000  0.000  0.000  0.000  0.678
tot    0.716  0.001  0.001  0.001  0.000  0.000  0.000  0.000  0.000  0.718
ion          s             py             pz             px             dxy            dyz            dz2            dxz          dx2-y2  
    1 -0.154 -0.103   0.012 -0.018   0.012 -0.018  -0.012  0.018  -0.000 -0.000   0.000  0.000   0.000 -0.000  -0.000 -0.000   0.000 -0.000   0.036
    2 -0.676 -0.450   0.005 -0.007   0.005 -0.007  -0.005  0.007   0.000  0.000   0.000  0.000   0.000  0.000   0.000  0.000   0.000  0.000   0.659
charge 0.694          0.001          0.001          0.001          0.000          0.000          0.000          0.000          0.000          0.695       
 
band     2 # energy    2.35731661 # occ.  2.00000000
 
ion      s     py     pz     px    dxy    dyz    dz2    dxz  x2-y2    tot
    1  0.028  0.004  0.004  0.004  0.000  0.000  0.000  0.000  0.000  0.042
    2  0.024  0.217  0.217  0.217  0.000  0.000  0.000  0.000  0.000  0.675
tot    0.052  0.221  0.221  0.221  0.000  0.000  0.000  0.000  0.000  0.717
ion          s             py             pz             px             dxy            dyz            dz2            dxz          dx2-y2  
    1 -0.135 -0.090  -0.034  0.052  -0.034  0.052   0.034 -0.052  -0.018 -0.012   0.018  0.012   0.000  0.000  -0.018 -0.012  -0.000 -0.000   0.039
    2  0.129  0.086   0.252 -0.379   0.252 -0.379  -0.252  0.379   0.000  0.000   0.000  0.000   0.000  0.000   0.000  0.000   0.000  0.000   0.645
charge 0.050          0.211          0.211          0.211          0.000          0.000          0.000          0.000          0.000          0.685       
 
band     3 # energy    2.93998327 # occ.  2.00000000
 
ion      s     py     pz     px    dxy    dyz    dz2    dxz  x2-y2    tot
    1  0.000  0.007  0.007  0.000  0.000  0.000  0.002  0.000  0.001  0.018
    2  0.000  0.371  0.371  0.000  0.000  0.000  0.000  0.000  0.000  0.742
tot    0.000  0.379  0.378  0.000  0.000  0.000  0.002  0.000  0.001  0.760
ion          s             py             pz             px             dxy            dyz            dz2            dxz          dx2-y2  
    1 -0.000 -0.000   0.019  0.083  -0.019 -0.083   0.000  0.000  -0.014  0.003   0.000 -0.000   0.045 -0.010   0.014 -0.003   0.026 -0.006   0.018
    2 -0.000  0.000  -0.132 -0.581   0.132  0.581  -0.000 -0.000   0.000  0.000   0.000  0.000   0.000  0.000   0.000  0.000   0.000  0.000   0.711
charge 0.000          0.363          0.363          0.000          0.000          0.000          0.002          0.000          0.001          0.728       
 
band     4 # energy    2.93998866 # occ.  2.00000000
 
ion      s     py     pz     px    dxy    dyz    dz2    dxz  x2-y2    tot
    1  0.000  0.002  0.002  0.010  0.000  0.000  0.001  0.000  0.002  0.018
    2  0.000  0.124  0.124  0.495  0.000  0.000  0.000  0.000  0.000  0.742
tot    0.000  0.126  0.126  0.505  0.000  0.000  0.001  0.000  0.002  0.760
ion          s             py             pz             px             dxy            dyz            dz2            dxz          dx2-y2  
    1 -0.000 -0.000  -0.025  0.042  -0.025  0.042  -0.050  0.085   0.007  0.004   0.014  0.008  -0.023 -0.013   0.007  0.004   0.039  0.023   0.018
    2  0.000  0.000   0.174 -0.297   0.174 -0.297   0.348 -0.594   0.000  0.000   0.000  0.000   0.000  0.000   0.000  0.000   0.000  0.000   0.711
charge 0.000          0.121          0.121          0.483          0.000          0.000          0.001          0.000          0.002          0.728       
 
band     5 # energy    8.12692121 # occ.  0.00000000
 
ion      s     py     pz     px    dxy    dyz    dz2    dxz  x2-y2    tot
    1  0.207  0.004  0.004  0.004  0.000  0.000  0.000  0.000  0.000  0.219
    2  0.219  0.028  0.028  0.028  0.000  0.000  0.000  0.000  0.000  0.305
tot    0.426  0.032  0.032  0.032  0.000  0.000  0.000  0.000  0.000  0.523
ion          s             py             pz             px             dxy            dyz            dz2            dxz          dx2-y2  
    1  0.369  0.244  -0.034  0.052  -0.034  0.052   0.034 -0.052  -0.007 -0.004   0.007  0.004  -0.000 -0.000  -0.007 -0.004   0.000  0.000   0.207
    2 -0.386 -0.255   0.092 -0.139   0.092 -0.139  -0.092  0.139   0.000  0.000   0.000  0.000   0.000  0.000   0.000  0.000   0.000  0.000   0.298
charge 0.409          0.032          0.032          0.032          0.000          0.000          0.000          0.000          0.000          0.505       
 
band     6 # energy   17.42208098 # occ.  0.00000000
 
ion      s     py     pz     px    dxy    dyz    dz2    dxz  x2-y2    tot
    1  0.001  0.007  0.007  0.007  0.069  0.069  0.000  0.069  0.000  0.227
    2  0.000  0.008  0.008  0.008  0.000  0.000  0.000  0.000  0.000  0.024
tot    0.001  0.015  0.015  0.015  0.069  0.069  0.000  0.069  0.000  0.251
ion          s             py             pz             px             dxy            dyz            dz2            dxz          dx2-y2  
    1 -0.029 -0.020  -0.045  0.068  -0.045  0.068   0.045 -0.068  -0.218 -0.145   0.218  0.145  -0.000 -0.000  -0.218 -0.145   0.000  0.000   0.227
    2 -0.002 -0.002  -0.050  0.074  -0.050  0.074   0.050 -0.074   0.000  0.000   0.000  0.000   0.000  0.000   0.000  0.000   0.000  0.000   0.024
charge 0.001          0.015          0.015          0.015          0.069          0.069          0.000          0.069          0.000          0.251       
 
band     7 # energy   18.89539595 # occ.  0.00000000
 
ion      s     py     pz     px    dxy    dyz    dz2    dxz  x2-y2    tot
    1  0.000  0.006  0.005  0.000  0.133  0.000  0.000  0.150  0.000  0.296
    2  0.000  0.004  0.003  0.000  0.000  0.000  0.000  0.000  0.000  0.007
tot    0.000  0.010  0.009  0.000  0.133  0.000  0.000  0.150  0.000  0.303
ion          s             py             pz             px             dxy            dyz            dz2            dxz          dx2-y2  
    1 -0.000 -0.000   0.049 -0.060  -0.046  0.057   0.003 -0.003   0.283  0.230  -0.017 -0.014   0.014  0.012  -0.301 -0.244   0.009  0.007   0.296
    2 -0.000 -0.000   0.037 -0.046  -0.035  0.043   0.002 -0.003   0.000  0.000   0.000  0.000   0.000  0.000   0.000  0.000   0.000  0.000   0.007
charge 0.000          0.010          0.008          0.000          0.133          0.000          0.000          0.150          0.000          0.302       
 
band     8 # energy   18.89539744 # occ.  0.00000000
 
ion      s     py     pz     px    dxy    dyz    dz2    dxz  x2-y2    tot
    1  0.000  0.002  0.002  0.008  0.056  0.189  0.000  0.039  0.000  0.296
    2  0.000  0.001  0.001  0.004  0.000  0.000  0.000  0.000  0.000  0.007
tot    0.000  0.003  0.004  0.012  0.056  0.189  0.000  0.039  0.000  0.303
ion          s             py             pz             px             dxy            dyz            dz2            dxz          dx2-y2  
    1 -0.000 -0.000   0.022 -0.033   0.027 -0.039   0.049 -0.072  -0.195 -0.134  -0.358 -0.246  -0.010 -0.007  -0.163 -0.112   0.015  0.010   0.296
    2 -0.000 -0.000   0.017 -0.025   0.020 -0.030   0.038 -0.055   0.000  0.000   0.000  0.000   0.000  0.000   0.000  0.000   0.000  0.000   0.007
charge 0.000          0.002          0.004          0.012          0.056          0.189          0.000          0.039          0.000          0.302       
 
band     9 # energy   23.49863704 # occ.  0.00000000
 
ion      s     py     pz     px    dxy    dyz    dz2    dxz  x2-y2    tot
    1  0.000  0.105  0.040  0.015  0.002  0.001  0.122  0.005  0.203  0.494
    2  0.000  0.000  0.000  0.000  0.000  0.000  0.000  0.000  0.000  0.000
tot    0.000  0.105  0.040  0.015  0.002  0.001  0.122  0.005  0.203  0.494
ion          s             py             pz             px             dxy            dyz            dz2            dxz          dx2-y2  
    1  0.000 -0.000   0.228  0.230  -0.141 -0.142   0.087  0.088   0.032 -0.032  -0.020  0.020  -0.248  0.246  -0.052  0.051  -0.320  0.317   0.493
    2 -0.000  0.000   0.002  0.002  -0.001 -0.002   0.001  0.001   0.000  0.000   0.000  0.000   0.000  0.000   0.000  0.000   0.000  0.000   0.000
charge 0.000          0.105          0.040          0.015          0.002          0.001          0.122          0.005          0.203          0.493       
 
band    10 # energy   23.49863737 # occ.  0.00000000
 
ion      s     py     pz     px    dxy    dyz    dz2    dxz  x2-y2    tot
    1  0.000  0.002  0.067  0.092  0.003  0.005  0.203  0.000  0.122  0.494
    2  0.000  0.000  0.000  0.000  0.000  0.000  0.000  0.000  0.000  0.000
tot    0.000  0.002  0.067  0.092  0.003  0.005  0.203  0.000  0.122  0.494
ion          s             py             pz             px             dxy            dyz            dz2            dxz          dx2-y2  
    1  0.000  0.000  -0.025  0.037  -0.146  0.213  -0.171  0.249  -0.048 -0.033  -0.056 -0.038   0.371  0.255  -0.008 -0.006  -0.288 -0.198   0.493
    2 -0.000 -0.000  -0.000  0.000  -0.002  0.002  -0.002  0.003   0.000  0.000   0.000  0.000   0.000  0.000   0.000  0.000   0.000  0.000   0.000
charge 0.000          0.002          0.067          0.091          0.003          0.005          0.203          0.000          0.122          0.493       
 
band    11 # energy   24.12636273 # occ.  0.00000000
 
ion      s     py     pz     px    dxy    dyz    dz2    dxz  x2-y2    tot
    1  0.004  0.017  0.017  0.017  0.011  0.011  0.000  0.011  0.000  0.089
    2  0.000  0.004  0.004  0.004  0.000  0.000  0.000  0.000  0.000  0.011
tot    0.004  0.021  0.021  0.021  0.011  0.011  0.000  0.011  0.000  0.100
ion          s             py             pz             px             dxy            dyz            dz2            dxz          dx2-y2  
    1 -0.051 -0.034  -0.073  0.109  -0.073  0.109   0.073 -0.109  -0.087 -0.058   0.087  0.058   0.000  0.000  -0.087 -0.058  -0.000 -0.000   0.089
    2 -0.008 -0.005  -0.032  0.049  -0.032  0.049   0.032 -0.049   0.000  0.000   0.000  0.000   0.000  0.000   0.000  0.000   0.000  0.000   0.010
charge 0.004          0.021          0.021          0.021          0.011          0.011          0.000          0.011          0.000          0.099       
 
band    12 # energy   26.82320908 # occ.  0.00000000
 
ion      s     py     pz     px    dxy    dyz    dz2    dxz  x2-y2    tot
    1  0.046  0.149  0.149  0.149  0.028  0.028  0.000  0.028  0.000  0.577
    2  0.001  0.009  0.009  0.009  0.000  0.000  0.000  0.000  0.000  0.027
tot    0.047  0.158  0.158  0.158  0.028  0.028  0.000  0.028  0.000  0.605
ion          s             py             pz             px             dxy            dyz            dz2            dxz          dx2-y2  
    1  0.178  0.118   0.213 -0.321   0.213 -0.321  -0.213  0.321  -0.139 -0.093   0.139  0.093  -0.000 -0.000  -0.139 -0.093   0.000  0.000   0.575
    2  0.017  0.012   0.051 -0.077   0.051 -0.077  -0.051  0.077   0.000  0.000   0.000  0.000   0.000  0.000   0.000  0.000   0.000  0.000   0.026
charge 0.046          0.157          0.157          0.157          0.028          0.028          0.000          0.028          0.000          0.601       
 
band    13 # energy   27.96779594 # occ.  0.00000000
 
ion      s     py     pz     px    dxy    dyz    dz2    dxz  x2-y2    tot
    1  0.000  0.206  0.204  0.000  0.006  0.000  0.150  0.006  0.051  0.623
    2  0.000  0.027  0.027  0.000  0.000  0.000  0.000  0.000  0.000  0.055
tot    0.000  0.233  0.231  0.000  0.006  0.000  0.150  0.006  0.051  0.677
ion          s             py             pz             px             dxy            dyz            dz2            dxz          dx2-y2  
    1 -0.000  0.000   0.361  0.274  -0.359 -0.272   0.002  0.001   0.047 -0.062  -0.000  0.000   0.234 -0.309  -0.047  0.062   0.137 -0.180   0.622
    2 -0.000 -0.000   0.128  0.097  -0.127 -0.096   0.001  0.000   0.000  0.000   0.000  0.000   0.000  0.000   0.000  0.000   0.000  0.000   0.051
charge 0.000          0.231          0.229          0.000          0.006          0.000          0.150          0.006          0.051          0.673       
 
band    14 # energy   27.96781287 # occ.  0.00000000
 
ion      s     py     pz     px    dxy    dyz    dz2    dxz  x2-y2    tot
    1  0.000  0.067  0.069  0.273  0.002  0.008  0.051  0.002  0.150  0.623
    2  0.000  0.009  0.009  0.036  0.000  0.000  0.000  0.000  0.000  0.055