<?xml version="1.0" encoding="ISO-8859-1"?>
<modeling>
 <generator>
  <i name="program" type="string">vasp </i>
  <i name="version" type="string">5.4.4.18Apr17-6-g9f103f2a35  </i>
  <i name="subversion" type="string">(build Apr 25 2017 10:43:04) complex            parallel </i>
  <i name="platform" type="string">LinuxIFC </i>
  <i name="date" type="string">2019 10 28 </i>
  <i name="time" type="string">21:34:36 </i>
 </generator>
 <incar>
  <i type="string" name="PREC">n</i>
  <i type="string" name="ALGO">  N</i>
  <i type="int" name="ISPIN">     1</i>
  <i type="int" name="NELM">   100</i>
  <i type="int" name="IBRION">     2</i>
  <i name="EDIFF">      0.00000010</i>
  <i name="EDIFFG">     -0.00500000</i>
  <i type="int" name="NSW">    50</i>
  <i type="int" name="ISIF">     3</i>
  <i name="ENCUT">    520.00000000</i>
  <i type="logical" name="LREAL"> F  </i>
  <i type="int" name="ISMEAR">     0</i>
  <i name="SIGMA">      0.10000000</i>
  <i type="logical" name="LWAVE"> F  </i>
  <i type="logical" name="LCHARG"> F  </i>
  <i type="int" name="LORBIT">    12</i>
  <i type="logical" name="LASPH"> T  </i>
  <v type="int" name="KPOINT_BSE">    -1     0     0     0</v>
  <i type="int" name="NELM">   100</i>
  <i type="logical" name="LASPH"> T  </i>
 </incar>
 <structure name="primitive_cell" >
  <crystal>
   <varray name="basis" >
    <v>       0.00000000       2.12337500       2.12337500 </v>
    <v>       2.12337500       0.00000000       2.12337500 </v>
    <v>       2.12337500       2.12337500       0.00000000 </v>
   </varray>
   <i name="volume">     19.14741257 </i>
   <varray name="rec_basis" >
    <v>      -0.23547419       0.23547419       0.23547419 </v>
    <v>       0.23547419      -0.23547419       0.23547419 </v>
    <v>       0.23547419       0.23547419      -0.23547419 </v>
   </varray>
  </crystal>
  <varray name="positions" >
   <v>       0.00000000       0.00000000       0.00000000 </v>
   <v>      -0.50000000      -0.50000000      -0.50000000 </v>
  </varray>
 </structure>
 <varray name="primitive_index" >
  <v type="int" >        1 </v>
  <v type="int" >        2 </v>
 </varray>
 <kpoints>
  <generation param="Gamma">
   <v type="int" name="divisions">      10       10       10 </v>
   <v name="usershift">      0.00000000       0.00000000       0.00000000 </v>
   <v name="genvec1">      0.10000000       0.00000000       0.00000000 </v>
   <v name="genvec2">      0.00000000       0.10000000       0.00000000 </v>
   <v name="genvec3">      0.00000000       0.00000000       0.10000000 </v>
   <v name="shift">      0.00000000       0.00000000       0.00000000 </v>
  </generation>
  <varray name="kpointlist" >
   <v>       0.00000000       0.00000000       0.00000000 </v>
   <v>       0.10000000       0.00000000       0.00000000 </v>
   <v>       0.20000000       0.00000000       0.00000000 </v>
   <v>       0.30000000       0.00000000       0.00000000 </v>
   <v>       0.40000000       0.00000000       0.00000000 </v>
   <v>       0.50000000       0.00000000       0.00000000 </v>
   <v>       0.10000000       0.10000000       0.00000000 </v>
   <v>       0.20000000       0.10000000       0.00000000 </v>
   <v>       0.30000000       0.10000000       0.00000000 </v>
   <v>       0.40000000       0.10000000       0.00000000 </v>
   <v>       0.50000000       0.10000000       0.00000000 </v>
   <v>      -0.40000000       0.10000000       0.00000000 </v>
   <v>      -0.30000000       0.10000000       0.00000000 </v>
   <v>      -0.20000000       0.10000000       0.00000000 </v>
   <v>      -0.10000000       0.10000000       0.00000000 </v>
   <v>       0.20000000       0.20000000       0.00000000 </v>
   <v>       0.30000000       0.20000000       0.00000000 </v>
   <v>       0.40000000       0.20000000       0.00000000 </v>
   <v>       0.50000000       0.20000000       0.00000000 </v>
   <v>      -0.40000000       0.20000000       0.00000000 </v>
   <v>      -0.30000000       0.20000000       0.00000000 </v>
   <v>      -0.20000000       0.20000000       0.00000000 </v>
   <v>       0.30000000       0.30000000       0.00000000 </v>
   <v>       0.40000000       0.30000000       0.00000000 </v>
   <v>       0.50000000       0.30000000       0.00000000 </v>
   <v>      -0.40000000       0.30000000       0.00000000 </v>
   <v>      -0.30000000       0.30000000       0.00000000 </v>
   <v>       0.40000000       0.40000000       0.00000000 </v>
   <v>       0.50000000       0.40000000       0.00000000 </v>
   <v>      -0.40000000       0.40000000       0.00000000 </v>
   <v>       0.50000000       0.50000000       0.00000000 </v>
   <v>       0.30000000       0.20000000       0.10000000 </v>
   <v>       0.40000000       0.20000000       0.10000000 </v>
   <v>       0.50000000       0.20000000       0.10000000 </v>
   <v>      -0.40000000       0.20000000       0.10000000 </v>
   <v>       0.40000000       0.30000000       0.10000000 </v>
   <v>       0.50000000       0.30000000       0.10000000 </v>
   <v>      -0.40000000       0.30000000       0.10000000 </v>
   <v>      -0.30000000       0.30000000       0.10000000 </v>
   <v>      -0.20000000       0.30000000       0.10000000 </v>
   <v>       0.50000000       0.40000000       0.10000000 </v>
   <v>      -0.40000000       0.40000000       0.10000000 </v>
   <v>      -0.30000000       0.40000000       0.10000000 </v>
   <v>      -0.40000000       0.50000000       0.10000000 </v>
   <v>      -0.40000000       0.40000000       0.20000000 </v>
   <v>      -0.30000000       0.40000000       0.20000000 </v>
   <v>      -0.30000000       0.50000000       0.20000000 </v>
  </varray>
  <varray name="weights" >
   <v>       0.00100000 </v>
   <v>       0.00800000 </v>
   <v>       0.00800000 </v>
   <v>       0.00800000 </v>
   <v>       0.00800000 </v>
   <v>       0.00400000 </v>
   <v>       0.00600000 </v>
   <v>       0.02400000 </v>
   <v>       0.02400000 </v>
   <v>       0.02400000 </v>
   <v>       0.02400000 </v>
   <v>       0.02400000 </v>
   <v>       0.02400000 </v>
   <v>       0.02400000 </v>
   <v>       0.01200000 </v>
   <v>       0.00600000 </v>
   <v>       0.02400000 </v>
   <v>       0.02400000 </v>
   <v>       0.02400000 </v>
   <v>       0.02400000 </v>
   <v>       0.02400000 </v>
   <v>       0.01200000 </v>
   <v>       0.00600000 </v>
   <v>       0.02400000 </v>
   <v>       0.02400000 </v>
   <v>       0.02400000 </v>
   <v>       0.01200000 </v>
   <v>       0.00600000 </v>
   <v>       0.02400000 </v>
   <v>       0.01200000 </v>
   <v>       0.00300000 </v>
   <v>       0.02400000 </v>
   <v>       0.04800000 </v>
   <v>       0.04800000 </v>
   <v>       0.02400000 </v>
   <v>       0.02400000 </v>
   <v>       0.04800000 </v>
   <v>       0.04800000 </v>
   <v>       0.04800000 </v>
   <v>       0.02400000 </v>
   <v>       0.02400000 </v>
   <v>       0.04800000 </v>
   <v>       0.02400000 </v>
   <v>       0.01200000 </v>
   <v>       0.02400000 </v>
   <v>       0.02400000 </v>
   <v>       0.01200000 </v>
  </varray>
 </kpoints>
 <parameters>
  <separator name="general" >
   <i type="string" name="SYSTEM">unknown system</i>
   <i type="logical" name="LCOMPAT"> F  </i>
  </separator>
  <separator name="electronic" >
   <i type="string" name="PREC">n</i>
   <i name="ENMAX">    520.00000000</i>
   <i name="ENAUG">    605.39200000</i>
   <i name="EDIFF">      0.00000010</i>
   <i type="int" name="IALGO">    38</i>
   <i type="int" name="IWAVPR">    11</i>
   <i type="int" name="NBANDS">    18</i>
   <i name="NELECT">      8.00000000</i>
   <i type="int" name="TURBO">     0</i>
   <i type="int" name="IRESTART">     0</i>
   <i type="int" name="NREBOOT">     0</i>
   <i type="int" name="NMIN">     0</i>
   <i name="EREF">      0.00000000</i>
   <separator name="electronic smearing" >
    <i type="int" name="ISMEAR">     0</i>
    <i name="SIGMA">      0.10000000</i>
    <i name="KSPACING">      0.50000000</i>
    <i type="logical" name="KGAMMA"> T  </i>
   </separator>
   <separator name="electronic projectors" >
    <i type="logical" name="LREAL"> F  </i>
    <v name="ROPT">      0.00000000      0.00000000</v>
    <i type="int" name="LMAXPAW">  -100</i>
    <i type="int" name="LMAXMIX">     2</i>
    <i type="logical" name="NLSPLINE"> F  </i>
   </separator>
   <separator name="electronic startup" >
    <i type="int" name="ISTART">     0</i>
    <i type="int" name="ICHARG">     2</i>
    <i type="int" name="INIWAV">     1</i>
   </separator>
   <separator name="electronic spin" >
    <i type="int" name="ISPIN">     1</i>
    <i type="logical" name="LNONCOLLINEAR"> F  </i>
    <v name="MAGMOM">      1.00000000      1.00000000</v>
    <i name="NUPDOWN">     -1.00000000</i>
    <i type="logical" name="LSORBIT"> F  </i>
    <v name="SAXIS">      0.00000000      0.00000000      1.00000000</v>
    <i type="logical" name="LSPIRAL"> F  </i>
    <v name="QSPIRAL">      0.00000000      0.00000000      0.00000000</v>
    <i type="logical" name="LZEROZ"> F  </i>
   </separator>
   <separator name="electronic exchange-correlation" >
    <i type="logical" name="LASPH"> T  </i>
    <i type="logical" name="LMETAGGA"> F  </i>
   </separator>
   <separator name="electronic convergence" >
    <i type="int" name="NELM">   100</i>
    <i type="int" name="NELMDL">    -5</i>
    <i type="int" name="NELMIN">     2</i>
    <i name="ENINI">    520.00000000</i>
    <separator name="electronic convergence detail" >
     <i type="logical" name="LDIAG"> T  </i>
     <i type="logical" name="LSUBROT"> F  </i>
     <i name="WEIMIN">      0.00100000</i>
     <i name="EBREAK">      0.00000000</i>
     <i name="DEPER">      0.30000000</i>
     <i type="int" name="NRMM">     4</i>
     <i name="TIME">      0.40000000</i>
    </separator>
   </separator>
   <separator name="electronic mixer" >
    <i name="AMIX">      0.40000000</i>
    <i name="BMIX">      1.00000000</i>
    <i name="AMIN">      0.10000000</i>
    <i name="AMIX_MAG">      1.60000000</i>
    <i name="BMIX_MAG">      1.00000000</i>
    <separator name="electronic mixer details" >
     <i type="int" name="IMIX">     4</i>
     <i type="logical" name="MIXFIRST"> F  </i>
     <i type="int" name="MAXMIX">   -45</i>
     <i name="WC">    100.00000000</i>
     <i type="int" name="INIMIX">     1</i>
     <i type="int" name="MIXPRE">     1</i>
     <i type="int" name="MREMOVE">     5</i>
    </separator>
   </separator>
   <separator name="electronic dipolcorrection" >
    <i type="logical" name="LDIPOL"> F  </i>
    <i type="logical" name="LMONO"> F  </i>
    <i type="int" name="IDIPOL">     0</i>
    <i name="EPSILON">      1.00000000</i>
    <v name="DIPOL">   -100.00000000   -100.00000000   -100.00000000</v>
    <i name="EFIELD">      0.00000000</i>
   </separator>
  </separator>
  <separator name="grids" >
   <i type="int" name="NGX">    18</i>
   <i type="int" name="NGY">    18</i>
   <i type="int" name="NGZ">    18</i>
   <i type="int" name="NGXF">    36</i>
   <i type="int" name="NGYF">    36</i>
   <i type="int" name="NGZF">    36</i>
   <i type="logical" name="ADDGRID"> F  </i>
  </separator>
  <separator name="ionic" >
   <i type="int" name="NSW">    50</i>
   <i type="int" name="IBRION">     2</i>
   <i type="int" name="MDALGO">     0</i>
   <i type="int" name="ISIF">     3</i>
   <i name="PSTRESS">      0.00000000</i>
   <i name="EDIFFG">     -0.00500000</i>
   <i type="int" name="NFREE">     1</i>
   <i name="POTIM">      0.50000000</i>
   <i name="SMASS">     -3.00000000</i>
   <i name="SCALEE">      1.00000000</i>
  </separator>
  <separator name="ionic md" >
   <i name="TEBEG">      0.00010000</i>
   <i name="TEEND">      0.00010000</i>
   <i type="int" name="NBLOCK">     1</i>
   <i type="int" name="KBLOCK">    50</i>
   <i type="int" name="NPACO">   256</i>
   <i name="APACO">     16.00000000</i>
  </separator>
  <separator name="symmetry" >
   <i type="int" name="ISYM">     2</i>
   <i name="SYMPREC">      0.00001000</i>
  </separator>
  <separator name="dos" >
   <i type="int" name="LORBIT">    12</i>
   <v name="RWIGS">     -1.00000000     -1.00000000</v>
   <i type="int" name="NEDOS">   301</i>
   <i name="EMIN">     10.00000000</i>
   <i name="EMAX">    -10.00000000</i>
   <i name="EFERMI">      0.00000000</i>
  </separator>
  <separator name="writing" >
   <i type="int" name="NWRITE">     2</i>
   <i type="logical" name="LWAVE"> F  </i>
   <i type="logical" name="LDOWNSAMPLE"> F  </i>
   <i type="logical" name="LCHARG"> F  </i>
   <i type="logical" name="LPARD"> F  </i>
   <i type="logical" name="LVTOT"> F  </i>
   <i type="logical" name="LVHAR"> F  </i>
   <i type="logical" name="LELF"> F  </i>
   <i type="logical" name="LOPTICS"> F  </i>
   <v name="STM">      0.00000000      0.00000000      0.00000000      0.00000000      0.00000000      0.00000000      0.00000000</v>
  </separator>
  <separator name="performance" >
   <i type="int" name="NPAR">    18</i>
   <i type="int" name="NSIM">     4</i>
   <i type="int" name="NBLK">    -1</i>
   <i type="logical" name="LPLANE"> T  </i>
   <i type="logical" name="LSCALAPACK"> T  </i>
   <i type="logical" name="LSCAAWARE"> F  </i>
   <i type="logical" name="LSCALU"> F  </i>
   <i type="logical" name="LASYNC"> F  </i>
   <i type="logical" name="LORBITALREAL"> F  </i>
  </separator>
  <separator name="miscellaneous" >
   <i type="int" name="IDIOT">     3</i>
   <i type="int" name="ISPECIAL">     0</i>
   <i type="logical" name="LMUSIC"> F  </i>
   <v name="POMASS">     24.30500000     16.00000000</v>
   <v name="DARWINR">      0.00000000      0.00000000</v>
   <v name="DARWINV">      1.00000000      1.00000000</v>
   <i type="logical" name="LCORR"> T  </i>
  </separator>
  <i type="logical" name="GGA_COMPAT"> T  </i>
  <i type="logical" name="LBERRY"> F  </i>
  <i type="int" name="ICORELEVEL">     0</i>
  <i type="logical" name="LDAU"> F  </i>
  <i type="int" name="I_CONSTRAINED_M">     0</i>
  <separator name="electronic exchange-correlation" >
   <i type="string" name="GGA">--</i>
   <i type="int" name="VOSKOWN">     0</i>
   <i type="logical" name="LHFCALC"> F  </i>
   <i type="string" name="PRECFOCK"></i>
   <i type="logical" name="LSYMGRAD"> F  </i>
   <i type="logical" name="LHFONE"> F  </i>
   <i type="logical" name="LRHFCALC"> F  </i>
   <i type="logical" name="LTHOMAS"> F  </i>
   <i type="logical" name="LMODELHF"> F  </i>
   <i name="ENCUT4O">     -1.00000000</i>
   <i type="int" name="EXXOEP">     0</i>
   <i type="int" name="FOURORBIT">     0</i>
   <i name="AEXX">      0.00000000</i>
   <i name="HFALPHA">      0.00000000</i>
   <i name="MCALPHA">      0.00000000</i>
   <i name="ALDAX">      1.00000000</i>
   <i name="AGGAX">      1.00000000</i>
   <i name="ALDAC">      1.00000000</i>
   <i name="AGGAC">      1.00000000</i>
   <i type="int" name="NKREDX">     1</i>
   <i type="int" name="NKREDY">     1</i>
   <i type="int" name="NKREDZ">     1</i>
   <i type="logical" name="SHIFTRED"> F  </i>
   <i type="logical" name="ODDONLY"> F  </i>
   <i type="logical" name="EVENONLY"> F  </i>
   <i type="int" name="LMAXFOCK">     0</i>
   <i type="int" name="NMAXFOCKAE">     0</i>
   <i type="logical" name="LFOCKAEDFT"> F  </i>
   <i name="HFSCREEN">      0.00000000</i>
   <i name="HFSCREENC">      0.00000000</i>
   <i type="int" name="NBANDSGWLOW">     0</i>
  </separator>
  <separator name="vdW DFT" >
   <i type="logical" name="LUSE_VDW"> F  </i>
   <i name="Zab_VDW">     -0.84910000</i>
   <i name="PARAM1">      0.12340000</i>
   <i name="PARAM2">      1.00000000</i>
   <i name="PARAM3">      0.00000000</i>
  </separator>
  <separator name="model GW" >
   <i type="int" name="MODEL_GW">     0</i>
   <i name="MODEL_EPS0">      5.74422377</i>
   <i name="MODEL_ALPHA">      1.00000000</i>
  </separator>
  <separator name="linear response parameters" >
   <i type="logical" name="LEPSILON"> F  </i>
   <i type="logical" name="LRPA"> F  </i>
   <i type="logical" name="LNABLA"> F  </i>
   <i type="logical" name="LVEL"> F  </i>
   <i type="int" name="KINTER">     0</i>
   <i name="CSHIFT">      0.10000000</i>
   <i name="OMEGAMAX">     -1.00000000</i>
   <i name="DEG_THRESHOLD">      0.00200000</i>
   <i name="RTIME">     -0.10000000</i>
   <i name="WPLASMAI">      0.00000000</i>
   <v name="DFIELD">      0.00000000      0.00000000      0.00000000</v>
   <v name="WPLASMA">      0.00000000      0.00000000      0.00000000      0.00000000      0.00000000      0.00000000      0.00000000      0.00000000      0.00000000</v>
  </separator>
  <separator name="orbital magnetization" >
   <i type="logical" name="NUCIND"> F  </i>
   <v name="MAGPOS">      0.00000000      0.00000000      0.00000000</v>
   <i type="logical" name="LNICSALL"> T  </i>
   <i type="logical" name="ORBITALMAG"> F  </i>
   <i type="logical" name="LMAGBLOCH"> F  </i>
   <i type="logical" name="LCHIMAG"> F  </i>
   <i type="logical" name="LGAUGE"> T  </i>
   <i type="int" name="MAGATOM">     0</i>
   <v name="MAGDIPOL">      0.00000000      0.00000000      0.00000000</v>
   <v name="AVECCONST">      0.00000000      0.00000000      0.00000000</v>
  </separator>
  <separator name="response functions" >
   <i type="logical" name="LADDER"> F  </i>
   <i type="logical" name="LRPAFORCE"> F  </i>
   <i type="logical" name="LFXC"> F  </i>
   <i type="logical" name="LHARTREE"> T  </i>
   <i type="int" name="IBSE">     0</i>
   <v type="int" name="KPOINT">    -1     0     0     0</v>
   <i type="logical" name="LTCTE"> F  </i>
   <i type="logical" name="LTETE"> F  </i>
   <i type="logical" name="LTRIPLET"> F  </i>
   <i type="logical" name="LFXCEPS"> F  </i>
   <i type="logical" name="LFXHEG"> F  </i>
   <i type="int" name="NATURALO">     2</i>
   <i type="logical" name="L2ORDER"> F  </i>
   <i type="logical" name="LMP2LT"> F  </i>
   <i type="logical" name="LUSEW"> F  </i>
   <i name="ENCUTGW">     -2.00000000</i>
   <i name="ENCUTGWSOFT">     -2.00000000</i>
   <i name="ENCUTLF">     -1.00000000</i>
   <i type="int" name="LMAXMP2">    -1</i>
   <i name="SCISSOR">      0.00000000</i>
   <i type="int" name="NOMEGA">     0</i>
   <i type="int" name="NOMEGAR">     0</i>
   <i type="int" name="NBANDSGW">    -1</i>
   <i type="int" name="NBANDSO">    -1</i>
   <i type="int" name="NBANDSV">    -1</i>
   <i type="int" name="NELM">   100</i>
   <i type="int" name="NELMHF">     1</i>
   <i type="int" name="DIM">     3</i>
   <i type="int" name="ANTIRES">     0</i>
   <i name="OMEGAMAX">    -30.00000000</i>
   <i name="OMEGAMIN">    -30.00000000</i>
   <i name="OMEGATL">   -200.00000000</i>
   <i type="int" name="OMEGAGRID">   140</i>
   <i name="CSHIFT">     -0.10000000</i>
   <i type="logical" name="SELFENERGY"> F  </i>
   <i type="logical" name="LSPECTRAL"> F  </i>
   <i type="logical" name="LSPECTRALGW"> F  </i>
   <i type="logical" name="LSINGLES"> F  </i>
   <i type="logical" name="LFERMIGW"> F  </i>
   <i type="logical" name="ODDONLYGW"> F  </i>
   <i type="logical" name="EVENONLYGW"> F  </i>
   <i type="int" name="NKREDLFX">     1</i>
   <i type="int" name="NKREDLFY">     1</i>
   <i type="int" name="NKREDLFZ">     1</i>
   <i type="int" name="MAXMEM">  2800</i>
   <i type="int" name="TELESCOPE">     0</i>
   <i type="int" name="TAUPAR">     1</i>
   <i type="int" name="OMEGAPAR">    -1</i>
   <i name="LAMBDA">      1.00000000</i>
  </separator>
  <separator name="External order field" >
   <i name="OFIELD_KAPPA">      0.00000000</i>
   <v name="OFIELD_K">      0.00000000      0.00000000      0.00000000</v>
   <i name="OFIELD_Q6_NEAR">      0.00000000</i>
   <i name="OFIELD_Q6_FAR">      0.00000000</i>
   <i name="OFIELD_A">      0.00000000</i>
  </separator>
 </parameters>
 <atominfo>
  <atoms>       2 </atoms>
  <types>       2 </types>
  <array name="atoms" >
   <dimension dim="1">ion</dimension>
   <field type="string">element</field>
   <field type="int">atomtype</field>
   <set>
    <rc><c>Mg</c><c>   1</c></rc>
    <rc><c>O </c><c>   2</c></rc>
   </set>
  </array>
  <array name="atomtypes" >
   <dimension dim="1">type</dimension>
   <field type="int">atomspertype</field>
   <field type="string">element</field>
   <field>mass</field>
   <field>valence</field>
   <field type="string">pseudopotential</field>
   <set>
    <rc><c>   1</c><c>Mg</c><c>     24.30500000</c><c>      2.00000000</c><c>  PAW_PBE Mg 13Apr2007                  </c></rc>
    <rc><c>   1</c><c>O </c><c>     16.00000000</c><c>      6.00000000</c><c>  PAW_PBE O 08Apr2002                   </c></rc>
   </set>
  </array>
 </atominfo>
 <structure name="initialpos" >
  <crystal>
   <varray name="basis" >
    <v>       0.00000000       2.12337500       2.12337500 </v>
    <v>       2.12337500       0.00000000       2.12337500 </v>
    <v>       2.12337500       2.12337500       0.00000000 </v>
   </varray>
   <i name="volume">     19.14741257 </i>
   <varray name="rec_basis" >
    <v>      -0.23547419       0.23547419       0.23547419 </v>
    <v>       0.23547419      -0.23547419       0.23547419 </v>
    <v>       0.23547419       0.23547419      -0.23547419 </v>
   </varray>
  </crystal>
  <varray name="positions" >
   <v>       0.00000000       0.00000000       0.00000000 </v>
   <v>       0.50000000       0.50000000       0.50000000 </v>
  </varray>
 </structure>
 <calculation>
  <scstep>
   <time name="dav">    0.09    0.09</time>
   <time name="total">    0.19    0.20</time>
   <energy>
    <i name="alphaZ">     19.07805803 </i>
    <i name="ewald">   -355.26551564 </i>
    <i name="hartreedc">   -122.44930271 </i>
    <i name="XCdc">    -20.50704350 </i>
    <i name="pawpsdc">    411.85617216 </i>
    <i name="pawaedc">   -361.79210629 </i>
    <i name="eentropy">     -0.00000000 </i>
    <i name="bandstr">    -25.56251070 </i>
    <i name="atom">    455.39485029 </i>
    <i name="e_fr_energy">      0.75260164 </i>
    <i name="e_wo_entrp">      0.75260164 </i>
    <i name="e_0_energy">      0.75260164 </i>
   </energy>
  </scstep>
  <scstep>
   <time name="dav">    0.14    0.15</time>
   <time name="total">    0.14    0.15</time>
   <energy>
    <i name="e_fr_energy">    -13.44011994 </i>
    <i name="e_wo_entrp">    -13.44011994 </i>
    <i name="e_0_energy">    -13.44011994 </i>
   </energy>
  </scstep>
  <scstep>
   <time name="dav">    0.12    0.13</time>
   <time name="total">    0.12    0.13</time>
   <energy>
    <i name="e_fr_energy">    -13.46882502 </i>
    <i name="e_wo_entrp">    -13.46882502 </i>
    <i name="e_0_energy">    -13.46882502 </i>
   </energy>
  </scstep>
  <scstep>
   <time name="dav">    0.18    0.18</time>
   <time name="total">    0.18    0.18</time>
   <energy>
    <i name="e_fr_energy">    -13.46884198 </i>
    <i name="e_wo_entrp">    -13.46884198 </i>
    <i name="e_0_energy">    -13.46884198 </i>
   </energy>
  </scstep>
  <scstep>
   <time name="dav">    0.10    0.10</time>
   <time name="total">    0.10    0.10</time>
   <energy>
    <i name="e_fr_energy">    -13.46884198 </i>
    <i name="e_wo_entrp">    -13.46884198 </i>
    <i name="e_0_energy">    -13.46884198 </i>
   </energy>
  </scstep>
  <scstep>
   <time name="dav">    0.10    0.10</time>
   <time name="total">    0.21    0.21</time>
   <energy>
    <i name="e_fr_energy">    -11.93212870 </i>
    <i name="e_wo_entrp">    -11.93212870 </i>
    <i name="e_0_energy">    -11.93212870 </i>
   </energy>
  </scstep>
  <scstep>
   <time name="dav">    0.12    0.12</time>
   <time name="total">    0.23    0.23</time>
   <energy>
    <i name="e_fr_energy">    -11.91797823 </i>
    <i name="e_wo_entrp">    -11.91797823 </i>
    <i name="e_0_energy">    -11.91797823 </i>
   </energy>
  </scstep>
  <scstep>
   <time name="dav">    0.15    0.15</time>
   <time name="total">    0.26    0.26</time>
   <energy>
    <i name="e_fr_energy">    -11.91183720 </i>
    <i name="e_wo_entrp">    -11.91183720 </i>
    <i name="e_0_energy">    -11.91183720 </i>
   </energy>
  </scstep>
  <scstep>
   <time name="dav">    0.13    0.13</time>
   <time name="total">    0.24    0.24</time>
   <energy>
    <i name="e_fr_energy">    -11.91172617 </i>
    <i name="e_wo_entrp">    -11.91172617 </i>
    <i name="e_0_energy">    -11.91172617 </i>
   </energy>
  </scstep>
  <scstep>
   <time name="dav">    0.12    0.12</time>
   <time name="total">    0.23    0.23</time>
   <energy>
    <i name="e_fr_energy">    -11.91177703 </i>
    <i name="e_wo_entrp">    -11.91177703 </i>
    <i name="e_0_energy">    -11.91177703 </i>
   </energy>
  </scstep>
  <scstep>
   <time name="dav">    0.12    0.12</time>
   <time name="total">    0.23    0.23</time>
   <energy>
    <i name="e_fr_energy">    -11.91177719 </i>
    <i name="e_wo_entrp">    -11.91177719 </i>
    <i name="e_0_energy">    -11.91177719 </i>
   </energy>
  </scstep>
  <scstep>
   <time name="dav">    0.14    0.14</time>
   <time name="total">    0.24    0.24</time>
   <energy>
    <i name="alphaZ">     19.07805803 </i>
    <i name="ewald">   -355.26551564 </i>
    <i name="hartreedc">   -142.47339153 </i>
    <i name="XCdc">    -18.96265550 </i>
    <i name="pawpsdc">    543.04635909 </i>
    <i name="pawaedc">   -493.27336716 </i>
    <i name="eentropy">     -0.00000000 </i>
    <i name="bandstr">    -19.45611474 </i>
    <i name="atom">    455.39485029 </i>
    <i name="e_fr_energy">    -11.91177716 </i>
    <i name="e_wo_entrp">    -11.91177716 </i>
    <i name="e_0_energy">    -11.91177716 </i>
   </energy>
  </scstep>
  <structure>
   <crystal>
    <varray name="basis" >
     <v>       0.00000000       2.12337500       2.12337500 </v>
     <v>       2.12337500       0.00000000       2.12337500 </v>
     <v>       2.12337500       2.12337500       0.00000000 </v>
    </varray>
    <i name="volume">     19.14741257 </i>
    <varray name="rec_basis" >
     <v>      -0.23547419       0.23547419       0.23547419 </v>
     <v>       0.23547419      -0.23547419       0.23547419 </v>
     <v>       0.23547419       0.23547419      -0.23547419 </v>
    </varray>
   </crystal>
   <varray name="positions" >
    <v>       0.00000000       0.00000000       0.00000000 </v>
    <v>       0.50000000       0.50000000       0.50000000 </v>
   </varray>
  </structure>
  <varray name="forces" >
   <v>       0.00000000       0.00000000      -0.00000000 </v>
   <v>      -0.00000000      -0.00000000       0.00000000 </v>
  </varray>
  <varray name="stress" >
   <v>       0.18811265       0.00000000      -0.00000000 </v>
   <v>       0.00000000       0.18811265       0.00000000 </v>
   <v>       0.00000000       0.00000000       0.18811265 </v>
  </varray>
  <energy>
   <i name="e_fr_energy">    -11.91177716 </i>
   <i name="e_wo_entrp">    -11.91177716 </i>
   <i name="e_0_energy">     -0.00000000 </i>
  </energy>
  <time name="totalsc">    2.71    2.74</time>
  <eigenvalues>
   <array>
    <dimension dim="1">band</dimension>
    <dimension dim="2">kpoint</dimension>
    <dimension dim="3">spin</dimension>
    <field>eigene</field>
    <field>occ</field>
    <set>
     <set comment="spin 1">
      <set comment="kpoint 1">
       <r>  -14.1345    1.0000 </r>
       <r>    3.0046    1.0000 </r>
       <r>    3.0046    1.0000 </r>
       <r>    3.0046    1.0000 </r>
       <r>    7.4954    0.0000 </r>
       <r>   18.6648    0.0000 </r>
       <r>   18.6648    0.0000 </r>
       <r>   18.6648    0.0000 </r>
       <r>   22.5172    0.0000 </r>
       <r>   24.2631    0.0000 </r>
       <r>   24.2631    0.0000 </r>
       <r>   26.7815    0.0000 </r>
       <r>   26.7815    0.0000 </r>
       <r>   26.7816    0.0000 </r>
       <r>   40.7836    0.0000 </r>
       <r>   40.7836    0.0000 </r>
       <r>   40.7837    0.0000 </r>
       <r>   41.1884    0.0000 </r>
      </set>
      <set comment="kpoint 2">
       <r>  -14.0333    1.0000 </r>
       <r>    2.3573    1.0000 </r>
       <r>    2.9400    1.0000 </r>
       <r>    2.9400    1.0000 </r>
       <r>    8.1269    0.0000 </r>
       <r>   17.4221    0.0000 </r>
       <r>   18.8954    0.0000 </r>
       <r>   18.8954    0.0000 </r>
       <r>   23.4986    0.0000 </r>
       <r>   23.4986    0.0000 </r>
       <r>   24.1264    0.0000 </r>
       <r>   26.8232    0.0000 </r>
       <r>   27.9678    0.0000 </r>
       <r>   27.9678    0.0000 </r>
       <r>   39.2022    0.0000 </r>
       <r>   40.6962    0.0000 </r>
       <r>   40.6963    0.0000 </r>
       <r>   42.6304    0.0000 </r>
      </set>
      <set comment="kpoint 3">
       <r>  -13.7553    1.0000 </r>
       <r>    1.0608    1.0000 </r>
       <r>    2.7761    1.0000 </r>
       <r>    2.7761    1.0000 </r>
       <r>    9.3257    0.0000 </r>
       <r>   15.9028    0.0000 </r>
       <r>   19.3475    0.0000 </r>
       <r>   19.3475    0.0000 </r>
       <r>   22.8011    0.0000 </r>
       <r>   22.8011    0.0000 </r>
       <r>   24.8749    0.0000 </r>
       <r>   28.8721    0.0000 </r>
       <r>   30.0162    0.0000 </r>
       <r>   30.0163    0.0000 </r>
       <r>   37.3341    0.0000 </r>
       <r>   40.1465    0.0000 </r>
       <r>   40.1466    0.0000 </r>
       <r>   44.5402    0.0000 </r>
      </set>
      <set comment="kpoint 4">
       <r>  -13.3814    1.0000 </r>
       <r>   -0.2254    1.0000 </r>
       <r>    2.5831    1.0000 </r>
       <r>    2.5831    1.0000 </r>
       <r>   10.2852    0.0000 </r>
       <r>   15.1696    0.0000 </r>
       <r>   19.4182    0.0000 </r>
       <r>   19.4182    0.0000 </r>
       <r>   23.2527    0.0000 </r>
       <r>   23.2527    0.0000 </r>
       <r>   24.2552    0.0000 </r>
       <r>   31.5845    0.0000 </r>
       <r>   31.9596    0.0000 </r>
       <r>   31.9597    0.0000 </r>
       <r>   36.9152    0.0000 </r>
       <r>   38.3815    0.0000 </r>
       <r>   38.3816    0.0000 </r>
       <r>   46.3298    0.0000 </r>
      </set>
      <set comment="kpoint 5">
       <r>  -13.0478    1.0000 </r>
       <r>   -1.1602    1.0000 </r>
       <r>    2.4340    1.0000 </r>
       <r>    2.4340    1.0000 </r>
       <r>   10.6808    0.0000 </r>
       <r>   15.1932    0.0000 </r>
       <r>   19.1807    0.0000 </r>
       <r>   19.1807    0.0000 </r>
       <r>   23.7180    0.0000 </r>
       <r>   24.4856    0.0000 </r>
       <r>   24.4856    0.0000 </r>
       <r>   31.5172    0.0000 </r>
       <r>   33.2214    0.0000 </r>
       <r>   33.2215    0.0000 </r>
       <r>   36.1106    0.0000 </r>
       <r>   36.1106    0.0000 </r>
       <r>   40.4896    0.0000 </r>
       <r>   47.4738    0.0000 </r>
      </set>
      <set comment="kpoint 6">
       <r>  -12.9111    1.0000 </r>
       <r>   -1.5049    1.0000 </r>
       <r>    2.3785    1.0000 </r>
       <r>    2.3785    1.0000 </r>
       <r>   10.7463    0.0000 </r>
       <r>   15.3329    0.0000 </r>
       <r>   19.0624    0.0000 </r>
       <r>   19.0624    0.0000 </r>
       <r>   23.5279    0.0000 </r>
       <r>   25.1973    0.0000 </r>
       <r>   25.1973    0.0000 </r>
       <r>   31.1119    0.0000 </r>
       <r>   33.4757    0.0000 </r>
       <r>   33.4757    0.0000 </r>
       <r>   35.1927    0.0000 </r>
       <r>   35.1927    0.0000 </r>
       <r>   44.9431    0.0000 </r>
       <r>   46.5923    0.0000 </r>
      </set>
      <set comment="kpoint 7">
       <r>  -14.0005    1.0000 </r>
       <r>    2.2903    1.0000 </r>
       <r>    2.8561    1.0000 </r>
       <r>    2.8561    1.0000 </r>
       <r>    8.3291    0.0000 </r>
       <r>   17.0704    0.0000 </r>
       <r>   18.9807    0.0000 </r>
       <r>   18.9807    0.0000 </r>
       <r>   22.2548    0.0000 </r>
       <r>   24.5659    0.0000 </r>
       <r>   24.7754    0.0000 </r>
       <r>   27.2709    0.0000 </r>
       <r>   27.2709    0.0000 </r>
       <r>   28.4792    0.0000 </r>
       <r>   39.2557    0.0000 </r>
       <r>   40.3434    0.0000 </r>
       <r>   40.3435    0.0000 </r>
       <r>   43.2018    0.0000 </r>
      </set>
      <set comment="kpoint 8">
       <r>  -13.7838    1.0000 </r>
       <r>    1.3367    1.0000 </r>
       <r>    2.6803    1.0000 </r>
       <r>    2.7053    1.0000 </r>
       <r>    9.3291    0.0000 </r>
       <r>   15.8286    0.0000 </r>
       <r>   19.2919    0.0000 </r>
       <r>   19.3686    0.0000 </r>
       <r>   21.1847    0.0000 </r>
       <r>   24.3283    0.0000 </r>
       <r>   26.1247    0.0000 </r>
       <r>   28.4968    0.0000 </r>
       <r>   28.8064    0.0000 </r>
       <r>   30.0009    0.0000 </r>
       <r>   37.6980    0.0000 </r>
       <r>   39.6037    0.0000 </r>
       <r>   40.5545    0.0000 </r>
       <r>   44.6395    0.0000 </r>
      </set>
      <set comment="kpoint 9">
       <r>  -13.4442    1.0000 </r>
       <r>    0.1578    1.0000 </r>
       <r>    2.4727    1.0000 </r>
       <r>    2.4868    1.0000 </r>
       <r>   10.4123    0.0000 </r>
       <r>   15.0020    0.0000 </r>
       <r>   18.9193    0.0000 </r>
       <r>   19.5917    0.0000 </r>
       <r>   21.5704    0.0000 </r>
       <r>   24.4072    0.0000 </r>
       <r>   25.7611    0.0000 </r>
       <r>   31.1320    0.0000 </r>
       <r>   31.2607    0.0000 </r>
       <r>   31.6806    0.0000 </r>
       <r>   36.5765    0.0000 </r>
       <r>   37.7080    0.0000 </r>
       <r>   40.9678    0.0000 </r>
       <r>   44.7296    0.0000 </r>
      </set>
      <set comment="kpoint 10">
       <r>  -13.0964    1.0000 </r>
       <r>   -0.8227    1.0000 </r>
       <r>    2.2243    1.0000 </r>
       <r>    2.3469    1.0000 </r>
       <r>   11.0321    0.0000 </r>
       <r>   14.9492    0.0000 </r>
       <r>   18.3180    0.0000 </r>
       <r>   19.4696    0.0000 </r>
       <r>   22.7954    0.0000 </r>
       <r>   25.1665    0.0000 </r>
       <r>   25.3145    0.0000 </r>
       <r>   31.9186    0.0000 </r>
       <r>   32.5578    0.0000 </r>
       <r>   33.4239    0.0000 </r>
       <r>   35.0457    0.0000 </r>
       <r>   38.6584    0.0000 </r>
       <r>   39.8267    0.0000 </r>
       <r>   45.5555    0.0000 </r>
      </set>
      <set comment="kpoint 11">
       <r>  -12.8908    1.0000 </r>
       <r>   -1.3342    1.0000 </r>
       <r>    2.0515    1.0000 </r>
       <r>    2.3065    1.0000 </r>
       <r>   11.1970    0.0000 </r>
       <r>   15.2156    0.0000 </r>
       <r>   18.0234    0.0000 </r>
       <r>   19.3115    0.0000 </r>
       <r>   23.8872    0.0000 </r>
       <r>   25.1524    0.0000 </r>
       <r>   25.5073    0.0000 </r>
       <r>   31.9723    0.0000 </r>
       <r>   32.6759    0.0000 </r>
       <r>   33.1626    0.0000 </r>
       <r>   35.4470    0.0000 </r>
       <r>   36.6669    0.0000 </r>
       <r>   44.1888    0.0000 </r>
       <r>   47.4806    0.0000 </r>
      </set>
      <set comment="kpoint 12">
       <r>  -12.9349    1.0000 </r>
       <r>   -1.2237    1.0000 </r>
       <r>    2.0114    1.0000 </r>
       <r>    2.3784    1.0000 </r>
       <r>   11.1847    0.0000 </r>
       <r>   15.1701    0.0000 </r>
       <r>   18.0763    0.0000 </r>
       <r>   19.3580    0.0000 </r>
       <r>   24.4130    0.0000 </r>
       <r>   24.4400    0.0000 </r>
       <r>   25.1747    0.0000 </r>
       <r>   32.0996    0.0000 </r>
       <r>   32.7256    0.0000 </r>
       <r>   33.7225    0.0000 </r>
       <r>   34.5796    0.0000 </r>
       <r>   37.4850    0.0000 </r>
       <r>   42.5971    0.0000 </r>
       <r>   46.1755    0.0000 </r>
      </set>
      <set comment="kpoint 13">
       <r>  -13.2042    1.0000 </r>
       <r>   -0.5288    1.0000 </r>
       <r>    2.1220    1.0000 </r>
       <r>    2.5402    1.0000 </r>
       <r>   10.9064    0.0000 </r>
       <r>   14.9665    0.0000 </r>
       <r>   18.4315    0.0000 </r>
       <r>   19.6685    0.0000 </r>
       <r>   22.6718    0.0000 </r>
       <r>   24.2370    0.0000 </r>
       <r>   25.4261    0.0000 </r>
       <r>   31.8963    0.0000 </r>
       <r>   32.3992    0.0000 </r>
       <r>   32.8115    0.0000 </r>
       <r>   35.7038    0.0000 </r>
       <r>   38.5191    0.0000 </r>
       <r>   39.8390    0.0000 </r>
       <r>   44.3971    0.0000 </r>
      </set>
      <set comment="kpoint 14">
       <r>  -13.5652    1.0000 </r>
       <r>    0.5382    1.0000 </r>
       <r>    2.3634    1.0000 </r>
       <r>    2.7370    1.0000 </r>
       <r>   10.0754    0.0000 </r>
       <r>   15.3096    0.0000 </r>
       <r>   18.8728    0.0000 </r>
       <r>   19.9159    0.0000 </r>
       <r>   21.5361    0.0000 </r>
       <r>   23.6659    0.0000 </r>
       <r>   25.9073    0.0000 </r>
       <r>   29.6332    0.0000 </r>
       <r>   31.1850    0.0000 </r>
       <r>   31.3217    0.0000 </r>
       <r>   36.0993    0.0000 </r>
       <r>   39.1966    0.0000 </r>
       <r>   41.2331    0.0000 </r>
       <r>   44.0442    0.0000 </r>
      </set>
      <set comment="kpoint 15">
       <r>  -13.8739    1.0000 </r>
       <r>    1.6493    1.0000 </r>
       <r>    2.6819    1.0000 </r>
       <r>    2.8930    1.0000 </r>
       <r>    8.9253    0.0000 </r>
       <r>   16.3550    0.0000 </r>
       <r>   19.0213    0.0000 </r>
       <r>   19.3240    0.0000 </r>
       <r>   22.1370    0.0000 </r>
       <r>   23.5972    0.0000 </r>
       <r>   25.5655    0.0000 </r>
       <r>   27.8601    0.0000 </r>
       <r>   28.3343    0.0000 </r>
       <r>   29.6625    0.0000 </r>
       <r>   37.9130    0.0000 </r>
       <r>   40.0734    0.0000 </r>
       <r>   41.0554    0.0000 </r>
       <r>   43.6604    0.0000 </r>
      </set>
      <set comment="kpoint 16">
       <r>  -13.6428    1.0000 </r>
       <r>    1.0114    1.0000 </r>
       <r>    2.4945    1.0000 </r>
       <r>    2.4945    1.0000 </r>
       <r>    9.9733    0.0000 </r>
       <r>   14.9738    0.0000 </r>
       <r>   19.4696    0.0000 </r>
       <r>   19.7564    0.0000 </r>
       <r>   19.7564    0.0000 </r>
       <r>   25.4587    0.0000 </r>
       <r>   28.7553    0.0000 </r>
       <r>   28.7553    0.0000 </r>
       <r>   28.8628    0.0000 </r>
       <r>   30.1208    0.0000 </r>
       <r>   38.0235    0.0000 </r>
       <r>   39.1059    0.0000 </r>
       <r>   39.1060    0.0000 </r>
       <r>   46.3867    0.0000 </r>
      </set>
      <set comment="kpoint 17">
       <r>  -13.3723    1.0000 </r>
       <r>    0.2633    1.0000 </r>
       <r>    2.2194    1.0000 </r>
       <r>    2.2965    1.0000 </r>
       <r>   10.9483    0.0000 </r>
       <r>   14.2246    0.0000 </r>
       <r>   18.1056    0.0000 </r>
       <r>   20.1069    0.0000 </r>
       <r>   20.5448    0.0000 </r>
       <r>   25.7967    0.0000 </r>
       <r>   28.5996    0.0000 </r>
       <r>   30.5295    0.0000 </r>
       <r>   30.5977    0.0000 </r>
       <r>   32.2076    0.0000 </r>
       <r>   36.9356    0.0000 </r>
       <r>   37.6958    0.0000 </r>
       <r>   40.0607    0.0000 </r>
       <r>   44.7124    0.0000 </r>
      </set>
      <set comment="kpoint 18">
       <r>  -13.0612    1.0000 </r>
       <r>   -0.4650    1.0000 </r>
       <r>    1.7993    1.0000 </r>
       <r>    2.1585    1.0000 </r>
       <r>   11.7910    0.0000 </r>
       <r>   14.1778    0.0000 </r>
       <r>   17.1104    0.0000 </r>
       <r>   20.1242    0.0000 </r>
       <r>   21.4010    0.0000 </r>
       <r>   26.3049    0.0000 </r>
       <r>   28.2862    0.0000 </r>
       <r>   30.7789    0.0000 </r>
       <r>   32.7802    0.0000 </r>
       <r>   33.8340    0.0000 </r>
       <r>   35.3169    0.0000 </r>
       <r>   38.5277    0.0000 </r>
       <r>   42.3000    0.0000 </r>
       <r>   43.4622    0.0000 </r>
      </set>
      <set comment="kpoint 19">
       <r>  -12.8337    1.0000 </r>
       <r>   -0.9148    1.0000 </r>
       <r>    1.3890    1.0000 </r>
       <r>    2.1249    1.0000 </r>
       <r>   12.1458    0.0000 </r>
       <r>   14.7600    0.0000 </r>
       <r>   16.5548    0.0000 </r>
       <r>   19.9538    0.0000 </r>
       <r>   22.0979    0.0000 </r>
       <r>   26.4589    0.0000 </r>
       <r>   27.9285    0.0000 </r>
       <r>   31.1972    0.0000 </r>
       <r>   32.4290    0.0000 </r>
       <r>   33.7439    0.0000 </r>
       <r>   36.1303    0.0000 </r>
       <r>   39.3950    0.0000 </r>
       <r>   43.4890    0.0000 </r>
       <r>   45.6345    0.0000 </r>
      </set>
      <set comment="kpoint 20">
       <r>  -12.7980    1.0000 </r>
       <r>   -0.9455    1.0000 </r>
       <r>    1.1633    1.0000 </r>
       <r>    2.2065    1.0000 </r>
       <r>   12.2599    0.0000 </r>
       <r>   15.0336    0.0000 </r>
       <r>   16.4543    0.0000 </r>
       <r>   19.8736    0.0000 </r>
       <r>   22.8862    0.0000 </r>
       <r>   25.1092    0.0000 </r>
       <r>   27.6604    0.0000 </r>
       <r>   31.9082    0.0000 </r>
       <r>   32.0959    0.0000 </r>
       <r>   34.1408    0.0000 </r>
       <r>   36.4198    0.0000 </r>
       <r>   38.6987    0.0000 </r>
       <r>   44.2419    0.0000 </r>
       <r>   45.5336    0.0000 </r>
      </set>
      <set comment="kpoint 21">
       <r>  -12.9722    1.0000 </r>
       <r>   -0.5847    1.0000 </r>
       <r>    1.2495    1.0000 </r>
       <r>    2.3781    1.0000 </r>
       <r>   12.0629    0.0000 </r>
       <r>   14.7565    0.0000 </r>
       <r>   16.9118    0.0000 </r>
       <r>   20.0459    0.0000 </r>
       <r>   23.0536    0.0000 </r>
       <r>   23.7806    0.0000 </r>
       <r>   27.6522    0.0000 </r>
       <r>   31.6824    0.0000 </r>
       <r>   32.3398    0.0000 </r>
       <r>   33.8042    0.0000 </r>
       <r>   35.8451    0.0000 </r>
       <r>   40.9699    0.0000 </r>
       <r>   41.5444    0.0000 </r>
       <r>   42.1357    0.0000 </r>
      </set>
      <set comment="kpoint 22">
       <r>  -13.2699    1.0000 </r>
       <r>   -0.0333    1.0000 </r>
       <r>    1.7078    1.0000 </r>
       <r>    2.5815    1.0000 </r>
       <r>   11.2132    0.0000 </r>
       <r>   14.7760    0.0000 </r>
       <r>   17.8373    0.0000 </r>
       <r>   20.5015    0.0000 </r>
       <r>   21.2980    0.0000 </r>
       <r>   24.0792    0.0000 </r>
       <r>   27.4072    0.0000 </r>
       <r>   30.1493    0.0000 </r>
       <r>   32.1620    0.0000 </r>
       <r>   34.2280    0.0000 </r>
       <r>   34.3709    0.0000 </r>
       <r>   39.4742    0.0000 </r>
       <r>   41.8734    0.0000 </r>
       <r>   42.9877    0.0000 </r>
      </set>
      <set comment="kpoint 23">
       <r>  -13.1872    1.0000 </r>
       <r>   -0.0818    1.0000 </r>
       <r>    2.0928    1.0000 </r>
       <r>    2.0928    1.0000 </r>
       <r>   11.6000    0.0000 </r>
       <r>   13.3863    0.0000 </r>
       <r>   17.1643    0.0000 </r>
       <r>   20.6431    0.0000 </r>
       <r>   20.6431    0.0000 </r>
       <r>   26.8730    0.0000 </r>
       <r>   29.8841    0.0000 </r>
       <r>   31.0771    0.0000 </r>
       <r>   31.0771    0.0000 </r>
       <r>   33.7650    0.0000 </r>
       <r>   37.6996    0.0000 </r>
       <r>   37.6997    0.0000 </r>
       <r>   38.5370    0.0000 </r>
       <r>   42.1908    0.0000 </r>
      </set>
      <set comment="kpoint 24">
       <r>  -12.9519    1.0000 </r>
       <r>   -0.4909    1.0000 </r>
       <r>    1.7371    1.0000 </r>
       <r>    1.9496    1.0000 </r>
       <r>   12.3372    0.0000 </r>
       <r>   13.1037    0.0000 </r>
       <r>   16.3461    0.0000 </r>
       <r>   20.8613    0.0000 </r>
       <r>   21.0634    0.0000 </r>
       <r>   27.5898    0.0000 </r>
       <r>   29.4918    0.0000 </r>
       <r>   31.3769    0.0000 </r>
       <r>   32.4497    0.0000 </r>
       <r>   35.7472    0.0000 </r>
       <r>   36.3923    0.0000 </r>
       <r>   38.4136    0.0000 </r>
       <r>   40.5823    0.0000 </r>
       <r>   41.7309    0.0000 </r>
      </set>
      <set comment="kpoint 25">
       <r>  -12.7567    1.0000 </r>
       <r>   -0.6503    1.0000 </r>
       <r>    1.0827    1.0000 </r>
       <r>    1.9130    1.0000 </r>
       <r>   12.6963    0.0000 </r>
       <r>   13.8963    0.0000 </r>
       <r>   15.7693    0.0000 </r>
       <r>   20.7326    0.0000 </r>
       <r>   21.1727    0.0000 </r>
       <r>   28.0012    0.0000 </r>
       <r>   29.6154    0.0000 </r>
       <r>   30.9558    0.0000 </r>
       <r>   31.6972    0.0000 </r>
       <r>   35.6768    0.0000 </r>
       <r>   37.1483    0.0000 </r>
       <r>   41.9557    0.0000 </r>
       <r>   43.0706    0.0000 </r>
       <r>   43.5374    0.0000 </r>
      </set>
      <set comment="kpoint 26">
       <r>  -12.6859    1.0000 </r>
       <r>   -0.4625    1.0000 </r>
       <r>    0.4107    1.0000 </r>
       <r>    1.9943    1.0000 </r>
       <r>   12.9984    0.0000 </r>
       <r>   14.8218    0.0000 </r>
       <r>   15.3824    0.0000 </r>
       <r>   20.4829    0.0000 </r>
       <r>   21.3363    0.0000 </r>
       <r>   26.7026    0.0000 </r>
       <r>   29.8925    0.0000 </r>
       <r>   30.7516    0.0000 </r>
       <r>   31.2918    0.0000 </r>
       <r>   36.1297    0.0000 </r>
       <r>   38.7328    0.0000 </r>
       <r>   39.6291    0.0000 </r>
       <r>   43.2555    0.0000 </r>
       <r>   46.2514    0.0000 </r>
      </set>
      <set comment="kpoint 27">
       <r>  -12.7714    1.0000 </r>
       <r>   -0.3857    1.0000 </r>
       <r>    0.4151    1.0000 </r>
       <r>    2.1690    1.0000 </r>
       <r>   12.9929    0.0000 </r>
       <r>   14.8051    0.0000 </r>
       <r>   15.7487    0.0000 </r>
       <r>   20.2692    0.0000 </r>
       <r>   22.3812    0.0000 </r>
       <r>   24.5710    0.0000 </r>
       <r>   29.3330    0.0000 </r>
       <r>   31.1354    0.0000 </r>
       <r>   31.8838    0.0000 </r>
       <r>   35.3012    0.0000 </r>
       <r>   37.1967    0.0000 </r>
       <r>   41.0659    0.0000 </r>
       <r>   41.7549    0.0000 </r>
       <r>   44.7457    0.0000 </r>
      </set>
      <set comment="kpoint 28">
       <r>  -12.8085    1.0000 </r>
       <r>   -0.7577    1.0000 </r>
       <r>    1.7973    1.0000 </r>
       <r>    1.7973    1.0000 </r>
       <r>   12.4185    0.0000 </r>
       <r>   12.5698    0.0000 </r>
       <r>   15.9780    0.0000 </r>
       <r>   21.3373    0.0000 </r>
       <r>   21.3373    0.0000 </r>
       <r>   28.5291    0.0000 </r>
       <r>   28.5557    0.0000 </r>
       <r>   33.0536    0.0000 </r>
       <r>   33.0536    0.0000 </r>
       <r>   37.8125    0.0000 </r>
       <r>   37.8125    0.0000 </r>
       <r>   38.5232    0.0000 </r>
       <r>   39.3623    0.0000 </r>
       <r>   40.2584    0.0000 </r>
      </set>
      <set comment="kpoint 29">
       <r>  -12.6888    1.0000 </r>
       <r>   -0.8426    1.0000 </r>
       <r>    1.4380    1.0000 </r>
       <r>    1.7506    1.0000 </r>
       <r>   12.4071    0.0000 </r>
       <r>   13.0205    0.0000 </r>
       <r>   15.7597    0.0000 </r>
       <r>   21.3181    0.0000 </r>
       <r>   21.3616    0.0000 </r>
       <r>   28.4173    0.0000 </r>
       <r>   29.3471    0.0000 </r>
       <r>   31.9849    0.0000 </r>
       <r>   32.7740    0.0000 </r>
       <r>   38.0926    0.0000 </r>
       <r>   38.2359    0.0000 </r>
       <r>   40.1270    0.0000 </r>
       <r>   41.8007    0.0000 </r>
       <r>   43.0625    0.0000 </r>
      </set>
      <set comment="kpoint 30">
       <r>  -12.6426    1.0000 </r>
       <r>   -0.6040    1.0000 </r>
       <r>    0.7239    1.0000 </r>
       <r>    1.8235    1.0000 </r>
       <r>   12.7677    0.0000 </r>
       <r>   13.9841    0.0000 </r>
       <r>   15.4838    0.0000 </r>
       <r>   20.9491    0.0000 </r>
       <r>   21.0192    0.0000 </r>
       <r>   29.0702    0.0000 </r>
       <r>   29.2461    0.0000 </r>
       <r>   30.4017    0.0000 </r>
       <r>   31.7459    0.0000 </r>
       <r>   38.3751    0.0000 </r>
       <r>   39.6904    0.0000 </r>
       <r>   40.0346    0.0000 </r>
       <r>   43.1286    0.0000 </r>
       <r>   44.0571    0.0000 </r>
      </set>
      <set comment="kpoint 31">
       <r>  -12.6620    1.0000 </r>
       <r>   -0.9790    1.0000 </r>
       <r>    1.6904    1.0000 </r>
       <r>    1.6904    1.0000 </r>
       <r>   12.0943    0.0000 </r>
       <r>   12.7083    0.0000 </r>
       <r>   15.8442    0.0000 </r>
       <r>   21.6045    0.0000 </r>
       <r>   21.6045    0.0000 </r>
       <r>   27.8386    0.0000 </r>
       <r>   29.5253    0.0000 </r>
       <r>   33.3800    0.0000 </r>
       <r>   33.3800    0.0000 </r>
       <r>   36.8909    0.0000 </r>
       <r>   39.6713    0.0000 </r>
       <r>   39.6713    0.0000 </r>
       <r>   41.1899    0.0000 </r>
       <r>   43.5595    0.0000 </r>
      </set>
      <set comment="kpoint 32">
       <r>  -13.5387    1.0000 </r>
       <r>    0.6195    1.0000 </r>
       <r>    2.2604    1.0000 </r>
       <r>    2.6072    1.0000 </r>
       <r>   10.3100    0.0000 </r>
       <r>   14.9690    0.0000 </r>
       <r>   18.7180    0.0000 </r>
       <r>   20.1663    0.0000 </r>
       <r>   20.4864    0.0000 </r>
       <r>   24.6100    0.0000 </r>
       <r>   27.4110    0.0000 </r>
       <r>   29.1092    0.0000 </r>
       <r>   31.0337    0.0000 </r>
       <r>   31.2775    0.0000 </r>
       <r>   36.2366    0.0000 </r>
       <r>   39.2009    0.0000 </r>
       <r>   40.6228    0.0000 </r>
       <r>   44.6620    0.0000 </r>
      </set>
      <set comment="kpoint 33">
       <r>  -13.2130    1.0000 </r>
       <r>   -0.2031    1.0000 </r>
       <r>    1.8423    1.0000 </r>
       <r>    2.4215    1.0000 </r>
       <r>   11.3411    0.0000 </r>
       <r>   14.5538    0.0000 </r>
       <r>   17.7550    0.0000 </r>
       <r>   20.0399    0.0000 </r>
       <r>   21.4955    0.0000 </r>
       <r>   24.9110    0.0000 </r>
       <r>   27.4679    0.0000 </r>
       <r>   31.0209    0.0000 </r>
       <r>   31.7176    0.0000 </r>
       <r>   33.8287    0.0000 </r>
       <r>   35.3219    0.0000 </r>
       <r>   38.4607    0.0000 </r>
       <r>   41.6849    0.0000 </r>
       <r>   43.2097    0.0000 </r>
      </set>
      <set comment="kpoint 34">
       <r>  -12.9275    1.0000 </r>
       <r>   -0.8574    1.0000 </r>
       <r>    1.5684    1.0000 </r>
       <r>    2.2454    1.0000 </r>
       <r>   11.8714    0.0000 </r>
       <r>   14.8152    0.0000 </r>
       <r>   17.0710    0.0000 </r>
       <r>   19.7090    0.0000 </r>
       <r>   22.8291    0.0000 </r>
       <r>   24.9937    0.0000 </r>
       <r>   27.3347    0.0000 </r>
       <r>   31.8059    0.0000 </r>
       <r>   32.4183    0.0000 </r>
       <r>   34.2607    0.0000 </r>
       <r>   34.7366    0.0000 </r>
       <r>   39.8543    0.0000 </r>
       <r>   41.8526    0.0000 </r>
       <r>   43.9342    0.0000 </r>
      </set>
      <set comment="kpoint 35">
       <r>  -12.8123    1.0000 </r>
       <r>   -1.1080    1.0000 </r>
       <r>    1.4755    1.0000 </r>
       <r>    2.1748    1.0000 </r>
       <r>   11.9738    0.0000 </r>
       <r>   15.0872    0.0000 </r>
       <r>   16.8417    0.0000 </r>
       <r>   19.5726    0.0000 </r>
       <r>   23.5133    0.0000 </r>
       <r>   24.7906    0.0000 </r>
       <r>   27.4198    0.0000 </r>
       <r>   31.9313    0.0000 </r>
       <r>   32.3704    0.0000 </r>
       <r>   33.3319    0.0000 </r>
       <r>   37.0275    0.0000 </r>
       <r>   37.2326    0.0000 </r>
       <r>   45.6798    0.0000 </r>
       <r>   46.5983    0.0000 </r>
      </set>
      <set comment="kpoint 36">
       <r>  -13.1183    1.0000 </r>
       <r>   -0.2125    1.0000 </r>
       <r>    1.7956    1.0000 </r>
       <r>    2.1398    1.0000 </r>
       <r>   11.8845    0.0000 </r>
       <r>   13.7308    0.0000 </r>
       <r>   17.0346    0.0000 </r>
       <r>   20.3197    0.0000 </r>
       <r>   21.0811    0.0000 </r>
       <r>   26.3168    0.0000 </r>
       <r>   30.1355    0.0000 </r>
       <r>   30.3255    0.0000 </r>
       <r>   31.1431    0.0000 </r>
       <r>   34.9902    0.0000 </r>
       <r>   35.6183    0.0000 </r>
       <r>   38.4239    0.0000 </r>
       <r>   39.9638    0.0000 </r>
       <r>   43.9326    0.0000 </r>
      </set>
      <set comment="kpoint 37">
       <r>  -12.8677    1.0000 </r>
       <r>   -0.5564    1.0000 </r>
       <r>    1.2778    1.0000 </r>
       <r>    1.9599    1.0000 </r>
       <r>   12.6851    0.0000 </r>
       <r>   13.9646    0.0000 </r>
       <r>   16.1877    0.0000 </r>
       <r>   19.9929    0.0000 </r>
       <r>   21.9409    0.0000 </r>
       <r>   26.3053    0.0000 </r>
       <r>   30.2011    0.0000 </r>
       <r>   30.5406    0.0000 </r>
       <r>   31.9717    0.0000 </r>
       <r>   35.3210    0.0000 </r>
       <r>   35.6870    0.0000 </r>
       <r>   41.0166    0.0000 </r>
       <r>   41.5530    0.0000 </r>
       <r>   43.3731    0.0000 </r>
      </set>
      <set comment="kpoint 38">
       <r>  -12.7254    1.0000 </r>
       <r>   -0.6568    1.0000 </r>
       <r>    0.8219    1.0000 </r>
       <r>    1.9105    1.0000 </r>
       <r>   12.9693    0.0000 </r>
       <r>   14.7197    0.0000 </r>
       <r>   15.7239    0.0000 </r>
       <r>   19.6316    0.0000 </r>
       <r>   22.5703    0.0000 </r>
       <r>   25.6449    0.0000 </r>
       <r>   30.1229    0.0000 </r>
       <r>   30.6572    0.0000 </r>
       <r>   31.8621    0.0000 </r>
       <r>   34.9057    0.0000 </r>
       <r>   37.8548    0.0000 </r>
       <r>   39.7245    0.0000 </r>
       <r>   44.2005    0.0000 </r>
       <r>   44.6564    0.0000 </r>
      </set>
      <set comment="kpoint 39">
       <r>  -12.7584    1.0000 </r>
       <r>   -0.5603    1.0000 </r>
       <r>    0.7019    1.0000 </r>
       <r>    2.0186    1.0000 </r>
       <r>   13.0269    0.0000 </r>
       <r>   14.7302    0.0000 </r>
       <r>   15.8150    0.0000 </r>
       <r>   19.6602    0.0000 </r>
       <r>   23.2840    0.0000 </r>
       <r>   24.3042    0.0000 </r>
       <r>   29.7293    0.0000 </r>
       <r>   31.1009    0.0000 </r>
       <r>   31.8462    0.0000 </r>
       <r>   35.3340    0.0000 </r>
       <r>   36.7048    0.0000 </r>
       <r>   40.9156    0.0000 </r>
       <r>   42.2261    0.0000 </r>
       <r>   44.8646    0.0000 </r>
      </set>
      <set comment="kpoint 40">
       <r>  -12.9500    1.0000 </r>
       <r>   -0.4243    1.0000 </r>
       <r>    1.1164    1.0000 </r>
       <r>    2.2252    1.0000 </r>
       <r>   12.4746    0.0000 </r>
       <r>   14.3783    0.0000 </r>
       <r>   16.5718    0.0000 </r>
       <r>   19.9676    0.0000 </r>
       <r>   22.4921    0.0000 </r>
       <r>   24.4855    0.0000 </r>
       <r>   29.1733    0.0000 </r>
       <r>   31.1306    0.0000 </r>
       <r>   31.7430    0.0000 </r>
       <r>   34.3614    0.0000 </r>
       <r>   36.4060    0.0000 </r>
       <r>   40.6979    0.0000 </r>
       <r>   40.9195    0.0000 </r>
       <r>   43.8167    0.0000 </r>
      </set>
      <set comment="kpoint 41">
       <r>  -12.7757    1.0000 </r>
       <r>   -0.6651    1.0000 </r>
       <r>    1.4555    1.0000 </r>
       <r>    1.7185    1.0000 </r>
       <r>   12.9300    0.0000 </r>
       <r>   13.0338    0.0000 </r>
       <r>   15.8126    0.0000 </r>
       <r>   20.4790    0.0000 </r>
       <r>   21.7648    0.0000 </r>
       <r>   27.9337    0.0000 </r>
       <r>   29.3881    0.0000 </r>
       <r>   31.4095    0.0000 </r>
       <r>   32.9254    0.0000 </r>
       <r>   36.6375    0.0000 </r>
       <r>   36.8213    0.0000 </r>
       <r>   40.1268    0.0000 </r>
       <r>   41.4948    0.0000 </r>
       <r>   43.3017    0.0000 </r>
      </set>
      <set comment="kpoint 42">
       <r>  -12.6606    1.0000 </r>
       <r>   -0.5400    1.0000 </r>
       <r>    0.8111    1.0000 </r>
       <r>    1.6464    1.0000 </r>
       <r>   13.1550    0.0000 </r>
       <r>   14.0614    0.0000 </r>
       <r>   15.3964    0.0000 </r>
       <r>   19.7224    0.0000 </r>
       <r>   22.2574    0.0000 </r>
       <r>   27.5110    0.0000 </r>
       <r>   29.3981    0.0000 </r>
       <r>   30.8238    0.0000 </r>
       <r>   32.8086    0.0000 </r>
       <r>   36.8917    0.0000 </r>
       <r>   38.7150    0.0000 </r>
       <r>   41.5185    0.0000 </r>
       <r>   41.7882    0.0000 </r>
       <r>   44.0730    0.0000 </r>
      </set>
      <set comment="kpoint 43">
       <r>  -12.6548    1.0000 </r>
       <r>   -0.0751    1.0000 </r>
       <r>    0.0545    1.0000 </r>
       <r>    1.7800    1.0000 </r>
       <r>   13.4845    0.0000 </r>
       <r>   14.9618    0.0000 </r>
       <r>   14.9712    0.0000 </r>
       <r>   19.3752    0.0000 </r>
       <r>   22.6110    0.0000 </r>
       <r>   25.8590    0.0000 </r>
       <r>   29.9036    0.0000 </r>
       <r>   31.3965    0.0000 </r>
       <r>   31.6514    0.0000 </r>
       <r>   37.2351    0.0000 </r>
       <r>   38.0006    0.0000 </r>
       <r>   41.0080    0.0000 </r>
       <r>   42.5900    0.0000 </r>
       <r>   44.3939    0.0000 </r>
      </set>
      <set comment="kpoint 44">
       <r>  -12.6448    1.0000 </r>
       <r>   -0.7895    1.0000 </r>
       <r>    1.3328    1.0000 </r>
       <r>    1.5434    1.0000 </r>
       <r>   12.6562    0.0000 </r>
       <r>   13.2874    0.0000 </r>
       <r>   15.6418    0.0000 </r>
       <r>   20.4725    0.0000 </r>
       <r>   22.0239    0.0000 </r>
       <r>   28.4219    0.0000 </r>
       <r>   30.0137    0.0000 </r>
       <r>   30.0875    0.0000 </r>
       <r>   33.6102    0.0000 </r>
       <r>   38.5763    0.0000 </r>
       <r>   38.6836    0.0000 </r>
       <r>   40.6626    0.0000 </r>
       <r>   42.2311    0.0000 </r>
       <r>   42.9359    0.0000 </r>
      </set>
      <set comment="kpoint 45">
       <r>  -12.7059    1.0000 </r>
       <r>   -0.4008    1.0000 </r>
       <r>    0.6931    1.0000 </r>
       <r>    1.6619    1.0000 </r>
       <r>   13.8326    0.0000 </r>
       <r>   14.0197    0.0000 </r>
       <r>   15.4127    0.0000 </r>
       <r>   19.1906    0.0000 </r>
       <r>   23.2062    0.0000 </r>
       <r>   25.3157    0.0000 </r>
       <r>   30.0291    0.0000 </r>
       <r>   31.3551    0.0000 </r>
       <r>   32.3456    0.0000 </r>
       <r>   36.3659    0.0000 </r>
       <r>   36.9322    0.0000 </r>
       <r>   41.2074    0.0000 </r>
       <r>   42.9571    0.0000 </r>
       <r>   44.2583    0.0000 </r>
      </set>
      <set comment="kpoint 46">
       <r>  -12.6430    1.0000 </r>
       <r>   -0.1603    1.0000 </r>
       <r>    0.3045    1.0000 </r>
       <r>    1.5199    1.0000 </r>
       <r>   14.0257    0.0000 </r>
       <r>   14.5913    0.0000 </r>
       <r>   15.0797    0.0000 </r>
       <r>   18.6448    0.0000 </r>
       <r>   24.0665    0.0000 </r>
       <r>   24.6420    0.0000 </r>
       <r>   29.5272    0.0000 </r>
       <r>   31.5047    0.0000 </r>
       <r>   33.0184    0.0000 </r>
       <r>   36.2022    0.0000 </r>
       <r>   39.1843    0.0000 </r>
       <r>   40.5224    0.0000 </r>
       <r>   43.0418    0.0000 </r>
       <r>   43.1259    0.0000 </r>
      </set>
      <set comment="kpoint 47">
       <r>  -12.6176    1.0000 </r>
       <r>   -0.2483    1.0000 </r>
       <r>    0.5418    1.0000 </r>
       <r>    1.3171    1.0000 </r>
       <r>   13.8810    0.0000 </r>
       <r>   14.5545    0.0000 </r>
       <r>   14.9923    0.0000 </r>
       <r>   18.5942    0.0000 </r>
       <r>   23.4406    0.0000 </r>
       <r>   26.1340    0.0000 </r>
       <r>   28.8669    0.0000 </r>
       <r>   31.2724    0.0000 </r>
       <r>   34.1210    0.0000 </r>
       <r>   37.3180    0.0000 </r>
       <r>   39.4672    0.0000 </r>
       <r>   40.6409    0.0000 </r>
       <r>   42.0803    0.0000 </r>
       <r>   42.3858    0.0000 </r>
      </set>
     </set>
    </set>
   </array>
  </eigenvalues>
  <separator name="orbital magnetization" >
   <v name="MAGDIPOLOUT">      0.00000000      0.00000000      0.00000000</v>
  </separator>
  <dos>
   <i name="efermi">      3.58370234 </i>
   <total>
    <array>
     <dimension dim="1">gridpoints</dimension>
     <dimension dim="2">spin</dimension>
     <field>energy</field>
     <field>total</field>
     <field>integrated</field>
     <set>
      <set comment="spin 1">
       <r>   -17.2152     0.0000     0.0000 </r>
       <r>   -16.9893     0.0000     0.0000 </r>
       <r>   -16.7634     0.0000     0.0000 </r>
       <r>   -16.5375     0.0000     0.0000 </r>
       <r>   -16.3116     0.0000     0.0000 </r>
       <r>   -16.0856     0.0000     0.0000 </r>
       <r>   -15.8597     0.0000     0.0000 </r>
       <r>   -15.6338     0.0000     0.0000 </r>
       <r>   -15.4079     0.0000     0.0000 </r>
       <r>   -15.1819     0.0000     0.0000 </r>
       <r>   -14.9560     0.0000     0.0000 </r>
       <r>   -14.7301     0.0000     0.0000 </r>
       <r>   -14.5042     0.0000     0.0000 </r>
       <r>   -14.2783     0.0002     0.0000 </r>
       <r>   -14.0523     0.0484     0.0110 </r>
       <r>   -13.8264     0.2327     0.0636 </r>
       <r>   -13.6005     0.3867     0.1509 </r>
       <r>   -13.3746     0.6631     0.3007 </r>
       <r>   -13.1486     0.9697     0.5198 </r>
       <r>   -12.9227     1.7108     0.9063 </r>
       <r>   -12.6968     3.2681     1.6447 </r>
       <r>   -12.4709     1.5644     1.9981 </r>
       <r>   -12.2450     0.0084     2.0000 </r>
       <r>   -12.0190     0.0000     2.0000 </r>
       <r>   -11.7931     0.0000     2.0000 </r>
       <r>   -11.5672     0.0000     2.0000 </r>
       <r>   -11.3413     0.0000     2.0000 </r>
       <r>   -11.1153     0.0000     2.0000 </r>
       <r>   -10.8894     0.0000     2.0000 </r>
       <r>   -10.6635     0.0000     2.0000 </r>
       <r>   -10.4376     0.0000     2.0000 </r>
       <r>   -10.2117     0.0000     2.0000 </r>
       <r>    -9.9857     0.0000     2.0000 </r>
       <r>    -9.7598     0.0000     2.0000 </r>
       <r>    -9.5339     0.0000     2.0000 </r>
       <r>    -9.3080     0.0000     2.0000 </r>
       <r>    -9.0820     0.0000     2.0000 </r>
       <r>    -8.8561     0.0000     2.0000 </r>
       <r>    -8.6302     0.0000     2.0000 </r>
       <r>    -8.4043     0.0000     2.0000 </r>
       <r>    -8.1784     0.0000     2.0000 </r>
       <r>    -7.9524     0.0000     2.0000 </r>
       <r>    -7.7265     0.0000     2.0000 </r>
       <r>    -7.5006     0.0000     2.0000 </r>
       <r>    -7.2747     0.0000     2.0000 </r>
       <r>    -7.0488     0.0000     2.0000 </r>
       <r>    -6.8228     0.0000     2.0000 </r>
       <r>    -6.5969     0.0000     2.0000 </r>
       <r>    -6.3710     0.0000     2.0000 </r>
       <r>    -6.1451     0.0000     2.0000 </r>
       <r>    -5.9191     0.0000     2.0000 </r>
       <r>    -5.6932     0.0000     2.0000 </r>
       <r>    -5.4673     0.0000     2.0000 </r>
       <r>    -5.2414     0.0000     2.0000 </r>
       <r>    -5.0155     0.0000     2.0000 </r>
       <r>    -4.7895     0.0000     2.0000 </r>
       <r>    -4.5636     0.0000     2.0000 </r>
       <r>    -4.3377     0.0000     2.0000 </r>
       <r>    -4.1118     0.0000     2.0000 </r>
       <r>    -3.8858     0.0000     2.0000 </r>
       <r>    -3.6599     0.0000     2.0000 </r>
       <r>    -3.4340     0.0000     2.0000 </r>
       <r>    -3.2081     0.0000     2.0000 </r>
       <r>    -2.9822     0.0000     2.0000 </r>
       <r>    -2.7562     0.0000     2.0000 </r>
       <r>    -2.5303     0.0000     2.0000 </r>
       <r>    -2.3044     0.0000     2.0000 </r>
       <r>    -2.0785     0.0000     2.0000 </r>
       <r>    -1.8525     0.0000     2.0000 </r>
       <r>    -1.6266     0.0015     2.0003 </r>
       <r>    -1.4007     0.0696     2.0161 </r>
       <r>    -1.1748     0.4012     2.1067 </r>
       <r>    -0.9489     0.5204     2.2243 </r>
       <r>    -0.7229     1.3093     2.5201 </r>
       <r>    -0.4970     2.4606     3.0760 </r>
       <r>    -0.2711     1.4344     3.4001 </r>
       <r>    -0.0452     1.0811     3.6443 </r>
       <r>     0.1808     0.5215     3.7621 </r>
       <r>     0.4067     0.6167     3.9014 </r>
       <r>     0.6326     0.7156     4.0631 </r>
       <r>     0.8585     1.3437     4.3667 </r>
       <r>     1.0844     0.5438     4.4895 </r>
       <r>     1.3104     1.1234     4.7433 </r>
       <r>     1.5363     1.5160     5.0858 </r>
       <r>     1.7622     2.0539     5.5498 </r>
       <r>     1.9881     2.5906     6.1351 </r>
       <r>     2.2141     2.7107     6.7475 </r>
       <r>     2.4400     2.8410     7.3894 </r>
       <r>     2.6659     1.5896     7.7485 </r>
       <r>     2.8918     0.8836     7.9481 </r>
       <r>     3.1177     0.2272     7.9995 </r>
       <r>     3.3437     0.0024     8.0000 </r>
       <r>     3.5696     0.0000     8.0000 </r>
       <r>     3.7955     0.0000     8.0000 </r>
       <r>     4.0214     0.0000     8.0000 </r>
       <r>     4.2473     0.0000     8.0000 </r>
       <r>     4.4733     0.0000     8.0000 </r>
       <r>     4.6992     0.0000     8.0000 </r>
       <r>     4.9251     0.0000     8.0000 </r>
       <r>     5.1510     0.0000     8.0000 </r>
       <r>     5.3770     0.0000     8.0000 </r>
       <r>     5.6029     0.0000     8.0000 </r>
       <r>     5.8288     0.0000     8.0000 </r>
       <r>     6.0547     0.0000     8.0000 </r>
       <r>     6.2806     0.0000     8.0000 </r>
       <r>     6.5066     0.0000     8.0000 </r>
       <r>     6.7325     0.0000     8.0000 </r>
       <r>     6.9584     0.0000     8.0000 </r>
       <r>     7.1843     0.0000     8.0000 </r>
       <r>     7.4103     0.0010     8.0002 </r>
       <r>     7.6362     0.0076     8.0020 </r>
       <r>     7.8621     0.0002     8.0020 </r>
       <r>     8.0880     0.0206     8.0067 </r>
       <r>     8.3139     0.0719     8.0229 </r>
       <r>     8.5399     0.0313     8.0300 </r>
       <r>     8.7658     0.0014     8.0303 </r>
       <r>     8.9917     0.0865     8.0498 </r>
       <r>     9.2176     0.0352     8.0578 </r>
       <r>     9.4436     0.2520     8.1147 </r>
       <r>     9.6695     0.0146     8.1180 </r>
       <r>     9.8954     0.0083     8.1199 </r>
       <r>    10.1213     0.2030     8.1658 </r>
       <r>    10.3472     0.2984     8.2332 </r>
       <r>    10.5732     0.2539     8.2905 </r>
       <r>    10.7991     0.1100     8.3154 </r>
       <r>    11.0250     0.4816     8.4242 </r>
       <r>    11.2509     0.6077     8.5615 </r>
       <r>    11.4769     0.4885     8.6718 </r>
       <r>    11.7028     0.0860     8.6913 </r>
       <r>    11.9287     0.7379     8.8580 </r>
       <r>    12.1546     0.6453     9.0038 </r>
       <r>    12.3805     0.5758     9.1339 </r>
       <r>    12.6065     0.5710     9.2629 </r>
       <r>    12.8324     0.7931     9.4421 </r>
       <r>    13.0583     1.5048     9.7820 </r>
       <r>    13.2842     0.9783    10.0030 </r>
       <r>    13.5101     0.2536    10.0603 </r>
       <r>    13.7361     0.2140    10.1087 </r>
       <r>    13.9620     0.9134    10.3150 </r>
       <r>    14.1879     1.2384    10.5948 </r>
       <r>    14.4138     0.4222    10.6902 </r>
       <r>    14.6398     0.8092    10.8730 </r>
       <r>    14.8657     1.9795    11.3202 </r>
       <r>    15.0916     1.9476    11.7602 </r>
       <r>    15.3175     1.0429    11.9958 </r>
       <r>    15.5434     0.9565    12.2119 </r>
       <r>    15.7694     0.9497    12.4265 </r>
       <r>    15.9953     1.1072    12.6766 </r>
       <r>    16.2212     0.3342    12.7521 </r>
       <r>    16.4471     0.5352    12.8730 </r>
       <r>    16.6731     0.5199    12.9905 </r>
       <r>    16.8990     0.2933    13.0567 </r>
       <r>    17.1249     0.8574    13.2504 </r>
       <r>    17.3508     0.2656    13.3104 </r>
       <r>    17.5767     0.0615    13.3243 </r>
       <r>    17.8027     0.3506    13.4035 </r>
       <r>    18.0286     0.3736    13.4880 </r>
       <r>    18.2545     0.4783    13.5960 </r>
       <r>    18.4804     0.3433    13.6736 </r>
       <r>    18.7064     0.4324    13.7713 </r>
       <r>    18.9323     0.6016    13.9072 </r>
       <r>    19.1582     0.5439    14.0300 </r>
       <r>    19.3841     1.2395    14.3101 </r>
       <r>    19.6100     1.3447    14.6139 </r>
       <r>    19.8360     1.8628    15.0347 </r>
       <r>    20.0619     1.6112    15.3987 </r>
       <r>    20.2878     1.0052    15.6259 </r>
       <r>    20.5137     0.8319    15.8138 </r>
       <r>    20.7397     0.6459    15.9597 </r>
       <r>    20.9656     0.4118    16.0528 </r>
       <r>    21.1915     0.7818    16.2294 </r>
       <r>    21.4174     1.1177    16.4819 </r>
       <r>    21.6433     0.9672    16.7004 </r>
       <r>    21.8693     0.3253    16.7739 </r>
       <r>    22.0952     0.5932    16.9079 </r>
       <r>    22.3211     0.6167    17.0473 </r>
       <r>    22.5470     0.5471    17.1709 </r>
       <r>    22.7729     0.9071    17.3758 </r>
       <r>    22.9989     0.8107    17.5590 </r>
       <r>    23.2248     0.4429    17.6591 </r>
       <r>    23.4507     0.6549    17.8070 </r>
       <r>    23.6766     0.6013    17.9428 </r>
       <r>    23.9026     0.4772    18.0507 </r>
       <r>    24.1285     0.4027    18.1416 </r>
       <r>    24.3544     0.9518    18.3567 </r>
       <r>    24.5803     1.2214    18.6326 </r>
       <r>    24.8062     0.6226    18.7733 </r>
       <r>    25.0322     0.8920    18.9748 </r>
       <r>    25.2581     1.0279    19.2070 </r>
       <r>    25.4840     0.7075    19.3669 </r>
       <r>    25.7099     0.7120    19.5277 </r>
       <r>    25.9359     0.7431    19.6956 </r>
       <r>    26.1618     0.3425    19.7730 </r>
       <r>    26.3877     0.8562    19.9664 </r>
       <r>    26.6136     0.3096    20.0364 </r>
       <r>    26.8395     0.2673    20.0968 </r>
       <r>    27.0655     0.0763    20.1140 </r>
       <r>    27.2914     0.2054    20.1604 </r>
       <r>    27.5173     1.4089    20.4787 </r>
       <r>    27.7432     0.8944    20.6808 </r>
       <r>    27.9692     0.6065    20.8178 </r>
       <r>    28.1951     0.3691    20.9012 </r>
       <r>    28.4210     0.4883    21.0115 </r>
       <r>    28.6469     0.6541    21.1593 </r>
       <r>    28.8728     0.4550    21.2621 </r>
       <r>    29.0988     0.3464    21.3404 </r>
       <r>    29.3247     0.6562    21.4887 </r>
       <r>    29.5506     1.1239    21.7426 </r>
       <r>    29.7765     0.9267    21.9519 </r>
       <r>    30.0025     0.8755    22.1497 </r>
       <r>    30.2284     1.5013    22.4889 </r>
       <r>    30.4543     0.5700    22.6177 </r>
       <r>    30.6802     1.0849    22.8627 </r>
       <r>    30.9061     1.0091    23.0907 </r>
       <r>    31.1321     1.6372    23.4606 </r>
       <r>    31.3580     2.0296    23.9191 </r>
       <r>    31.5839     1.0786    24.1628 </r>
       <r>    31.8098     1.9842    24.6111 </r>
       <r>    32.0357     2.6655    25.2133 </r>
       <r>    32.2617     0.9092    25.4187 </r>
       <r>    32.4876     1.4969    25.7569 </r>
       <r>    32.7135     0.7669    25.9301 </r>
       <r>    32.9394     1.2457    26.2116 </r>
       <r>    33.1654     0.5321    26.3318 </r>
       <r>    33.3913     0.4976    26.4442 </r>
       <r>    33.6172     0.3536    26.5241 </r>
       <r>    33.8431     0.9855    26.7467 </r>
       <r>    34.0690     0.4287    26.8436 </r>
       <r>    34.2950     0.6862    26.9986 </r>
       <r>    34.5209     0.4616    27.1029 </r>
       <r>    34.7468     0.4135    27.1963 </r>
       <r>    34.9727     0.6543    27.3441 </r>
       <r>    35.1987     0.4791    27.4524 </r>
       <r>    35.4246     1.5239    27.7966 </r>
       <r>    35.6505     0.6680    27.9475 </r>
       <r>    35.8764     0.9928    28.1718 </r>
       <r>    36.1023     0.4252    28.2679 </r>
       <r>    36.3283     0.9808    28.4895 </r>
       <r>    36.5542     0.8393    28.6791 </r>
       <r>    36.7801     0.9674    28.8976 </r>
       <r>    37.0060     1.1325    29.1535 </r>
       <r>    37.2320     0.7090    29.3137 </r>
       <r>    37.4579     0.5042    29.4276 </r>
       <r>    37.6838     0.4527    29.5299 </r>
       <r>    37.9097     0.9386    29.7419 </r>
       <r>    38.1356     0.5612    29.8687 </r>
       <r>    38.3616     0.4838    29.9780 </r>
       <r>    38.5875     1.4222    30.2993 </r>
       <r>    38.8134     1.1805    30.5660 </r>
       <r>    39.0393     0.1082    30.5905 </r>
       <r>    39.2653     0.7121    30.7513 </r>
       <r>    39.4912     0.5205    30.8690 </r>
       <r>    39.7171     0.8108    31.0521 </r>
       <r>    39.9430     1.1699    31.3164 </r>
       <r>    40.1689     0.9761    31.5370 </r>
       <r>    40.3949     0.3411    31.6140 </r>
       <r>    40.6208     0.8222    31.7998 </r>
       <r>    40.8467     0.8147    31.9838 </r>
       <r>    41.0726     1.5477    32.3335 </r>
       <r>    41.2986     0.6505    32.4805 </r>
       <r>    41.5245     0.6615    32.6299 </r>
       <r>    41.7504     1.4136    32.9493 </r>
       <r>    41.9763     1.2847    33.2395 </r>
       <r>    42.2022     0.6177    33.3791 </r>
       <r>    42.4282     0.6700    33.5304 </r>
       <r>    42.6541     0.4197    33.6253 </r>
       <r>    42.8800     0.1725    33.6642 </r>
       <r>    43.1059     0.9895    33.8878 </r>
       <r>    43.3318     1.2392    34.1678 </r>
       <r>    43.5578     0.9374    34.3795 </r>
       <r>    43.7837     0.3244    34.4528 </r>
       <r>    44.0096     0.8591    34.6469 </r>
       <r>    44.2355     1.2885    34.9380 </r>
       <r>    44.4615     0.7958    35.1178 </r>
       <r>    44.6874     0.8721    35.3148 </r>
       <r>    44.9133     0.9725    35.5346 </r>
       <r>    45.1392     0.1302    35.5640 </r>
       <r>    45.3651     0.0027    35.5646 </r>
       <r>    45.5911     0.3923    35.6532 </r>
       <r>    45.8170     0.4483    35.7545 </r>
       <r>    46.0429     0.0134    35.7575 </r>
       <r>    46.2688     0.3291    35.8319 </r>
       <r>    46.4948     0.2271    35.8832 </r>
       <r>    46.7207     0.2237    35.9337 </r>
       <r>    46.9466     0.0101    35.9360 </r>
       <r>    47.1725     0.0000    35.9360 </r>
       <r>    47.3984     0.0362    35.9442 </r>
       <r>    47.6244     0.2414    35.9987 </r>
       <r>    47.8503     0.0056    36.0000 </r>
       <r>    48.0762     0.0000    36.0000 </r>
       <r>    48.3021     0.0000    36.0000 </r>
       <r>    48.5281     0.0000    36.0000 </r>
       <r>    48.7540     0.0000    36.0000 </r>
       <r>    48.9799     0.0000    36.0000 </r>
       <r>    49.2058     0.0000    36.0000 </r>
       <r>    49.4317     0.0000    36.0000 </r>
       <r>    49.6577     0.0000    36.0000 </r>
       <r>    49.8836     0.0000    36.0000 </r>
       <r>    50.1095     0.0000    36.0000 </r>
       <r>    50.3354     0.0000    36.0000 </r>
       <r>    50.5614     0.0000    36.0000 </r>
      </set>
     </set>
    </array>
   </total>
   <partial>
    <array>
     <dimension dim="1">gridpoints</dimension>
     <dimension dim="2">spin</dimension>
     <dimension dim="3">ion</dimension>
     <field>energy</field>
     <field>    s</field>
     <field>   py</field>
     <field>   pz</field>
     <field>   px</field>
     <field>  dxy</field>
     <field>  dyz</field>
     <field>  dz2</field>
     <field>  dxz</field>
     <field>x2-y2</field>
     <set>
      <set comment="ion 1">
       <set comment="spin 1">
        <r>   -17.2152     0.0000     0.0000     0.0000     0.0000     0.0000     0.0000     0.0000     0.0000     0.0000 </r>
        <r>   -16.9893     0.0000     0.0000     0.0000     0.0000     0.0000     0.0000     0.0000     0.0000     0.0000 </r>
        <r>   -16.7634     0.0000     0.0000     0.0000     0.0000     0.0000     0.0000     0.0000     0.0000     0.0000 </r>
        <r>   -16.5375     0.0000     0.0000     0.0000     0.0000     0.0000     0.0000     0.0000     0.0000     0.0000 </r>
        <r>   -16.3116     0.0000     0.0000     0.0000     0.0000     0.0000     0.0000     0.0000     0.0000     0.0000 </r>
        <r>   -16.0856     0.0000     0.0000     0.0000     0.0000     0.0000     0.0000     0.0000     0.0000     0.0000 </r>
        <r>   -15.8597     0.0000     0.0000     0.0000     0.0000     0.0000     0.0000     0.0000     0.0000     0.0000 </r>
        <r>   -15.6338     0.0000     0.0000     0.0000     0.0000     0.0000     0.0000     0.0000     0.0000     0.0000 </r>
        <r>   -15.4079     0.0000     0.0000     0.0000     0.0000     0.0000     0.0000     0.0000     0.0000     0.0000 </r>
        <r>   -15.1819     0.0000     0.0000     0.0000     0.0000     0.0000     0.0000     0.0000     0.0000     0.0000 </r>
        <r>   -14.9560     0.0000     0.0000     0.0000     0.0000     0.0000     0.0000     0.0000     0.0000     0.0000 </r>
        <r>   -14.7301     0.0000     0.0000     0.0000     0.0000     0.0000     0.0000     0.0000     0.0000     0.0000 </r>
        <r>   -14.5042     0.0000     0.0000     0.0000     0.0000     0.0000     0.0000     0.0000     0.0000     0.0000 </r>
        <r>   -14.2783     0.0000     0.0000     0.0000     0.0000     0.0000     0.0000     0.0000     0.0000     0.0000 </r>
        <r>   -14.0523     0.0019     0.0000     0.0000     0.0000     0.0000     0.0000     0.0000     0.0000     0.0000 </r>
        <r>   -13.8264     0.0080     0.0002     0.0003     0.0002     0.0000     0.0000     0.0000     0.0000     0.0000 </r>
        <r>   -13.6005     0.0110     0.0006     0.0012     0.0005     0.0000     0.0000     0.0001     0.0000     0.0000 </r>
        <r>   -13.3746     0.0142     0.0015     0.0029     0.0011     0.0000     0.0000     0.0004     0.0000     0.0000 </r>
        <r>   -13.1486     0.0134     0.0033     0.0047     0.0021     0.0000     0.0000     0.0011     0.0000     0.0001 </r>
        <r>   -12.9227     0.0118     0.0070     0.0077     0.0055     0.0000     0.0000     0.0031     0.0000     0.0002 </r>
        <r>   -12.6968     0.0081     0.0145     0.0089     0.0091     0.0000     0.0000     0.0116     0.0000     0.0008 </r>
        <r>   -12.4709     0.0023     0.0065     0.0014     0.0023     0.0000     0.0000     0.0083     0.0000     0.0006 </r>
        <r>   -12.2450     0.0000     0.0000     0.0000     0.0000     0.0000     0.0000     0.0000     0.0000     0.0000 </r>
        <r>   -12.0190     0.0000     0.0000     0.0000     0.0000     0.0000     0.0000     0.0000     0.0000     0.0000 </r>
        <r>   -11.7931     0.0000     0.0000     0.0000     0.0000     0.0000     0.0000     0.0000     0.0000     0.0000 </r>
        <r>   -11.5672     0.0000     0.0000     0.0000     0.0000     0.0000     0.0000     0.0000     0.0000     0.0000 </r>
        <r>   -11.3413     0.0000     0.0000     0.0000     0.0000     0.0000     0.0000     0.0000     0.0000     0.0000 </r>
        <r>   -11.1153     0.0000     0.0000     0.0000     0.0000     0.0000     0.0000     0.0000     0.0000     0.0000 </r>
        <r>   -10.8894     0.0000     0.0000     0.0000     0.0000     0.0000     0.0000     0.0000     0.0000     0.0000 </r>
        <r>   -10.6635     0.0000     0.0000     0.0000     0.0000     0.0000     0.0000     0.0000     0.0000     0.0000 </r>
        <r>   -10.4376     0.0000     0.0000     0.0000     0.0000     0.0000     0.0000     0.0000     0.0000     0.0000 </r>
        <r>   -10.2117     0.0000     0.0000     0.0000     0.0000     0.0000     0.0000     0.0000     0.0000     0.0000 </r>
        <r>    -9.9857     0.0000     0.0000     0.0000     0.0000     0.0000     0.0000     0.0000     0.0000     0.0000 </r>
        <r>    -9.7598     0.0000     0.0000     0.0000     0.0000     0.0000     0.0000     0.0000     0.0000     0.0000 </r>
        <r>    -9.5339     0.0000     0.0000     0.0000     0.0000     0.0000     0.0000     0.0000     0.0000     0.0000 </r>
        <r>    -9.3080     0.0000     0.0000     0.0000     0.0000     0.0000     0.0000     0.0000     0.0000     0.0000 </r>
[...]
       </set>
       <set comment="band 6">
        <r>  0.0000  0.0000  0.0865  0.0000  0.0000  0.0363  0.0000  0.0043  0.0000 </r>
        <r>  0.0000  0.0000  0.3366  0.0000  0.0000  0.0000  0.0000  0.0000  0.0000 </r>
       </set>
       <set comment="band 7">
        <r>  0.3951  0.0055  0.0000  0.0046  0.0021  0.0000  0.0012  0.0000  0.0019 </r>
        <r>  0.0035  0.1442  0.0000  0.0517  0.0000  0.0000  0.0000  0.0000  0.0000 </r>
       </set>
       <set comment="band 8">
        <r>  0.0081  0.2802  0.0000  0.0204  0.0275  0.0000  0.0146  0.0000  0.0000 </r>
        <r>  0.0546  0.0239  0.0000  0.0354  0.0000  0.0000  0.0000  0.0000  0.0000 </r>
       </set>
       <set comment="band 9">
        <r>  0.0075  0.0040  0.0000  0.1966  0.1284  0.0000  0.0314  0.0000  0.0016 </r>
        <r>  0.0295  0.0065  0.0000  0.0635  0.0000  0.0000  0.0000  0.0000  0.0000 </r>
       </set>
       <set comment="band 10">
        <r>  0.0000  0.0000  0.0828  0.0000  0.0000  0.2431  0.0000  0.0409  0.0000 </r>
        <r>  0.0000  0.0000  0.0352  0.0000  0.0000  0.0000  0.0000  0.0000  0.0000 </r>
       </set>
       <set comment="band 11">
        <r>  0.0009  0.0601  0.0000  0.0135  0.0179  0.0000  0.4369  0.0000  0.1145 </r>
        <r>  0.0499  0.0034  0.0000  0.0569  0.0000  0.0000  0.0000  0.0000  0.0000 </r>
       </set>
       <set comment="band 12">
        <r>  0.0049  0.0001  0.0000  0.0138  0.0009  0.0000  0.1052  0.0000  0.5366 </r>
        <r>  0.0009  0.1491  0.0000  0.0056  0.0000  0.0000  0.0000  0.0000  0.0000 </r>
       </set>
       <set comment="band 13">
        <r>  0.0000  0.0000  0.1491  0.0000  0.0000  0.0297  0.0000  0.5003  0.0000 </r>
        <r>  0.0000  0.0000  0.0166  0.0000  0.0000  0.0000  0.0000  0.0000  0.0000 </r>
       </set>
       <set comment="band 14">
        <r>  0.0000  0.0000  0.0043  0.0000  0.0000  0.0192  0.0000  0.2409  0.0000 </r>
        <r>  0.0000  0.0000  0.0278  0.0000  0.0000  0.0000  0.0000  0.0000  0.0000 </r>
       </set>
       <set comment="band 15">
        <r>  0.1126  0.0019  0.0000  0.0448  0.0747  0.0000  0.0509  0.0000  0.0131 </r>
        <r>  0.0019  0.0047  0.0000  0.0070  0.0000  0.0000  0.0000  0.0000  0.0000 </r>
       </set>
       <set comment="band 16">
        <r>  0.0000  0.0000  0.0175  0.0000  0.0000  0.4834  0.0000  0.2047  0.0000 </r>
        <r>  0.0000  0.0000  0.0137  0.0000  0.0000  0.0000  0.0000  0.0000  0.0000 </r>
       </set>
       <set comment="band 17">
        <r>  0.0006  0.0011  0.0000  0.0394  0.3632  0.0000  0.0141  0.0000  0.0206 </r>
        <r>  0.0347  0.0008  0.0000  0.0209  0.0000  0.0000  0.0000  0.0000  0.0000 </r>
       </set>
       <set comment="band 18">
        <r>  0.0000  0.0000  0.0717  0.0000  0.0000  0.1636  0.0000  0.1427  0.0000 </r>
        <r>  0.0000  0.0000  0.0068  0.0000  0.0000  0.0000  0.0000  0.0000  0.0000 </r>
       </set>
      </set>
      <set comment="kpoint 44">
       <set comment="band 1">
        <r>  0.0032  0.0020  0.0000  0.0000  0.0000  0.0000  0.0076  0.0000  0.0001 </r>
        <r>  0.7852  0.0000  0.0000  0.0000  0.0000  0.0000  0.0000  0.0000  0.0000 </r>
       </set>
       <set comment="band 2">
        <r>  0.0000  0.0000  0.0793  0.0000  0.0000  0.0012  0.0000  0.0000  0.0000 </r>
        <r>  0.0000  0.0000  0.4647  0.0000  0.0000  0.0000  0.0000  0.0000  0.0000 </r>
       </set>
       <set comment="band 3">
        <r>  0.0000  0.0000  0.0000  0.0498  0.0027  0.0000  0.0000  0.0000  0.0000 </r>
        <r>  0.0000  0.0000  0.0000  0.6085  0.0000  0.0000  0.0000  0.0000  0.0000 </r>
       </set>
       <set comment="band 4">
        <r>  0.0208  0.0286  0.0000  0.0000  0.0000  0.0000  0.0013  0.0000  0.0038 </r>
        <r>  0.0001  0.6293  0.0000  0.0000  0.0000  0.0000  0.0000  0.0000  0.0000 </r>
       </set>
       <set comment="band 5">
        <r>  0.0000  0.0000  0.0000  0.0095  0.1530  0.0000  0.0000  0.0000  0.0000 </r>
        <r>  0.0000  0.0000  0.0000  0.0667  0.0000  0.0000  0.0000  0.0000  0.0000 </r>
       </set>
       <set comment="band 6">
        <r>  0.4293  0.0144  0.0000  0.0000  0.0000  0.0000  0.0018  0.0000  0.0006 </r>
        <r>  0.0430  0.0378  0.0000  0.0000  0.0000  0.0000  0.0000  0.0000  0.0000 </r>
       </set>
       <set comment="band 7">
        <r>  0.0000  0.0000  0.1148  0.0000  0.0000  0.0086  0.0000  0.0000  0.0000 </r>
        <r>  0.0000  0.0000  0.4223  0.0000  0.0000  0.0000  0.0000  0.0000  0.0000 </r>
       </set>
       <set comment="band 8">
        <r>  0.0177  0.2978  0.0000  0.0000  0.0000  0.0000  0.0174  0.0000  0.0024 </r>
        <r>  0.0330  0.1622  0.0000  0.0000  0.0000  0.0000  0.0000  0.0000  0.0000 </r>
       </set>
       <set comment="band 9">
        <r>  0.0000  0.0000  0.0000  0.2916  0.0325  0.0000  0.0000  0.0000  0.0000 </r>
        <r>  0.0000  0.0000  0.0000  0.2127  0.0000  0.0000  0.0000  0.0000  0.0000 </r>
       </set>
       <set comment="band 10">
        <r>  0.0343  0.0340  0.0000  0.0000  0.0000  0.0000  0.4777  0.0000  0.0514 </r>
        <r>  0.1138  0.0181  0.0000  0.0000  0.0000  0.0000  0.0000  0.0000  0.0000 </r>
       </set>
       <set comment="band 11">
        <r>  0.0000  0.0000  0.0542  0.0000  0.0000  0.4181  0.0000  0.0000  0.0000 </r>
        <r>  0.0000  0.0000  0.0145  0.0000  0.0000  0.0000  0.0000  0.0000  0.0000 </r>
       </set>
       <set comment="band 12">
        <r>  0.0036  0.0000  0.0000  0.0000  0.0000  0.0000  0.0340  0.0000  0.6794 </r>
        <r>  0.0040  0.0573  0.0000  0.0000  0.0000  0.0000  0.0000  0.0000  0.0000 </r>
       </set>
       <set comment="band 13">
        <r>  0.0000  0.0000  0.0000  0.0000  0.0000  0.0000  0.0000  0.8364  0.0000 </r>
        <r>  0.0000  0.0000  0.0000  0.0000  0.0000  0.0000  0.0000  0.0000  0.0000 </r>
       </set>
       <set comment="band 14">
        <r>  0.0000  0.0000  0.0781  0.0000  0.0000  0.3234  0.0000  0.0000  0.0000 </r>
        <r>  0.0000  0.0000  0.0012  0.0000  0.0000  0.0000  0.0000  0.0000  0.0000 </r>
       </set>
       <set comment="band 15">
        <r>  0.0000  0.0000  0.0000  0.0000  0.0000  0.0000  0.0000  0.2927  0.0000 </r>
        <r>  0.0000  0.0000  0.0000  0.0000  0.0000  0.0000  0.0000  0.0000  0.0000 </r>
       </set>
       <set comment="band 16">
        <r>  0.0000  0.0000  0.0355  0.0000  0.0000  0.3253  0.0000  0.0000  0.0000 </r>
        <r>  0.0000  0.0000  0.0211  0.0000  0.0000  0.0000  0.0000  0.0000  0.0000 </r>
       </set>
       <set comment="band 17">
        <r>  0.0000  0.0000  0.0000  0.2111  0.0010  0.0000  0.0000  0.0000  0.0000 </r>
        <r>  0.0000  0.0000  0.0000  0.0066  0.0000  0.0000  0.0000  0.0000  0.0000 </r>
       </set>
       <set comment="band 18">
        <r>  0.0713  0.1589  0.0000  0.0000  0.0000  0.0000  0.0463  0.0000  0.0656 </r>
        <r>  0.0005  0.0199  0.0000  0.0000  0.0000  0.0000  0.0000  0.0000  0.0000 </r>
       </set>
      </set>
      <set comment="kpoint 45">
       <set comment="band 1">
        <r>  0.0014  0.0053  0.0025  0.0000  0.0000  0.0000  0.0044  0.0000  0.0007 </r>
        <r>  0.7788  0.0000  0.0002  0.0000  0.0000  0.0000  0.0000  0.0000  0.0000 </r>
       </set>
       <set comment="band 2">
        <r>  0.0357  0.0002  0.0427  0.0000  0.0000  0.0042  0.0017  0.0000  0.0012 </r>
        <r>  0.0053  0.0761  0.4045  0.0000  0.0000  0.0000  0.0000  0.0000  0.0000 </r>
       </set>
       <set comment="band 3">
        <r>  0.0000  0.0000  0.0000  0.0573  0.0050  0.0000  0.0000  0.0011  0.0000 </r>
        <r>  0.0000  0.0000  0.0000  0.5523  0.0000  0.0000  0.0000  0.0000  0.0000 </r>
       </set>
       <set comment="band 4">
        <r>  0.0239  0.0028  0.0107  0.0000  0.0000  0.0000  0.0070  0.0000  0.0086 </r>
        <r>  0.0000  0.5358  0.0999  0.0000  0.0000  0.0000  0.0000  0.0000  0.0000 </r>
       </set>
       <set comment="band 5">
        <r>  0.1147  0.0402  0.0316  0.0000  0.0000  0.0125  0.0036  0.0000  0.0020 </r>
        <r>  0.0462  0.0512  0.2285  0.0000  0.0000  0.0000  0.0000  0.0000  0.0000 </r>
       </set>
       <set comment="band 6">
        <r>  0.0000  0.0000  0.0000  0.0457  0.0936  0.0000  0.0000  0.0016  0.0000 </r>
        <r>  0.0000  0.0000  0.0000  0.2102  0.0000  0.0000  0.0000  0.0000  0.0000 </r>
       </set>
       <set comment="band 7">
        <r>  0.2838  0.0023  0.0795  0.0000  0.0000  0.0094  0.0007  0.0000  0.0035 </r>
        <r>  0.0004  0.0874  0.0379  0.0000  0.0000  0.0000  0.0000  0.0000  0.0000 </r>
       </set>
       <set comment="band 8">
        <r>  0.0064  0.2876  0.0170  0.0000  0.0000  0.0154  0.0104  0.0000  0.0000 </r>
        <r>  0.0476  0.0285  0.0708  0.0000  0.0000  0.0000  0.0000  0.0000  0.0000 </r>
       </set>
       <set comment="band 9">
        <r>  0.0000  0.0000  0.0000  0.1865  0.1313  0.0000  0.0000  0.0215  0.0000 </r>
        <r>  0.0000  0.0000  0.0000  0.1114  0.0000  0.0000  0.0000  0.0000  0.0000 </r>
       </set>
       <set comment="band 10">
        <r>  0.0023  0.0100  0.1032  0.0000  0.0000  0.2171  0.0289  0.0000  0.0579 </r>
        <r>  0.0272  0.0131  0.0121  0.0000  0.0000  0.0000  0.0000  0.0000  0.0000 </r>
       </set>
       <set comment="band 11">
        <r>  0.0142  0.0483  0.0098  0.0000  0.0000  0.0610  0.4265  0.0000  0.0895 </r>
        <r>  0.0464  0.0100  0.0540  0.0000  0.0000  0.0000  0.0000  0.0000  0.0000 </r>
       </set>
       <set comment="band 12">
        <r>  0.0041  0.0001  0.0243  0.0000  0.0000  0.0083  0.1040  0.0000  0.5030 </r>
        <r>  0.0036  0.1323  0.0002  0.0000  0.0000  0.0000  0.0000  0.0000  0.0000 </r>
       </set>
       <set comment="band 13">
        <r>  0.0000  0.0000  0.0000  0.1177  0.0023  0.0000  0.0000  0.6608  0.0000 </r>
        <r>  0.0000  0.0000  0.0000  0.0034  0.0000  0.0000  0.0000  0.0000  0.0000 </r>
       </set>
       <set comment="band 14">
        <r>  0.0000  0.0000  0.0000  0.0194  0.0082  0.0000  0.0000  0.1231  0.0000 </r>
        <r>  0.0000  0.0000  0.0000  0.0277  0.0000  0.0000  0.0000  0.0000  0.0000 </r>
       </set>
       <set comment="band 15">
        <r>  0.0808  0.0271  0.0300  0.0000  0.0000  0.1503  0.0056  0.0000  0.0457 </r>
        <r>  0.0013  0.0001  0.0063  0.0000  0.0000  0.0000  0.0000  0.0000  0.0000 </r>
       </set>
       <set comment="band 16">
        <r>  0.0060  0.0059  0.0764  0.0000  0.0000  0.2280  0.0175  0.0000  0.0530 </r>
        <r>  0.0208  0.0068  0.0197  0.0000  0.0000  0.0000  0.0000  0.0000  0.0000 </r>
       </set>
       <set comment="band 17">
        <r>  0.0000  0.0000  0.0000  0.0608  0.3633  0.0000  0.0000  0.1810  0.0000 </r>
        <r>  0.0000  0.0000  0.0000  0.0363  0.0000  0.0000  0.0000  0.0000  0.0000 </r>
       </set>
       <set comment="band 18">
        <r>  0.0000  0.0000  0.0000  0.0043  0.2636  0.0000  0.0000  0.1803  0.0000 </r>
        <r>  0.0000  0.0000  0.0000  0.0014  0.0000  0.0000  0.0000  0.0000  0.0000 </r>
       </set>
      </set>
      <set comment="kpoint 46">
       <set comment="band 1">
        <r>  0.0000  0.0059  0.0006  0.0006  0.0000  0.0000  0.0042  0.0000  0.0014 </r>
        <r>  0.7845  0.0000  0.0000  0.0000  0.0000  0.0000  0.0000  0.0000  0.0000 </r>
       </set>
       <set comment="band 2">
        <r>  0.0275  0.0000  0.0242  0.0242  0.0025  0.0025  0.0001  0.0005  0.0003 </r>
        <r>  0.0000  0.0759  0.2105  0.2105  0.0000  0.0000  0.0000  0.0000  0.0000 </r>
       </set>
       <set comment="band 3">
        <r>  0.0000  0.0000  0.0308  0.0308  0.0023  0.0023  0.0014  0.0000  0.0005 </r>
        <r>  0.0014  0.0000  0.2625  0.2625  0.0000  0.0000  0.0000  0.0000  0.0000 </r>
       </set>
       <set comment="band 4">
        <r>  0.0324  0.0000  0.0054  0.0054  0.0000  0.0000  0.0037  0.0001  0.0112 </r>
        <r>  0.0000  0.5286  0.0475  0.0475  0.0000  0.0000  0.0000  0.0000  0.0000 </r>
       </set>
       <set comment="band 5">
        <r>  0.0000  0.0285  0.0320  0.0320  0.0245  0.0245  0.0019  0.0000  0.0006 </r>
        <r>  0.0218  0.0000  0.1212  0.1212  0.0000  0.0000  0.0000  0.0000  0.0000 </r>
       </set>
       <set comment="band 6">
        <r>  0.0281  0.0000  0.0263  0.0263  0.0301  0.0301  0.0000  0.0011  0.0001 </r>
        <r>  0.0000  0.0297  0.1426  0.1426  0.0000  0.0000  0.0000  0.0000  0.0000 </r>
       </set>
       <set comment="band 7">
        <r>  0.3873  0.0000  0.0123  0.0123  0.0028  0.0028  0.0015  0.0001  0.0046 </r>
        <r>  0.0000  0.1408  0.0011  0.0011  0.0000  0.0000  0.0000  0.0000  0.0000 </r>
       </set>
       <set comment="band 8">
        <r>  0.0000  0.3037  0.0053  0.0053  0.0072  0.0072  0.0088  0.0000  0.0029 </r>
        <r>  0.0735  0.0000  0.0200  0.0200  0.0000  0.0000  0.0000  0.0000  0.0000 </r>
       </set>
       <set comment="band 9">
        <r>  0.0000  0.0048  0.0784  0.0784  0.0894  0.0894  0.0220  0.0000  0.0073 </r>
        <r>  0.0169  0.0000  0.0259  0.0259  0.0000  0.0000  0.0000  0.0000  0.0000 </r>
       </set>
       <set comment="band 10">
        <r>  0.0030  0.0000  0.0835  0.0835  0.0950  0.0950  0.0008  0.0116  0.0025 </r>
        <r>  0.0000  0.0049  0.0450  0.0450  0.0000  0.0000  0.0000  0.0000  0.0000 </r>
       </set>
       <set comment="band 11">
        <r>  0.0000  0.0671  0.0033  0.0033  0.0094  0.0094  0.4141  0.0000  0.1380 </r>
        <r>  0.0576  0.0000  0.0165  0.0165  0.0000  0.0000  0.0000  0.0000  0.0000 </r>
       </set>
       <set comment="band 12">
        <r>  0.0061  0.0000  0.0080  0.0080  0.0008  0.0008  0.1554  0.0118  0.4662 </r>
        <r>  0.0000  0.1650  0.0002  0.0002  0.0000  0.0000  0.0000  0.0000  0.0000 </r>
       </set>
       <set comment="band 13">
        <r>  0.0106  0.0000  0.0283  0.0283  0.0032  0.0032  0.0026  0.7684  0.0077 </r>
        <r>  0.0000  0.0042  0.0003  0.0003  0.0000  0.0000  0.0000  0.0000  0.0000 </r>
       </set>
       <set comment="band 14">
        <r>  0.0000  0.0000  0.0290  0.0290  0.0000  0.0000  0.0021  0.0000  0.0007 </r>
        <r>  0.0008  0.0000  0.0087  0.0087  0.0000  0.0000  0.0000  0.0000  0.0000 </r>
       </set>
       <set comment="band 15">
        <r>  0.0907  0.0000  0.0110  0.0110  0.0539  0.0539  0.0241  0.1841  0.0724 </r>
        <r>  0.0000  0.0022  0.0038  0.0038  0.0000  0.0000  0.0000  0.0000  0.0000 </r>
       </set>
       <set comment="band 16">
        <r>  0.0000  0.0032  0.0478  0.0478  0.1298  0.1298  0.0111  0.0000  0.0037 </r>
        <r>  0.0045  0.0000  0.0065  0.0065  0.0000  0.0000  0.0000  0.0000  0.0000 </r>
       </set>
       <set comment="band 17">
        <r>  0.0000  0.0017  0.0218  0.0218  0.1677  0.1677  0.0009  0.0000  0.0003 </r>
        <r>  0.0185  0.0000  0.0077  0.0077  0.0000  0.0000  0.0000  0.0000  0.0000 </r>
       </set>
       <set comment="band 18">
        <r>  0.0042  0.0000  0.0412  0.0412  0.1009  0.1009  0.0260  0.1064  0.0779 </r>
        <r>  0.0000  0.0001  0.0140  0.0140  0.0000  0.0000  0.0000  0.0000  0.0000 </r>
       </set>
      </set>
      <set comment="kpoint 47">
       <set comment="band 1">
        <r>  0.0005  0.0053  0.0000  0.0000  0.0000  0.0000  0.0058  0.0000  0.0007 </r>
        <r>  0.7870  0.0000  0.0000  0.0000  0.0000  0.0000  0.0000  0.0000  0.0000 </r>
       </set>
       <set comment="band 2">
        <r>  0.0000  0.0000  0.0713  0.0000  0.0000  0.0038  0.0000  0.0000  0.0000 </r>
        <r>  0.0000  0.0000  0.4927  0.0000  0.0000  0.0000  0.0000  0.0000  0.0000 </r>
       </set>
       <set comment="band 3">
        <r>  0.0000  0.0000  0.0000  0.0602  0.0051  0.0000  0.0000  0.0000  0.0000 </r>
        <r>  0.0000  0.0000  0.0000  0.5428  0.0000  0.0000  0.0000  0.0000  0.0000 </r>
       </set>
       <set comment="band 4">
        <r>  0.0509  0.0040  0.0000  0.0000  0.0000  0.0000  0.0032  0.0000  0.0096 </r>
        <r>  0.0000  0.6064  0.0000  0.0000  0.0000  0.0000  0.0000  0.0000  0.0000 </r>
       </set>
       <set comment="band 5">
        <r>  0.0000  0.0000  0.0000  0.0420  0.0984  0.0000  0.0000  0.0000  0.0000 </r>
        <r>  0.0000  0.0000  0.0000  0.2117  0.0000  0.0000  0.0000  0.0000  0.0000 </r>
       </set>
       <set comment="band 6">
        <r>  0.4148  0.0136  0.0000  0.0000  0.0000  0.0000  0.0000  0.0000  0.0052 </r>
        <r>  0.0131  0.1358  0.0000  0.0000  0.0000  0.0000  0.0000  0.0000  0.0000 </r>
       </set>
       <set comment="band 7">
        <r>  0.0000  0.0000  0.0860  0.0000  0.0000  0.0406  0.0000  0.0000  0.0000 </r>
        <r>  0.0000  0.0000  0.3463  0.0000  0.0000  0.0000  0.0000  0.0000  0.0000 </r>
       </set>
       <set comment="band 8">
        <r>  0.0150  0.3139  0.0000  0.0000  0.0000  0.0000  0.0186  0.0000  0.0000 </r>
        <r>  0.0824  0.0381  0.0000  0.0000  0.0000  0.0000  0.0000  0.0000  0.0000 </r>
       </set>
       <set comment="band 9">
        <r>  0.0000  0.0000  0.0000  0.2243  0.1253  0.0000  0.0000  0.0000  0.0000 </r>
        <r>  0.0000  0.0000  0.0000  0.1375  0.0000  0.0000  0.0000  0.0000  0.0000 </r>
       </set>
       <set comment="band 10">
        <r>  0.0000  0.0000  0.1339  0.0000  0.0000  0.2535  0.0000  0.0000  0.0000 </r>
        <r>  0.0000  0.0000  0.0585  0.0000  0.0000  0.0000  0.0000  0.0000  0.0000 </r>
       </set>
       <set comment="band 11">
        <r>  0.0041  0.0702  0.0000  0.0000  0.0000  0.0000  0.4276  0.0000  0.1452 </r>
        <r>  0.0791  0.0023  0.0000  0.0000  0.0000  0.0000  0.0000  0.0000  0.0000 </r>
       </set>
       <set comment="band 12">
        <r>  0.0098  0.0001  0.0000  0.0000  0.0000  0.0000  0.1311  0.0000  0.5214 </r>
        <r>  0.0023  0.1602  0.0000  0.0000  0.0000  0.0000  0.0000  0.0000  0.0000 </r>
       </set>
       <set comment="band 13">
        <r>  0.0000  0.0000  0.0000  0.0000  0.0000  0.0000  0.0000  1.0044  0.0000 </r>
        <r>  0.0000  0.0000  0.0000  0.0000  0.0000  0.0000  0.0000  0.0000  0.0000 </r>
       </set>
       <set comment="band 14">
        <r>  0.0000  0.0000  0.0000  0.0000  0.0000  0.0000  0.0000  0.0667  0.0000 </r>
        <r>  0.0000  0.0000  0.0000  0.0000  0.0000  0.0000  0.0000  0.0000  0.0000 </r>
       </set>
       <set comment="band 15">
        <r>  0.0000  0.0000  0.1595  0.0000  0.0000  0.1436  0.0000  0.0000  0.0000 </r>
        <r>  0.0000  0.0000  0.0000  0.0000  0.0000  0.0000  0.0000  0.0000  0.0000 </r>
       </set>
       <set comment="band 16">
        <r>  0.0000  0.0000  0.0000  0.1950  0.0254  0.0000  0.0000  0.0000  0.0000 </r>
        <r>  0.0000  0.0000  0.0000  0.0010  0.0000  0.0000  0.0000  0.0000  0.0000 </r>
       </set>
       <set comment="band 17">
        <r>  0.1560  0.0212  0.0000  0.0000  0.0000  0.0000  0.0829  0.0000  0.1871 </r>
        <r>  0.0002  0.0133  0.0000  0.0000  0.0000  0.0000  0.0000  0.0000  0.0000 </r>
       </set>
       <set comment="band 18">
        <r>  0.0000  0.0000  0.0277  0.0000  0.0000  0.5312  0.0000  0.0000  0.0000 </r>
        <r>  0.0000  0.0000  0.0451  0.0000  0.0000  0.0000  0.0000  0.0000  0.0000 </r>
       </set>
      </set>
     </set>
    </set>
   </array>
  </projected>
 </calculation>
 <structure name="finalpos" >
  <crystal>
   <varray name="basis" >
    <v>       0.00000000       2.12337500       2.12337500 </v>
    <v>       2.12337500       0.00000000       2.12337500 </v>
    <v>       2.12337500       2.12337500       0.00000000 </v>
   </varray>
   <i name="volume">     19.14741257 </i>
   <varray name="rec_basis" >
    <v>      -0.23547419       0.23547419       0.23547419 </v>
    <v>       0.23547419      -0.23547419       0.23547419 </v>
    <v>       0.23547419       0.23547419      -0.23547419 </v>
   </varray>
  </crystal>
  <varray name="positions" >
   <v>       0.00000000       0.00000000       0.00000000 </v>
   <v>       0.50000000       0.50000000       0.50000000 </v>
  </varray>
 </structure>
</modeling>
