       N       E                     dE             d eps       ncg     rms          ort
DAV:   1     0.193127071620E+03    0.19313E+03   -0.55750E+03    36   0.324E+02
DAV:   2     0.249923935110E+02   -0.16813E+03   -0.16813E+03    36   0.945E+01
DAV:   3     0.419494209001E+01   -0.20797E+02   -0.20362E+02    36   0.542E+01
DAV:   4    -0.943763273351E+00   -0.51387E+01   -0.48076E+01    36   0.224E+01
DAV:   5    -0.163271364558E+01   -0.68895E+00   -0.68170E+00    36   0.778E+00
SDA:   6     0.722954467757E+00    0.23557E+01   -0.49756E+01    36   0.124E+02 0.000E+00
DMP:   7     0.245716938762E+00   -0.47724E+00   -0.49798E+01    36   0.166E+02-0.110E+02
DMP:   8     0.838810079184E+00    0.59309E+00   -0.77801E+01    36   0.250E+02-0.144E+02
DMP:   9     0.163370688823E+01    0.79490E+00   -0.12502E+02    36   0.422E+02-0.286E+02
DMP:  10     0.232381351043E+01    0.69011E+00   -0.10722E+02    36   0.381E+02-0.294E+02
DMP:  11     0.181858759748E+01   -0.50523E+00   -0.14148E+02    36   0.461E+02-0.282E+02
DMP:  12     0.192985462112E+01    0.11127E+00   -0.60330E+01    36   0.223E+02-0.190E+02
DMP:  13    -0.194083805422E-01   -0.19493E+01   -0.24226E+01    36   0.978E+01-0.974E+01
DMP:  14    -0.164151383049E+00   -0.14474E+00   -0.17348E+01    36   0.597E+01-0.429E+01
DMP:  15    -0.248613092904E+00   -0.84462E-01   -0.26002E+01    36   0.882E+01-0.606E+01
DMP:  16    -0.644945944173E-01    0.18412E+00   -0.18075E+01    36   0.629E+01-0.465E+01
DMP:  17    -0.187185100343E+00   -0.12269E+00   -0.19757E+01    36   0.732E+01-0.623E+01
DMP:  18    -0.165312338316E+00    0.21873E-01   -0.16066E+01    36   0.545E+01-0.375E+01
DMP:  19    -0.501630804577E+00   -0.33632E+00   -0.24814E+01    36   0.820E+01-0.521E+01
DMP:  20    -0.299667675768E+00    0.20196E+00   -0.15009E+01    36   0.513E+01-0.361E+01
DMP:  21    -0.347102775276E+00   -0.47435E-01   -0.13719E+01    36   0.524E+01-0.474E+01
DMP:  22    -0.122531458544E+01   -0.87821E+00   -0.41616E+00    36   0.700E+00 0.890E+00
DMP:  23     0.834890422798E-01    0.13088E+01   -0.80093E+01    36   0.218E+02-0.464E+01
DMP:  24    -0.619941927701E+00   -0.70343E+00   -0.12226E+01    36   0.494E+01-0.493E+01
DMP:  25    -0.139638193668E+01   -0.77644E+00   -0.37813E+00    36   0.586E+00 0.940E+00
DMP:  26    -0.119319091014E+01    0.20319E+00   -0.13190E+01    36   0.577E+01-0.646E+01
DMP:  27    -0.152041449638E+01   -0.32722E+00    0.77039E-03    36   0.438E-01-0.120E+00
DMP:  28    -0.151678781127E+01    0.36267E-02   -0.31235E-01    36   0.849E-01-0.179E-01
DMP:  29    -0.153498329660E+01   -0.18195E-01   -0.32344E-02    36   0.364E-02 0.117E-01
DMP:  30    -0.153506220922E+01   -0.78913E-04   -0.36017E-02    36   0.120E-01-0.779E-02
DMP:  31    -0.153747522259E+01   -0.24130E-02   -0.14881E-02    36   0.234E-02 0.362E-02
DMP:  32    -0.153813687891E+01   -0.66166E-03   -0.28628E-03    36   0.802E-03-0.226E-03
DMP:  33    -0.153835646130E+01   -0.21958E-03   -0.29072E-03    36   0.580E-03 0.384E-03
DMP:  34    -0.153854949459E+01   -0.19303E-03   -0.83470E-04    36   0.126E-03 0.218E-03
DMP:  35    -0.153860933540E+01   -0.59841E-04   -0.55809E-04    36   0.108E-03 0.826E-04
DMP:  36    -0.153865298376E+01   -0.43648E-04   -0.33405E-04    36   0.518E-04 0.831E-04
   1 F= -.15386530E+01 E0= -.15386507E+01  d E =-.153865E+01  mag=     3.0000
