<?xml version="1.0" encoding="ISO-8859-1"?>
<modeling>
 <generator>
  <i name="program" type="string">vasp </i>
  <i name="version" type="string">5.4.4.18Apr17-6-g9f103f2a35  </i>
  <i name="subversion" type="string">(build Nov 08 2019 15:19:53) gamma-only         parallel </i>
  <i name="platform" type="string">LinuxIFC </i>
  <i name="date" type="string">2020 11 30 </i>
  <i name="time" type="string">09:30:43 </i>
 </generator>
 <incar>
  <i type="string" name="PREC">accurate</i>
  <i type="string" name="ALGO"> D</i>
  <i type="int" name="ISPIN">     2</i>
  <i type="int" name="NELM">   300</i>
  <i type="int" name="IBRION">     2</i>
  <i name="EDIFF">      0.00005000</i>
  <i type="int" name="NSW">    99</i>
  <i type="int" name="ISIF">     2</i>
  <i name="ENCUT">    520.00000000</i>
  <v name="MAGMOM">      0.60000000</v>
  <i type="string" name="LREAL"> Auto</i>
  <i type="int" name="ISMEAR">     0</i>
  <i name="SIGMA">      0.05000000</i>
  <i type="logical" name="LWAVE"> F  </i>
  <i type="int" name="LORBIT">    11</i>
  <i type="logical" name="LASPH"> T  </i>
  <v type="int" name="KPOINT_BSE">    -1     0     0     0</v>
  <i type="int" name="NELM">   300</i>
  <i type="logical" name="LASPH"> T  </i>
 </incar>
 <structure name="primitive_cell" >
  <crystal>
   <varray name="basis" >
    <v>      10.00000000       0.00000000       0.00000000 </v>
    <v>       0.00000000      10.00000000       0.00000000 </v>
    <v>       0.00000000       0.00000000      10.00000000 </v>
   </varray>
   <i name="volume">   1000.00000000 </i>
   <varray name="rec_basis" >
    <v>       0.10000000       0.00000000       0.00000000 </v>
    <v>       0.00000000       0.10000000       0.00000000 </v>
    <v>       0.00000000       0.00000000       0.10000000 </v>
   </varray>
  </crystal>
  <varray name="positions" >
   <v>      -0.50000000      -0.50000000      -0.50000000 </v>
  </varray>
 </structure>
 <varray name="primitive_index" >
  <v type="int" >        1 </v>
 </varray>
 <kpoints>
  <generation param="Gamma">
   <v type="int" name="divisions">       1        1        1 </v>
   <v name="usershift">      0.00000000       0.00000000       0.00000000 </v>
   <v name="genvec1">      1.00000000       0.00000000       0.00000000 </v>
   <v name="genvec2">      0.00000000       1.00000000       0.00000000 </v>
   <v name="genvec3">      0.00000000       0.00000000       1.00000000 </v>
   <v name="shift">      0.00000000       0.00000000       0.00000000 </v>
  </generation>
  <varray name="kpointlist" >
   <v>       0.00000000       0.00000000       0.00000000 </v>
  </varray>
  <varray name="weights" >
   <v>       1.00000000 </v>
  </varray>
 </kpoints>
 <parameters>
  <separator name="general" >
   <i type="string" name="SYSTEM">unknown system</i>
   <i type="logical" name="LCOMPAT"> F  </i>
  </separator>
  <separator name="electronic" >
   <i type="string" name="PREC">accura</i>
   <i name="ENMAX">    520.00000000</i>
   <i name="ENAUG">    425.65400000</i>
   <i name="EDIFF">      0.00005000</i>
   <i type="int" name="IALGO">    53</i>
   <i type="int" name="IWAVPR">    11</i>
   <i type="int" name="NBANDS">    36</i>
   <i name="NELECT">     15.00000000</i>
   <i type="int" name="TURBO">     0</i>
   <i type="int" name="IRESTART">     0</i>
   <i type="int" name="NREBOOT">     0</i>
   <i type="int" name="NMIN">     0</i>
   <i name="EREF">      0.00000000</i>
   <separator name="electronic smearing" >
    <i type="int" name="ISMEAR">     0</i>
    <i name="SIGMA">      0.05000000</i>
    <i name="KSPACING">      0.50000000</i>
    <i type="logical" name="KGAMMA"> T  </i>
   </separator>
   <separator name="electronic projectors" >
    <i type="logical" name="LREAL"> T  </i>
    <v name="ROPT">     -0.00025000</v>
    <i type="int" name="LMAXPAW">  -100</i>
    <i type="int" name="LMAXMIX">     2</i>
    <i type="logical" name="NLSPLINE"> F  </i>
   </separator>
   <separator name="electronic startup" >
    <i type="int" name="ISTART">     0</i>
    <i type="int" name="ICHARG">     2</i>
    <i type="int" name="INIWAV">     1</i>
   </separator>
   <separator name="electronic spin" >
    <i type="int" name="ISPIN">     2</i>
    <i type="logical" name="LNONCOLLINEAR"> F  </i>
    <v name="MAGMOM">      0.60000000</v>
    <i name="NUPDOWN">     -1.00000000</i>
    <i type="logical" name="LSORBIT"> F  </i>
    <v name="SAXIS">      0.00000000      0.00000000      1.00000000</v>
    <i type="logical" name="LSPIRAL"> F  </i>
    <v name="QSPIRAL">      0.00000000      0.00000000      0.00000000</v>
    <i type="logical" name="LZEROZ"> F  </i>
   </separator>
   <separator name="electronic exchange-correlation" >
    <i type="logical" name="LASPH"> T  </i>
    <i type="logical" name="LMETAGGA"> F  </i>
   </separator>
   <separator name="electronic convergence" >
    <i type="int" name="NELM">   300</i>
    <i type="int" name="NELMDL">    -5</i>
    <i type="int" name="NELMIN">     2</i>
    <i name="ENINI">    520.00000000</i>
    <separator name="electronic convergence detail" >
     <i type="logical" name="LDIAG"> T  </i>
     <i type="logical" name="LSUBROT"> F  </i>
     <i name="WEIMIN">      0.00100000</i>
     <i name="EBREAK">      0.00000035</i>
     <i name="DEPER">      0.30000000</i>
     <i type="int" name="NRMM">     4</i>
     <i name="TIME">      0.40000000</i>
    </separator>
   </separator>
   <separator name="electronic mixer" >
    <i name="AMIX">      0.40000000</i>
    <i name="BMIX">      1.00000000</i>
    <i name="AMIN">      0.10000000</i>
    <i name="AMIX_MAG">      1.60000000</i>
    <i name="BMIX_MAG">      1.00000000</i>
    <separator name="electronic mixer details" >
     <i type="int" name="IMIX">     4</i>
     <i type="logical" name="MIXFIRST"> F  </i>
     <i type="int" name="MAXMIX">   -45</i>
     <i name="WC">    100.00000000</i>
     <i type="int" name="INIMIX">     1</i>
     <i type="int" name="MIXPRE">     1</i>
     <i type="int" name="MREMOVE">     5</i>
    </separator>
   </separator>
   <separator name="electronic dipolcorrection" >
    <i type="logical" name="LDIPOL"> F  </i>
    <i type="logical" name="LMONO"> F  </i>
    <i type="int" name="IDIPOL">     0</i>
    <i name="EPSILON">      1.00000000</i>
    <v name="DIPOL">   -100.00000000   -100.00000000   -100.00000000</v>
    <i name="EFIELD">      0.00000000</i>
   </separator>
  </separator>
  <separator name="grids" >
   <i type="int" name="NGX">    80</i>
   <i type="int" name="NGY">    80</i>
   <i type="int" name="NGZ">    80</i>
   <i type="int" name="NGXF">   160</i>
   <i type="int" name="NGYF">   160</i>
   <i type="int" name="NGZF">   160</i>
   <i type="logical" name="ADDGRID"> F  </i>
  </separator>
  <separator name="ionic" >
   <i type="int" name="NSW">    99</i>
   <i type="int" name="IBRION">     2</i>
   <i type="int" name="MDALGO">     0</i>
   <i type="int" name="ISIF">     2</i>
   <i name="PSTRESS">      0.00000000</i>
   <i name="EDIFFG">      0.00050000</i>
   <i type="int" name="NFREE">     1</i>
   <i name="POTIM">      0.50000000</i>
   <i name="SMASS">     -3.00000000</i>
   <i name="SCALEE">      1.00000000</i>
  </separator>
  <separator name="ionic md" >
   <i name="TEBEG">      0.00010000</i>
   <i name="TEEND">      0.00010000</i>
   <i type="int" name="NBLOCK">     1</i>
   <i type="int" name="KBLOCK">    99</i>
   <i type="int" name="NPACO">   256</i>
   <i name="APACO">     16.00000000</i>
  </separator>
  <separator name="symmetry" >
   <i type="int" name="ISYM">     2</i>
   <i name="SYMPREC">      0.00001000</i>
  </separator>
  <separator name="dos" >
   <i type="int" name="LORBIT">    11</i>
   <v name="RWIGS">     -1.00000000</v>
   <i type="int" name="NEDOS">   301</i>
   <i name="EMIN">     10.00000000</i>
   <i name="EMAX">    -10.00000000</i>
   <i name="EFERMI">      0.00000000</i>
  </separator>
  <separator name="writing" >
   <i type="int" name="NWRITE">     2</i>
   <i type="logical" name="LWAVE"> F  </i>
   <i type="logical" name="LDOWNSAMPLE"> F  </i>
   <i type="logical" name="LCHARG"> T  </i>
   <i type="logical" name="LPARD"> F  </i>
   <i type="logical" name="LVTOT"> F  </i>
   <i type="logical" name="LVHAR"> F  </i>
   <i type="logical" name="LELF"> F  </i>
   <i type="logical" name="LOPTICS"> F  </i>
   <v name="STM">      0.00000000      0.00000000      0.00000000      0.00000000      0.00000000      0.00000000      0.00000000</v>
  </separator>
  <separator name="performance" >
   <i type="int" name="NPAR">    36</i>
   <i type="int" name="NSIM">     4</i>
   <i type="int" name="NBLK">    -1</i>
   <i type="logical" name="LPLANE"> T  </i>
   <i type="logical" name="LSCALAPACK"> T  </i>
   <i type="logical" name="LSCAAWARE"> F  </i>
   <i type="logical" name="LSCALU"> F  </i>
   <i type="logical" name="LASYNC"> F  </i>
   <i type="logical" name="LORBITALREAL"> F  </i>
  </separator>
  <separator name="miscellaneous" >
   <i type="int" name="IDIOT">     3</i>
   <i type="int" name="ISPECIAL">     0</i>
   <i type="logical" name="LMUSIC"> F  </i>
   <v name="POMASS">    102.90600000</v>
   <v name="DARWINR">      0.00000000</v>
   <v name="DARWINV">      1.00000000</v>
   <i type="logical" name="LCORR"> T  </i>
  </separator>
  <i type="logical" name="GGA_COMPAT"> T  </i>
  <i type="logical" name="LBERRY"> F  </i>
  <i type="int" name="ICORELEVEL">     0</i>
  <i type="logical" name="LDAU"> F  </i>
  <i type="int" name="I_CONSTRAINED_M">     0</i>
  <separator name="electronic exchange-correlation" >
   <i type="string" name="GGA">--</i>
   <i type="int" name="VOSKOWN">     0</i>
   <i type="logical" name="LHFCALC"> F  </i>
   <i type="string" name="PRECFOCK"></i>
   <i type="logical" name="LSYMGRAD"> F  </i>
   <i type="logical" name="LHFONE"> F  </i>
   <i type="logical" name="LRHFCALC"> F  </i>
   <i type="logical" name="LTHOMAS"> F  </i>
   <i type="logical" name="LMODELHF"> F  </i>
   <i name="ENCUT4O">     -1.00000000</i>
   <i type="int" name="EXXOEP">     0</i>
   <i type="int" name="FOURORBIT">     0</i>
   <i name="AEXX">      0.00000000</i>
   <i name="HFALPHA">      0.00000000</i>
   <i name="MCALPHA">      0.00000000</i>
   <i name="ALDAX">      1.00000000</i>
   <i name="AGGAX">      1.00000000</i>
   <i name="ALDAC">      1.00000000</i>
   <i name="AGGAC">      1.00000000</i>
   <i type="int" name="NKREDX">     1</i>
   <i type="int" name="NKREDY">     1</i>
   <i type="int" name="NKREDZ">     1</i>
   <i type="logical" name="SHIFTRED"> F  </i>
   <i type="logical" name="ODDONLY"> F  </i>
   <i type="logical" name="EVENONLY"> F  </i>
   <i type="int" name="LMAXFOCK">     0</i>
   <i type="int" name="NMAXFOCKAE">     0</i>
   <i type="logical" name="LFOCKAEDFT"> F  </i>
   <i name="HFSCREEN">      0.00000000</i>
   <i name="HFSCREENC">      0.00000000</i>
   <i type="int" name="NBANDSGWLOW">     0</i>
  </separator>
  <separator name="vdW DFT" >
   <i type="logical" name="LUSE_VDW"> F  </i>
   <i name="Zab_VDW">     -0.84910000</i>
   <i name="PARAM1">      0.12340000</i>
   <i name="PARAM2">      1.00000000</i>
   <i name="PARAM3">      0.00000000</i>
  </separator>
  <separator name="model GW" >
   <i type="int" name="MODEL_GW">     0</i>
   <i name="MODEL_EPS0">    600.00000000</i>
   <i name="MODEL_ALPHA">      1.00000000</i>
  </separator>
  <separator name="linear response parameters" >
   <i type="logical" name="LEPSILON"> F  </i>
   <i type="logical" name="LRPA"> F  </i>
   <i type="logical" name="LNABLA"> F  </i>
   <i type="logical" name="LVEL"> F  </i>
   <i type="int" name="KINTER">     0</i>
   <i name="CSHIFT">      0.10000000</i>
   <i name="OMEGAMAX">     -1.00000000</i>
   <i name="DEG_THRESHOLD">      0.00200000</i>
   <i name="RTIME">     -0.10000000</i>
   <i name="WPLASMAI">      0.00000000</i>
   <v name="DFIELD">      0.00000000      0.00000000      0.00000000</v>
   <v name="WPLASMA">      0.00000000      0.00000000      0.00000000      0.00000000      0.00000000      0.00000000      0.00000000      0.00000000      0.00000000</v>
  </separator>
  <separator name="orbital magnetization" >
   <i type="logical" name="NUCIND"> F  </i>
   <v name="MAGPOS">      0.00000000      0.00000000      0.00000000</v>
   <i type="logical" name="LNICSALL"> T  </i>
   <i type="logical" name="ORBITALMAG"> F  </i>
   <i type="logical" name="LMAGBLOCH"> F  </i>
   <i type="logical" name="LCHIMAG"> F  </i>
   <i type="logical" name="LGAUGE"> T  </i>
   <i type="int" name="MAGATOM">     0</i>
   <v name="MAGDIPOL">      0.00000000      0.00000000      0.00000000</v>
   <v name="AVECCONST">      0.00000000      0.00000000      0.00000000</v>
  </separator>
  <separator name="response functions" >
   <i type="logical" name="LADDER"> F  </i>
   <i type="logical" name="LRPAFORCE"> F  </i>
   <i type="logical" name="LFXC"> F  </i>
   <i type="logical" name="LHARTREE"> T  </i>
   <i type="int" name="IBSE">     0</i>
   <v type="int" name="KPOINT">    -1     0     0     0</v>
   <i type="logical" name="LTCTE"> F  </i>
   <i type="logical" name="LTETE"> F  </i>
   <i type="logical" name="LTRIPLET"> F  </i>
   <i type="logical" name="LFXCEPS"> F  </i>
   <i type="logical" name="LFXHEG"> F  </i>
   <i type="int" name="NATURALO">     2</i>
   <i type="logical" name="L2ORDER"> F  </i>
   <i type="logical" name="LMP2LT"> F  </i>
   <i type="logical" name="LUSEW"> F  </i>
   <i name="ENCUTGW">     -2.00000000</i>
   <i name="ENCUTGWSOFT">     -2.00000000</i>
   <i name="ENCUTLF">     -1.00000000</i>
   <i type="int" name="LMAXMP2">    -1</i>
   <i name="SCISSOR">      0.00000000</i>
   <i type="int" name="NOMEGA">     0</i>
   <i type="int" name="NOMEGAR">     0</i>
   <i type="int" name="NBANDSGW">    -1</i>
   <i type="int" name="NBANDSO">    -1</i>
   <i type="int" name="NBANDSV">    -1</i>
   <i type="int" name="NELM">   300</i>
   <i type="int" name="NELMHF">     1</i>
   <i type="int" name="DIM">     3</i>
   <i type="int" name="ANTIRES">     0</i>
   <i name="OMEGAMAX">    -30.00000000</i>
   <i name="OMEGAMIN">    -30.00000000</i>
   <i name="OMEGATL">   -200.00000000</i>
   <i type="int" name="OMEGAGRID">   140</i>
   <i name="CSHIFT">     -0.10000000</i>
   <i type="logical" name="SELFENERGY"> F  </i>
   <i type="logical" name="LSPECTRAL"> F  </i>
   <i type="logical" name="LSPECTRALGW"> F  </i>
   <i type="logical" name="LSINGLES"> F  </i>
   <i type="logical" name="LFERMIGW"> F  </i>
   <i type="logical" name="ODDONLYGW"> F  </i>
   <i type="logical" name="EVENONLYGW"> F  </i>
   <i type="int" name="NKREDLFX">     1</i>
   <i type="int" name="NKREDLFY">     1</i>
   <i type="int" name="NKREDLFZ">     1</i>
   <i type="int" name="MAXMEM">  2800</i>
   <i type="int" name="TELESCOPE">     0</i>
   <i type="int" name="TAUPAR">     1</i>
   <i type="int" name="OMEGAPAR">    -1</i>
   <i name="LAMBDA">      1.00000000</i>
  </separator>
  <separator name="External order field" >
   <i name="OFIELD_KAPPA">      0.00000000</i>
   <v name="OFIELD_K">      0.00000000      0.00000000      0.00000000</v>
   <i name="OFIELD_Q6_NEAR">      0.00000000</i>
   <i name="OFIELD_Q6_FAR">      0.00000000</i>
   <i name="OFIELD_A">      0.00000000</i>
  </separator>
 </parameters>
 <atominfo>
  <atoms>       1 </atoms>
  <types>       1 </types>
  <array name="atoms" >
   <dimension dim="1">ion</dimension>
   <field type="string">element</field>
   <field type="int">atomtype</field>
   <set>
    <rc><c>Rh</c><c>   1</c></rc>
   </set>
  </array>
  <array name="atomtypes" >
   <dimension dim="1">type</dimension>
   <field type="int">atomspertype</field>
   <field type="string">element</field>
   <field>mass</field>
   <field>valence</field>
   <field type="string">pseudopotential</field>
   <set>
    <rc><c>   1</c><c>Rh</c><c>    102.90600000</c><c>     15.00000000</c><c>  PAW_PBE Rh_pv 25Jan2005               </c></rc>
   </set>
  </array>
 </atominfo>
 <structure name="initialpos" >
  <crystal>
   <varray name="basis" >
    <v>      10.00000000       0.00000000       0.00000000 </v>
    <v>       0.00000000      10.00000000       0.00000000 </v>
    <v>       0.00000000       0.00000000      10.00000000 </v>
   </varray>
   <i name="volume">   1000.00000000 </i>
   <varray name="rec_basis" >
    <v>       0.10000000       0.00000000       0.00000000 </v>
    <v>       0.00000000       0.10000000       0.00000000 </v>
    <v>       0.00000000       0.00000000       0.10000000 </v>
   </varray>
  </crystal>
  <varray name="positions" >
   <v>       0.50000000       0.50000000       0.50000000 </v>
  </varray>
 </structure>
 <calculation>
  <scstep>
   <time name="total">    1.30    1.31</time>
   <energy>
    <i name="alphaZ">      1.93015695 </i>
    <i name="ewald">   -459.63540012 </i>
    <i name="hartreedc">  -1479.39915748 </i>
    <i name="XCdc">     59.29894802 </i>
    <i name="pawpsdc">   1873.10085132 </i>
    <i name="pawaedc">  -1871.39161153 </i>
    <i name="eentropy">     -0.00052348 </i>
    <i name="bandstr">   -157.24601147 </i>
    <i name="atom">   2226.46981941 </i>
    <i name="e_fr_energy">    193.12707162 </i>
    <i name="e_wo_entrp">    193.12759510 </i>
    <i name="e_0_energy">    193.12733336 </i>
   </energy>
  </scstep>
  <scstep>
   <time name="total">    0.44    0.44</time>
   <energy>
    <i name="e_fr_energy">     24.99239351 </i>
    <i name="e_wo_entrp">     24.99239351 </i>
    <i name="e_0_energy">     24.99239351 </i>
   </energy>
  </scstep>
  <scstep>
   <time name="total">    0.51    0.51</time>
   <energy>
    <i name="e_fr_energy">      4.19494209 </i>
    <i name="e_wo_entrp">      4.19494263 </i>
    <i name="e_0_energy">      4.19494236 </i>
   </energy>
  </scstep>
  <scstep>
   <time name="total">    0.56    0.57</time>
   <energy>
    <i name="e_fr_energy">     -0.94376327 </i>
    <i name="e_wo_entrp">     -0.90805662 </i>
    <i name="e_0_energy">     -0.92590994 </i>
   </energy>
  </scstep>
  <scstep>
   <time name="total">    0.81    0.82</time>
   <energy>
    <i name="e_fr_energy">     -1.63271365 </i>
    <i name="e_wo_entrp">     -1.58432951 </i>
    <i name="e_0_energy">     -1.60852158 </i>
   </energy>
  </scstep>
  <scstep>
   <time name="total">    1.11    1.12</time>
   <energy>
    <i name="e_fr_energy">      0.72295447 </i>
    <i name="e_wo_entrp">      0.77093796 </i>
    <i name="e_0_energy">      0.74694622 </i>
   </energy>
  </scstep>
  <scstep>
   <time name="total">    1.10    1.11</time>
   <energy>
    <i name="e_fr_energy">      0.24571694 </i>
    <i name="e_wo_entrp">      0.29384553 </i>
    <i name="e_0_energy">      0.26978123 </i>
   </energy>
  </scstep>
  <scstep>
   <time name="total">    1.10    1.10</time>
   <energy>
    <i name="e_fr_energy">      0.83881008 </i>
    <i name="e_wo_entrp">      0.90243116 </i>
    <i name="e_0_energy">      0.87062062 </i>
   </energy>
  </scstep>
  <scstep>
   <time name="total">    1.09    1.09</time>
   <energy>
    <i name="e_fr_energy">      1.63370689 </i>
    <i name="e_wo_entrp">      1.68305328 </i>
    <i name="e_0_energy">      1.65838009 </i>
   </energy>
  </scstep>
  <scstep>
   <time name="total">    1.10    1.11</time>
   <energy>
    <i name="e_fr_energy">      2.32381351 </i>
    <i name="e_wo_entrp">      2.39341816 </i>
    <i name="e_0_energy">      2.35861584 </i>
   </energy>
  </scstep>
  <scstep>
   <time name="total">    1.09    1.10</time>
   <energy>
    <i name="e_fr_energy">      1.81858760 </i>
    <i name="e_wo_entrp">      1.86469465 </i>
    <i name="e_0_energy">      1.84164112 </i>
   </energy>
  </scstep>
  <scstep>
   <time name="total">    1.09    1.09</time>
   <energy>
    <i name="e_fr_energy">      1.92985462 </i>
    <i name="e_wo_entrp">      1.98519611 </i>
    <i name="e_0_energy">      1.95752536 </i>
   </energy>
  </scstep>
  <scstep>
   <time name="total">    1.10    1.10</time>
   <energy>
    <i name="e_fr_energy">     -0.01940838 </i>
    <i name="e_wo_entrp">      0.01926469 </i>
    <i name="e_0_energy">     -0.00007185 </i>
   </energy>
  </scstep>
  <scstep>
   <time name="total">    1.10    1.10</time>
   <energy>
    <i name="e_fr_energy">     -0.16415138 </i>
    <i name="e_wo_entrp">     -0.12381065 </i>
    <i name="e_0_energy">     -0.14398102 </i>
   </energy>
  </scstep>
  <scstep>
   <time name="total">    1.08    1.08</time>
   <energy>
    <i name="e_fr_energy">     -0.24861309 </i>
    <i name="e_wo_entrp">     -0.21004933 </i>
    <i name="e_0_energy">     -0.22933121 </i>
   </energy>
  </scstep>
  <scstep>
   <time name="total">    1.11    1.11</time>
   <energy>
    <i name="e_fr_energy">     -0.06449459 </i>
    <i name="e_wo_entrp">      0.00368127 </i>
    <i name="e_0_energy">     -0.03040666 </i>
   </energy>
  </scstep>
  <scstep>
   <time name="total">    1.10    1.10</time>
   <energy>
    <i name="e_fr_energy">     -0.18718510 </i>
    <i name="e_wo_entrp">     -0.14812049 </i>
    <i name="e_0_energy">     -0.16765280 </i>
   </energy>
  </scstep>
  <scstep>
   <time name="total">    1.09    1.09</time>
   <energy>
    <i name="e_fr_energy">     -0.16531234 </i>
    <i name="e_wo_entrp">     -0.13533643 </i>
    <i name="e_0_energy">     -0.15032438 </i>
   </energy>
  </scstep>
  <scstep>
   <time name="total">    1.09    1.09</time>
   <energy>
    <i name="e_fr_energy">     -0.50163080 </i>
    <i name="e_wo_entrp">     -0.47375848 </i>
    <i name="e_0_energy">     -0.48769464 </i>
   </energy>
  </scstep>
  <scstep>
   <time name="total">    1.10    1.10</time>
   <energy>
    <i name="e_fr_energy">     -0.29966768 </i>
    <i name="e_wo_entrp">     -0.24529993 </i>
    <i name="e_0_energy">     -0.27248380 </i>
   </energy>
  </scstep>
  <scstep>
   <time name="total">    1.10    1.10</time>
   <energy>
    <i name="e_fr_energy">     -0.34710278 </i>
    <i name="e_wo_entrp">     -0.28578330 </i>
    <i name="e_0_energy">     -0.31644304 </i>
   </energy>
  </scstep>
  <scstep>
   <time name="total">    1.09    1.09</time>
   <energy>
    <i name="e_fr_energy">     -1.22531459 </i>
    <i name="e_wo_entrp">     -1.19042799 </i>
    <i name="e_0_energy">     -1.20787129 </i>
   </energy>
  </scstep>
  <scstep>
   <time name="total">    1.09    1.09</time>
   <energy>
    <i name="e_fr_energy">      0.08348904 </i>
    <i name="e_wo_entrp">      0.08956053 </i>
    <i name="e_0_energy">      0.08652479 </i>
   </energy>
  </scstep>
  <scstep>
   <time name="total">    1.10    1.10</time>
   <energy>
    <i name="e_fr_energy">     -0.61994193 </i>
    <i name="e_wo_entrp">     -0.61990572 </i>
    <i name="e_0_energy">     -0.61992383 </i>
   </energy>
  </scstep>
  <scstep>
   <time name="total">    1.11    1.11</time>
   <energy>
    <i name="e_fr_energy">     -1.39638194 </i>
    <i name="e_wo_entrp">     -1.36909625 </i>
    <i name="e_0_energy">     -1.38273909 </i>
   </energy>
  </scstep>
  <scstep>
   <time name="total">    1.10    1.10</time>
   <energy>
    <i name="e_fr_energy">     -1.19319091 </i>
    <i name="e_wo_entrp">     -1.19201565 </i>
    <i name="e_0_energy">     -1.19260328 </i>
   </energy>
  </scstep>
  <scstep>
   <time name="total">    1.08    1.09</time>
   <energy>
    <i name="e_fr_energy">     -1.52041450 </i>
    <i name="e_wo_entrp">     -1.52007396 </i>
    <i name="e_0_energy">     -1.52024423 </i>
   </energy>
  </scstep>
  <scstep>
   <time name="total">    1.09    1.09</time>
   <energy>
    <i name="e_fr_energy">     -1.51678781 </i>
    <i name="e_wo_entrp">     -1.51590974 </i>
    <i name="e_0_energy">     -1.51634878 </i>
   </energy>
  </scstep>
  <scstep>
   <time name="total">    1.09    1.09</time>
   <energy>
    <i name="e_fr_energy">     -1.53498330 </i>
    <i name="e_wo_entrp">     -1.53412176 </i>
    <i name="e_0_energy">     -1.53455253 </i>
   </energy>
  </scstep>
  <scstep>
   <time name="total">    1.12    1.12</time>
   <energy>
    <i name="e_fr_energy">     -1.53506221 </i>
    <i name="e_wo_entrp">     -1.53481111 </i>
    <i name="e_0_energy">     -1.53493666 </i>
   </energy>
  </scstep>
  <scstep>
   <time name="total">    1.09    1.09</time>
   <energy>
    <i name="e_fr_energy">     -1.53747522 </i>
    <i name="e_wo_entrp">     -1.53741323 </i>
    <i name="e_0_energy">     -1.53744423 </i>
   </energy>
  </scstep>
  <scstep>
   <time name="total">    1.11    1.11</time>
   <energy>
    <i name="e_fr_energy">     -1.53813688 </i>
    <i name="e_wo_entrp">     -1.53811108 </i>
    <i name="e_0_energy">     -1.53812398 </i>
   </energy>
  </scstep>
  <scstep>
   <time name="total">    1.09    1.09</time>
   <energy>
    <i name="e_fr_energy">     -1.53835646 </i>
    <i name="e_wo_entrp">     -1.53834081 </i>
    <i name="e_0_energy">     -1.53834864 </i>
   </energy>
  </scstep>
  <scstep>
   <time name="total">    1.09    1.09</time>
   <energy>
    <i name="e_fr_energy">     -1.53854949 </i>
    <i name="e_wo_entrp">     -1.53853940 </i>
    <i name="e_0_energy">     -1.53854445 </i>
   </energy>
  </scstep>
  <scstep>
   <time name="total">    1.10    1.10</time>
   <energy>
    <i name="e_fr_energy">     -1.53860934 </i>
    <i name="e_wo_entrp">     -1.53860279 </i>
    <i name="e_0_energy">     -1.53860606 </i>
   </energy>
  </scstep>
  <scstep>
   <time name="total">    1.19    1.19</time>
   <energy>
    <i name="alphaZ">      1.93015695 </i>
    <i name="ewald">   -459.63540012 </i>
    <i name="hartreedc">  -1481.36821309 </i>
    <i name="XCdc">     60.00155055 </i>
    <i name="pawpsdc">   1872.68108098 </i>
    <i name="pawaedc">  -1871.17642720 </i>
    <i name="eentropy">     -0.00000463 </i>
    <i name="bandstr">   -350.44121392 </i>
    <i name="atom">   2226.46981941 </i>
    <i name="e_fr_energy">     -1.53865298 </i>
    <i name="e_wo_entrp">     -1.53864835 </i>
    <i name="e_0_energy">     -1.53865067 </i>
   </energy>
  </scstep>
  <structure>
   <crystal>
    <varray name="basis" >
     <v>      10.00000000       0.00000000       0.00000000 </v>
     <v>       0.00000000      10.00000000       0.00000000 </v>
     <v>       0.00000000       0.00000000      10.00000000 </v>
    </varray>
    <i name="volume">   1000.00000000 </i>
    <varray name="rec_basis" >
     <v>       0.10000000       0.00000000       0.00000000 </v>
     <v>       0.00000000       0.10000000       0.00000000 </v>
     <v>       0.00000000       0.00000000       0.10000000 </v>
    </varray>
   </crystal>
   <varray name="positions" >
    <v>       0.50000000       0.50000000       0.50000000 </v>
   </varray>
  </structure>
  <varray name="forces" >
   <v>       0.00000000       0.00000000       0.00000000 </v>
  </varray>
  <varray name="stress" >
   <v>      -0.06322847      -0.00000000       0.00000000 </v>
   <v>       0.00000000      -0.06322847       0.00000000 </v>
   <v>      -0.00000000      -0.00000000      -0.06322847 </v>
  </varray>
  <energy>
   <i name="e_fr_energy">     -1.53865298 </i>
   <i name="e_wo_entrp">     -1.53865067 </i>
   <i name="e_0_energy">     -0.00000463 </i>
  </energy>
  <time name="totalsc">   46.21   51.42</time>
  <eigenvalues>
   <array>
    <dimension dim="1">band</dimension>
    <dimension dim="2">kpoint</dimension>
    <dimension dim="3">spin</dimension>
    <field>eigene</field>
    <field>occ</field>
    <set>
     <set comment="spin 1">
      <set comment="kpoint 1">
       <r>  -50.6781    1.0000 </r>
       <r>  -50.6781    1.0000 </r>
       <r>  -50.6781    1.0000 </r>
       <r>   -6.7525    1.0000 </r>
       <r>   -6.7525    1.0000 </r>
       <r>   -5.9474    1.0000 </r>
       <r>   -5.9474    1.0000 </r>
       <r>   -5.9474    1.0000 </r>
       <r>   -4.5027    1.0000 </r>
       <r>   -0.7936    0.0000 </r>
       <r>   -0.7936    0.0000 </r>
       <r>   -0.7935    0.0000 </r>
       <r>   -0.2052    0.0000 </r>
       <r>    0.8496    0.0000 </r>
       <r>    0.8497    0.0000 </r>
       <r>    1.6160    0.0000 </r>
       <r>    1.6160    0.0000 </r>
       <r>    1.6161    0.0000 </r>
       <r>    1.7601    0.0000 </r>
       <r>    2.0145    0.0000 </r>
       <r>    2.0145    0.0000 </r>
       <r>    2.0145    0.0000 </r>
       <r>    2.4355    0.0000 </r>
       <r>    2.4356    0.0000 </r>
       <r>    2.4357    0.0000 </r>
       <r>    2.5050    0.0000 </r>
       <r>    2.5051    0.0000 </r>
       <r>    3.5637    0.0000 </r>
       <r>    3.5638    0.0000 </r>
       <r>    3.5670    0.0000 </r>
       <r>    3.6385    0.0000 </r>
       <r>    3.7968    0.0000 </r>
       <r>    3.8083    0.0000 </r>
       <r>    3.8084    0.0000 </r>
       <r>    3.8088    0.0000 </r>
       <r>    4.5912    0.0000 </r>
      </set>
     </set>
     <set comment="spin 2">
      <set comment="kpoint 1">
       <r>  -49.1954    1.0000 </r>
       <r>  -49.1953    1.0000 </r>
       <r>  -49.1953    1.0000 </r>
       <r>   -4.9903    1.0000 </r>
       <r>   -4.9903    1.0000 </r>
       <r>   -4.9900    1.0000 </r>
       <r>   -4.1891    0.0000 </r>
       <r>   -4.1888    0.0000 </r>
       <r>   -3.3074    0.0000 </r>
       <r>    0.0912    0.0000 </r>
       <r>    0.0912    0.0000 </r>
       <r>    0.0912    0.0000 </r>
       <r>    0.2960    0.0000 </r>
       <r>    1.4609    0.0000 </r>
       <r>    1.4609    0.0000 </r>
       <r>    2.0987    0.0000 </r>
       <r>    2.0988    0.0000 </r>
       <r>    2.0988    0.0000 </r>
       <r>    2.2021    0.0000 </r>
       <r>    2.5860    0.0000 </r>
       <r>    2.5860    0.0000 </r>
       <r>    2.5861    0.0000 </r>
       <r>    2.9516    0.0000 </r>
       <r>    2.9516    0.0000 </r>
       <r>    2.9517    0.0000 </r>
       <r>    3.0062    0.0000 </r>
       <r>    3.0063    0.0000 </r>
       <r>    4.0229    0.0000 </r>
       <r>    4.0236    0.0000 </r>
       <r>    4.0655    0.0000 </r>
       <r>    4.1654    0.0000 </r>
       <r>    4.1764    0.0000 </r>
       <r>    4.2103    0.0000 </r>
       <r>    4.2464    0.0000 </r>
       <r>    4.2465    0.0000 </r>
       <r>    5.4641    0.0000 </r>
      </set>
     </set>
    </set>
   </array>
  </eigenvalues>
  <separator name="orbital magnetization" >
   <v name="MAGDIPOLOUT">      0.00000000      0.00000000      0.00000000</v>
  </separator>
  <dos>
   <i name="efermi">     -4.34846747 </i>
   <total>
    <array>
     <dimension dim="1">gridpoints</dimension>
     <dimension dim="2">spin</dimension>
     <field>energy</field>
     <field>total</field>
     <field>integrated</field>
     <set>
      <set comment="spin 1">
       <r>   -53.4853     0.0000     0.0000 </r>
       <r>   -53.2794     0.0000     0.0000 </r>
       <r>   -53.0735     0.0000     0.0000 </r>
       <r>   -52.8677     0.0000     0.0000 </r>
       <r>   -52.6618     0.0000     0.0000 </r>
       <r>   -52.4560     0.0000     0.0000 </r>
       <r>   -52.2501     0.0000     0.0000 </r>
       <r>   -52.0443     0.0000     0.0000 </r>
       <r>   -51.8384     0.0000     0.0000 </r>
       <r>   -51.6326     0.0000     0.0000 </r>
       <r>   -51.4267     0.0000     0.0000 </r>
       <r>   -51.2209     0.0000     0.0000 </r>
       <r>   -51.0150     0.0000     0.0000 </r>
       <r>   -50.8091     0.0015     0.0003 </r>
       <r>   -50.6033    14.3223     2.9486 </r>
       <r>   -50.3974     0.2495     3.0000 </r>
       <r>   -50.1916     0.0000     3.0000 </r>
       <r>   -49.9857     0.0000     3.0000 </r>
       <r>   -49.7799     0.0000     3.0000 </r>
       <r>   -49.5740     0.0000     3.0000 </r>
       <r>   -49.3682     0.0000     3.0000 </r>
       <r>   -49.1623     0.0000     3.0000 </r>
       <r>   -48.9564     0.0000     3.0000 </r>
       <r>   -48.7506     0.0000     3.0000 </r>
       <r>   -48.5447     0.0000     3.0000 </r>
       <r>   -48.3389     0.0000     3.0000 </r>
       <r>   -48.1330     0.0000     3.0000 </r>
       <r>   -47.9272     0.0000     3.0000 </r>
       <r>   -47.7213     0.0000     3.0000 </r>
       <r>   -47.5155     0.0000     3.0000 </r>
       <r>   -47.3096     0.0000     3.0000 </r>
       <r>   -47.1038     0.0000     3.0000 </r>
       <r>   -46.8979     0.0000     3.0000 </r>
       <r>   -46.6920     0.0000     3.0000 </r>
       <r>   -46.4862     0.0000     3.0000 </r>
       <r>   -46.2803     0.0000     3.0000 </r>
       <r>   -46.0745     0.0000     3.0000 </r>
       <r>   -45.8686     0.0000     3.0000 </r>
       <r>   -45.6628     0.0000     3.0000 </r>
       <r>   -45.4569     0.0000     3.0000 </r>
       <r>   -45.2511     0.0000     3.0000 </r>
       <r>   -45.0452     0.0000     3.0000 </r>
       <r>   -44.8394     0.0000     3.0000 </r>
       <r>   -44.6335     0.0000     3.0000 </r>
       <r>   -44.4276     0.0000     3.0000 </r>
       <r>   -44.2218     0.0000     3.0000 </r>
       <r>   -44.0159     0.0000     3.0000 </r>
       <r>   -43.8101     0.0000     3.0000 </r>
       <r>   -43.6042     0.0000     3.0000 </r>
       <r>   -43.3984     0.0000     3.0000 </r>
       <r>   -43.1925     0.0000     3.0000 </r>
       <r>   -42.9867     0.0000     3.0000 </r>
       <r>   -42.7808     0.0000     3.0000 </r>
       <r>   -42.5750     0.0000     3.0000 </r>
       <r>   -42.3691     0.0000     3.0000 </r>
       <r>   -42.1632     0.0000     3.0000 </r>
       <r>   -41.9574     0.0000     3.0000 </r>
       <r>   -41.7515     0.0000     3.0000 </r>
       <r>   -41.5457     0.0000     3.0000 </r>
       <r>   -41.3398     0.0000     3.0000 </r>
       <r>   -41.1340     0.0000     3.0000 </r>
       <r>   -40.9281     0.0000     3.0000 </r>
       <r>   -40.7223     0.0000     3.0000 </r>
       <r>   -40.5164     0.0000     3.0000 </r>
       <r>   -40.3106     0.0000     3.0000 </r>
       <r>   -40.1047     0.0000     3.0000 </r>
       <r>   -39.8988     0.0000     3.0000 </r>
       <r>   -39.6930     0.0000     3.0000 </r>
       <r>   -39.4871     0.0000     3.0000 </r>
       <r>   -39.2813     0.0000     3.0000 </r>
       <r>   -39.0754     0.0000     3.0000 </r>
       <r>   -38.8696     0.0000     3.0000 </r>
       <r>   -38.6637     0.0000     3.0000 </r>
       <r>   -38.4579     0.0000     3.0000 </r>
       <r>   -38.2520     0.0000     3.0000 </r>
       <r>   -38.0461     0.0000     3.0000 </r>
       <r>   -37.8403     0.0000     3.0000 </r>
       <r>   -37.6344     0.0000     3.0000 </r>
       <r>   -37.4286     0.0000     3.0000 </r>
       <r>   -37.2227     0.0000     3.0000 </r>
       <r>   -37.0169     0.0000     3.0000 </r>
       <r>   -36.8110     0.0000     3.0000 </r>
       <r>   -36.6052     0.0000     3.0000 </r>
       <r>   -36.3993     0.0000     3.0000 </r>
       <r>   -36.1935     0.0000     3.0000 </r>
       <r>   -35.9876     0.0000     3.0000 </r>
       <r>   -35.7817     0.0000     3.0000 </r>
       <r>   -35.5759     0.0000     3.0000 </r>
       <r>   -35.3700     0.0000     3.0000 </r>
       <r>   -35.1642     0.0000     3.0000 </r>
       <r>   -34.9583     0.0000     3.0000 </r>
       <r>   -34.7525     0.0000     3.0000 </r>
       <r>   -34.5466     0.0000     3.0000 </r>
       <r>   -34.3408     0.0000     3.0000 </r>
       <r>   -34.1349     0.0000     3.0000 </r>
       <r>   -33.9291     0.0000     3.0000 </r>
       <r>   -33.7232     0.0000     3.0000 </r>
       <r>   -33.5173     0.0000     3.0000 </r>
       <r>   -33.3115     0.0000     3.0000 </r>
       <r>   -33.1056     0.0000     3.0000 </r>
       <r>   -32.8998     0.0000     3.0000 </r>
       <r>   -32.6939     0.0000     3.0000 </r>
       <r>   -32.4881     0.0000     3.0000 </r>
       <r>   -32.2822     0.0000     3.0000 </r>
       <r>   -32.0764     0.0000     3.0000 </r>
       <r>   -31.8705     0.0000     3.0000 </r>
       <r>   -31.6647     0.0000     3.0000 </r>
       <r>   -31.4588     0.0000     3.0000 </r>
       <r>   -31.2529     0.0000     3.0000 </r>
       <r>   -31.0471     0.0000     3.0000 </r>
       <r>   -30.8412     0.0000     3.0000 </r>
       <r>   -30.6354     0.0000     3.0000 </r>
       <r>   -30.4295     0.0000     3.0000 </r>
       <r>   -30.2237     0.0000     3.0000 </r>
       <r>   -30.0178     0.0000     3.0000 </r>
       <r>   -29.8120     0.0000     3.0000 </r>
       <r>   -29.6061     0.0000     3.0000 </r>
       <r>   -29.4002     0.0000     3.0000 </r>
       <r>   -29.1944     0.0000     3.0000 </r>
       <r>   -28.9885     0.0000     3.0000 </r>
       <r>   -28.7827     0.0000     3.0000 </r>
       <r>   -28.5768     0.0000     3.0000 </r>
       <r>   -28.3710     0.0000     3.0000 </r>
       <r>   -28.1651     0.0000     3.0000 </r>
       <r>   -27.9593     0.0000     3.0000 </r>
       <r>   -27.7534     0.0000     3.0000 </r>
       <r>   -27.5476     0.0000     3.0000 </r>
       <r>   -27.3417     0.0000     3.0000 </r>
       <r>   -27.1358     0.0000     3.0000 </r>
       <r>   -26.9300     0.0000     3.0000 </r>
       <r>   -26.7241     0.0000     3.0000 </r>
       <r>   -26.5183     0.0000     3.0000 </r>
       <r>   -26.3124     0.0000     3.0000 </r>
       <r>   -26.1066     0.0000     3.0000 </r>
       <r>   -25.9007     0.0000     3.0000 </r>
       <r>   -25.6949     0.0000     3.0000 </r>
       <r>   -25.4890     0.0000     3.0000 </r>
       <r>   -25.2832     0.0000     3.0000 </r>
       <r>   -25.0773     0.0000     3.0000 </r>
       <r>   -24.8714     0.0000     3.0000 </r>
       <r>   -24.6656     0.0000     3.0000 </r>
       <r>   -24.4597     0.0000     3.0000 </r>
       <r>   -24.2539     0.0000     3.0000 </r>
       <r>   -24.0480     0.0000     3.0000 </r>
       <r>   -23.8422     0.0000     3.0000 </r>
       <r>   -23.6363     0.0000     3.0000 </r>
       <r>   -23.4305     0.0000     3.0000 </r>
       <r>   -23.2246     0.0000     3.0000 </r>
       <r>   -23.0188     0.0000     3.0000 </r>
       <r>   -22.8129     0.0000     3.0000 </r>
       <r>   -22.6070     0.0000     3.0000 </r>
       <r>   -22.4012     0.0000     3.0000 </r>
       <r>   -22.1953     0.0000     3.0000 </r>
       <r>   -21.9895     0.0000     3.0000 </r>
       <r>   -21.7836     0.0000     3.0000 </r>
       <r>   -21.5778     0.0000     3.0000 </r>
       <r>   -21.3719     0.0000     3.0000 </r>
       <r>   -21.1661     0.0000     3.0000 </r>
       <r>   -20.9602     0.0000     3.0000 </r>
       <r>   -20.7543     0.0000     3.0000 </r>
       <r>   -20.5485     0.0000     3.0000 </r>
       <r>   -20.3426     0.0000     3.0000 </r>
       <r>   -20.1368     0.0000     3.0000 </r>
       <r>   -19.9309     0.0000     3.0000 </r>
       <r>   -19.7251     0.0000     3.0000 </r>
       <r>   -19.5192     0.0000     3.0000 </r>
       <r>   -19.3134     0.0000     3.0000 </r>
       <r>   -19.1075     0.0000     3.0000 </r>
       <r>   -18.9017     0.0000     3.0000 </r>
       <r>   -18.6958     0.0000     3.0000 </r>
       <r>   -18.4899     0.0000     3.0000 </r>
       <r>   -18.2841     0.0000     3.0000 </r>
       <r>   -18.0782     0.0000     3.0000 </r>
       <r>   -17.8724     0.0000     3.0000 </r>
       <r>   -17.6665     0.0000     3.0000 </r>
       <r>   -17.4607     0.0000     3.0000 </r>
       <r>   -17.2548     0.0000     3.0000 </r>
       <r>   -17.0490     0.0000     3.0000 </r>
       <r>   -16.8431     0.0000     3.0000 </r>
       <r>   -16.6373     0.0000     3.0000 </r>
       <r>   -16.4314     0.0000     3.0000 </r>
       <r>   -16.2255     0.0000     3.0000 </r>
       <r>   -16.0197     0.0000     3.0000 </r>
       <r>   -15.8138     0.0000     3.0000 </r>
       <r>   -15.6080     0.0000     3.0000 </r>
       <r>   -15.4021     0.0000     3.0000 </r>
       <r>   -15.1963     0.0000     3.0000 </r>
       <r>   -14.9904     0.0000     3.0000 </r>
       <r>   -14.7846     0.0000     3.0000 </r>
       <r>   -14.5787     0.0000     3.0000 </r>
       <r>   -14.3729     0.0000     3.0000 </r>
       <r>   -14.1670     0.0000     3.0000 </r>
       <r>   -13.9611     0.0000     3.0000 </r>
       <r>   -13.7553     0.0000     3.0000 </r>
       <r>   -13.5494     0.0000     3.0000 </r>
       <r>   -13.3436     0.0000     3.0000 </r>
       <r>   -13.1377     0.0000     3.0000 </r>
       <r>   -12.9319     0.0000     3.0000 </r>
       <r>   -12.7260     0.0000     3.0000 </r>
       <r>   -12.5202     0.0000     3.0000 </r>
       <r>   -12.3143     0.0000     3.0000 </r>
       <r>   -12.1085     0.0000     3.0000 </r>
       <r>   -11.9026     0.0000     3.0000 </r>
       <r>   -11.6967     0.0000     3.0000 </r>
       <r>   -11.4909     0.0000     3.0000 </r>
       <r>   -11.2850     0.0000     3.0000 </r>
       <r>   -11.0792     0.0000     3.0000 </r>
       <r>   -10.8733     0.0000     3.0000 </r>
       <r>   -10.6675     0.0000     3.0000 </r>
       <r>   -10.4616     0.0000     3.0000 </r>
       <r>   -10.2558     0.0000     3.0000 </r>
       <r>   -10.0499     0.0000     3.0000 </r>
       <r>    -9.8440     0.0000     3.0000 </r>
       <r>    -9.6382     0.0000     3.0000 </r>
       <r>    -9.4323     0.0000     3.0000 </r>
       <r>    -9.2265     0.0000     3.0000 </r>
       <r>    -9.0206     0.0000     3.0000 </r>
       <r>    -8.8148     0.0000     3.0000 </r>
       <r>    -8.6089     0.0000     3.0000 </r>
       <r>    -8.4031     0.0000     3.0000 </r>
       <r>    -8.1972     0.0000     3.0000 </r>
       <r>    -7.9914     0.0000     3.0000 </r>
       <r>    -7.7855     0.0000     3.0000 </r>
       <r>    -7.5796     0.0000     3.0000 </r>
       <r>    -7.3738     0.0000     3.0000 </r>
       <r>    -7.1679     0.0000     3.0000 </r>
       <r>    -6.9621     0.0000     3.0000 </r>
       <r>    -6.7562     4.4517     3.9164 </r>
       <r>    -6.5504     5.2639     5.0000 </r>
       <r>    -6.3445     0.0000     5.0000 </r>
       <r>    -6.1387     0.0000     5.0000 </r>
       <r>    -5.9328     9.6265     6.9817 </r>
       <r>    -5.7270     4.9468     8.0000 </r>
       <r>    -5.5211     0.0000     8.0000 </r>
       <r>    -5.3152     0.0000     8.0000 </r>
       <r>    -5.1094     0.0000     8.0000 </r>
       <r>    -4.9035     0.0000     8.0000 </r>
       <r>    -4.6977     0.0000     8.0000 </r>
       <r>    -4.4918     3.0164     8.6209 </r>
       <r>    -4.2860     1.8413     9.0000 </r>
       <r>    -4.0801     0.0000     9.0000 </r>
       <r>    -3.8743     0.0000     9.0000 </r>
       <r>    -3.6684     0.0000     9.0000 </r>
       <r>    -3.4626     0.0000     9.0000 </r>
       <r>    -3.2567     0.0000     9.0000 </r>
       <r>    -3.0508     0.0000     9.0000 </r>
       <r>    -2.8450     0.0000     9.0000 </r>
       <r>    -2.6391     0.0000     9.0000 </r>
       <r>    -2.4333     0.0000     9.0000 </r>
       <r>    -2.2274     0.0000     9.0000 </r>
       <r>    -2.0216     0.0000     9.0000 </r>
       <r>    -1.8157     0.0000     9.0000 </r>
       <r>    -1.6099     0.0000     9.0000 </r>
       <r>    -1.4040     0.0000     9.0000 </r>
       <r>    -1.1981     0.0000     9.0000 </r>
       <r>    -0.9923     0.0000     9.0000 </r>
       <r>    -0.7864     8.4532    10.7401 </r>
       <r>    -0.5806     6.1202    12.0000 </r>
       <r>    -0.3747     0.0000    12.0000 </r>
       <r>    -0.1689     4.1187    12.8478 </r>
       <r>     0.0370     0.7391    13.0000 </r>
       <r>     0.2428     0.0000    13.0000 </r>
       <r>     0.4487     0.0000    13.0000 </r>
       <r>     0.6545     0.0000    13.0000 </r>
       <r>     0.8604     6.0182    14.2389 </r>
       <r>     1.0663     3.6973    15.0000 </r>
       <r>     1.2721     0.0000    15.0000 </r>
       <r>     1.4780     0.0007    15.0001 </r>
       <r>     1.6838    14.2453    17.9326 </r>
       <r>     1.8897     5.1876    19.0005 </r>
       <r>     2.0955    14.4110    21.9671 </r>
       <r>     2.3014     0.1610    22.0002 </r>
       <r>     2.5072    19.3577    25.9851 </r>
       <r>     2.7131     4.9302    27.0000 </r>
       <r>     2.9189     0.0000    27.0000 </r>
       <r>     3.1248     0.0000    27.0000 </r>
       <r>     3.3307     0.0000    27.0000 </r>
       <r>     3.5365     3.0979    27.6377 </r>
       <r>     3.7424    17.0732    31.1523 </r>
       <r>     3.9482    18.6907    34.9999 </r>
       <r>     4.1541     0.0006    35.0000 </r>
       <r>     4.3599     0.0000    35.0000 </r>
       <r>     4.5658     1.1455    35.2358 </r>
       <r>     4.7716     3.7123    36.0000 </r>
       <r>     4.9775     0.0000    36.0000 </r>
       <r>     5.1833     0.0000    36.0000 </r>
       <r>     5.3892     0.0000    36.0000 </r>
       <r>     5.5951     0.0000    36.0000 </r>
       <r>     5.8009     0.0000    36.0000 </r>
       <r>     6.0068     0.0000    36.0000 </r>
       <r>     6.2126     0.0000    36.0000 </r>
       <r>     6.4185     0.0000    36.0000 </r>
       <r>     6.6243     0.0000    36.0000 </r>
       <r>     6.8302     0.0000    36.0000 </r>
       <r>     7.0360     0.0000    36.0000 </r>
       <r>     7.2419     0.0000    36.0000 </r>
       <r>     7.4477     0.0000    36.0000 </r>
       <r>     7.6536     0.0000    36.0000 </r>
       <r>     7.8595     0.0000    36.0000 </r>
       <r>     8.0653     0.0000    36.0000 </r>
       <r>     8.2712     0.0000    36.0000 </r>
      </set>
      <set comment="spin 2">
       <r>   -53.4853     0.0000     0.0000 </r>
       <r>   -53.2794     0.0000     0.0000 </r>
       <r>   -53.0735     0.0000     0.0000 </r>
       <r>   -52.8677     0.0000     0.0000 </r>
       <r>   -52.6618     0.0000     0.0000 </r>
       <r>   -52.4560     0.0000     0.0000 </r>
       <r>   -52.2501     0.0000     0.0000 </r>
       <r>   -52.0443     0.0000     0.0000 </r>
       <r>   -51.8384     0.0000     0.0000 </r>
       <r>   -51.6326     0.0000     0.0000 </r>
       <r>   -51.4267     0.0000     0.0000 </r>
       <r>   -51.2209     0.0000     0.0000 </r>
       <r>   -51.0150     0.0000     0.0000 </r>
       <r>   -50.8091     0.0000     0.0000 </r>
       <r>   -50.6033     0.0000     0.0000 </r>
       <r>   -50.3974     0.0000     0.0000 </r>
       <r>   -50.1916     0.0000     0.0000 </r>
       <r>   -49.9857     0.0000     0.0000 </r>
       <r>   -49.7799     0.0000     0.0000 </r>
       <r>   -49.5740     0.0000     0.0000 </r>
       <r>   -49.3682     0.0000     0.0000 </r>
       <r>   -49.1623    12.0236     2.4751 </r>
       <r>   -48.9564     2.5498     3.0000 </r>
       <r>   -48.7506     0.0000     3.0000 </r>
       <r>   -48.5447     0.0000     3.0000 </r>
       <r>   -48.3389     0.0000     3.0000 </r>
       <r>   -48.1330     0.0000     3.0000 </r>
       <r>   -47.9272     0.0000     3.0000 </r>
       <r>   -47.7213     0.0000     3.0000 </r>
       <r>   -47.5155     0.0000     3.0000 </r>
       <r>   -47.3096     0.0000     3.0000 </r>
       <r>   -47.1038     0.0000     3.0000 </r>
       <r>   -46.8979     0.0000     3.0000 </r>
       <r>   -46.6920     0.0000     3.0000 </r>
       <r>   -46.4862     0.0000     3.0000 </r>
       <r>   -46.2803     0.0000     3.0000 </r>
       <r>   -46.0745     0.0000     3.0000 </r>
       <r>   -45.8686     0.0000     3.0000 </r>
       <r>   -45.6628     0.0000     3.0000 </r>
       <r>   -45.4569     0.0000     3.0000 </r>
       <r>   -45.2511     0.0000     3.0000 </r>
       <r>   -45.0452     0.0000     3.0000 </r>
       <r>   -44.8394     0.0000     3.0000 </r>
       <r>   -44.6335     0.0000     3.0000 </r>
       <r>   -44.4276     0.0000     3.0000 </r>
       <r>   -44.2218     0.0000     3.0000 </r>
       <r>   -44.0159     0.0000     3.0000 </r>
       <r>   -43.8101     0.0000     3.0000 </r>
       <r>   -43.6042     0.0000     3.0000 </r>
       <r>   -43.3984     0.0000     3.0000 </r>
       <r>   -43.1925     0.0000     3.0000 </r>
       <r>   -42.9867     0.0000     3.0000 </r>
       <r>   -42.7808     0.0000     3.0000 </r>
       <r>   -42.5750     0.0000     3.0000 </r>
       <r>   -42.3691     0.0000     3.0000 </r>
       <r>   -42.1632     0.0000     3.0000 </r>
       <r>   -41.9574     0.0000     3.0000 </r>
       <r>   -41.7515     0.0000     3.0000 </r>
       <r>   -41.5457     0.0000     3.0000 </r>
       <r>   -41.3398     0.0000     3.0000 </r>
       <r>   -41.1340     0.0000     3.0000 </r>
       <r>   -40.9281     0.0000     3.0000 </r>
       <r>   -40.7223     0.0000     3.0000 </r>
       <r>   -40.5164     0.0000     3.0000 </r>
       <r>   -40.3106     0.0000     3.0000 </r>
       <r>   -40.1047     0.0000     3.0000 </r>
       <r>   -39.8988     0.0000     3.0000 </r>
       <r>   -39.6930     0.0000     3.0000 </r>
       <r>   -39.4871     0.0000     3.0000 </r>
       <r>   -39.2813     0.0000     3.0000 </r>
       <r>   -39.0754     0.0000     3.0000 </r>
       <r>   -38.8696     0.0000     3.0000 </r>
       <r>   -38.6637     0.0000     3.0000 </r>
       <r>   -38.4579     0.0000     3.0000 </r>
       <r>   -38.2520     0.0000     3.0000 </r>
       <r>   -38.0461     0.0000     3.0000 </r>
       <r>   -37.8403     0.0000     3.0000 </r>
       <r>   -37.6344     0.0000     3.0000 </r>
       <r>   -37.4286     0.0000     3.0000 </r>
       <r>   -37.2227     0.0000     3.0000 </r>
       <r>   -37.0169     0.0000     3.0000 </r>
       <r>   -36.8110     0.0000     3.0000 </r>
       <r>   -36.6052     0.0000     3.0000 </r>
       <r>   -36.3993     0.0000     3.0000 </r>
       <r>   -36.1935     0.0000     3.0000 </r>
       <r>   -35.9876     0.0000     3.0000 </r>
       <r>   -35.7817     0.0000     3.0000 </r>
       <r>   -35.5759     0.0000     3.0000 </r>
       <r>   -35.3700     0.0000     3.0000 </r>
       <r>   -35.1642     0.0000     3.0000 </r>
       <r>   -34.9583     0.0000     3.0000 </r>
       <r>   -34.7525     0.0000     3.0000 </r>
       <r>   -34.5466     0.0000     3.0000 </r>
       <r>   -34.3408     0.0000     3.0000 </r>
       <r>   -34.1349     0.0000     3.0000 </r>
       <r>   -33.9291     0.0000     3.0000 </r>
       <r>   -33.7232     0.0000     3.0000 </r>
       <r>   -33.5173     0.0000     3.0000 </r>
       <r>   -33.3115     0.0000     3.0000 </r>
       <r>   -33.1056     0.0000     3.0000 </r>
       <r>   -32.8998     0.0000     3.0000 </r>
       <r>   -32.6939     0.0000     3.0000 </r>
       <r>   -32.4881     0.0000     3.0000 </r>
       <r>   -32.2822     0.0000     3.0000 </r>
       <r>   -32.0764     0.0000     3.0000 </r>
       <r>   -31.8705     0.0000     3.0000 </r>
       <r>   -31.6647     0.0000     3.0000 </r>
       <r>   -31.4588     0.0000     3.0000 </r>
       <r>   -31.2529     0.0000     3.0000 </r>
       <r>   -31.0471     0.0000     3.0000 </r>
       <r>   -30.8412     0.0000     3.0000 </r>
       <r>   -30.6354     0.0000     3.0000 </r>
       <r>   -30.4295     0.0000     3.0000 </r>
       <r>   -30.2237     0.0000     3.0000 </r>
       <r>   -30.0178     0.0000     3.0000 </r>
       <r>   -29.8120     0.0000     3.0000 </r>
       <r>   -29.6061     0.0000     3.0000 </r>
       <r>   -29.4002     0.0000     3.0000 </r>
       <r>   -29.1944     0.0000     3.0000 </r>
       <r>   -28.9885     0.0000     3.0000 </r>
       <r>   -28.7827     0.0000     3.0000 </r>
       <r>   -28.5768     0.0000     3.0000 </r>
       <r>   -28.3710     0.0000     3.0000 </r>
       <r>   -28.1651     0.0000     3.0000 </r>
       <r>   -27.9593     0.0000     3.0000 </r>
       <r>   -27.7534     0.0000     3.0000 </r>
       <r>   -27.5476     0.0000     3.0000 </r>
       <r>   -27.3417     0.0000     3.0000 </r>
       <r>   -27.1358     0.0000     3.0000 </r>
       <r>   -26.9300     0.0000     3.0000 </r>
       <r>   -26.7241     0.0000     3.0000 </r>
       <r>   -26.5183     0.0000     3.0000 </r>
       <r>   -26.3124     0.0000     3.0000 </r>
       <r>   -26.1066     0.0000     3.0000 </r>
       <r>   -25.9007     0.0000     3.0000 </r>
       <r>   -25.6949     0.0000     3.0000 </r>
       <r>   -25.4890     0.0000     3.0000 </r>
       <r>   -25.2832     0.0000     3.0000 </r>
       <r>   -25.0773     0.0000     3.0000 </r>
       <r>   -24.8714     0.0000     3.0000 </r>
       <r>   -24.6656     0.0000     3.0000 </r>
       <r>   -24.4597     0.0000     3.0000 </r>
       <r>   -24.2539     0.0000     3.0000 </r>
       <r>   -24.0480     0.0000     3.0000 </r>
       <r>   -23.8422     0.0000     3.0000 </r>
       <r>   -23.6363     0.0000     3.0000 </r>
       <r>   -23.4305     0.0000     3.0000 </r>
       <r>   -23.2246     0.0000     3.0000 </r>
       <r>   -23.0188     0.0000     3.0000 </r>
       <r>   -22.8129     0.0000     3.0000 </r>
       <r>   -22.6070     0.0000     3.0000 </r>
       <r>   -22.4012     0.0000     3.0000 </r>
       <r>   -22.1953     0.0000     3.0000 </r>
       <r>   -21.9895     0.0000     3.0000 </r>
       <r>   -21.7836     0.0000     3.0000 </r>
       <r>   -21.5778     0.0000     3.0000 </r>
       <r>   -21.3719     0.0000     3.0000 </r>
       <r>   -21.1661     0.0000     3.0000 </r>
       <r>   -20.9602     0.0000     3.0000 </r>
       <r>   -20.7543     0.0000     3.0000 </r>
       <r>   -20.5485     0.0000     3.0000 </r>
       <r>   -20.3426     0.0000     3.0000 </r>
       <r>   -20.1368     0.0000     3.0000 </r>
       <r>   -19.9309     0.0000     3.0000 </r>
       <r>   -19.7251     0.0000     3.0000 </r>
       <r>   -19.5192     0.0000     3.0000 </r>
       <r>   -19.3134     0.0000     3.0000 </r>
       <r>   -19.1075     0.0000     3.0000 </r>
       <r>   -18.9017     0.0000     3.0000 </r>
       <r>   -18.6958     0.0000     3.0000 </r>
       <r>   -18.4899     0.0000     3.0000 </r>
       <r>   -18.2841     0.0000     3.0000 </r>
       <r>   -18.0782     0.0000     3.0000 </r>
       <r>   -17.8724     0.0000     3.0000 </r>
       <r>   -17.6665     0.0000     3.0000 </r>
       <r>   -17.4607     0.0000     3.0000 </r>
       <r>   -17.2548     0.0000     3.0000 </r>
       <r>   -17.0490     0.0000     3.0000 </r>
       <r>   -16.8431     0.0000     3.0000 </r>
       <r>   -16.6373     0.0000     3.0000 </r>
       <r>   -16.4314     0.0000     3.0000 </r>
       <r>   -16.2255     0.0000     3.0000 </r>
       <r>   -16.0197     0.0000     3.0000 </r>
       <r>   -15.8138     0.0000     3.0000 </r>
       <r>   -15.6080     0.0000     3.0000 </r>
       <r>   -15.4021     0.0000     3.0000 </r>
       <r>   -15.1963     0.0000     3.0000 </r>
       <r>   -14.9904     0.0000     3.0000 </r>
       <r>   -14.7846     0.0000     3.0000 </r>
       <r>   -14.5787     0.0000     3.0000 </r>
       <r>   -14.3729     0.0000     3.0000 </r>
       <r>   -14.1670     0.0000     3.0000 </r>
       <r>   -13.9611     0.0000     3.0000 </r>
       <r>   -13.7553     0.0000     3.0000 </r>
       <r>   -13.5494     0.0000     3.0000 </r>
       <r>   -13.3436     0.0000     3.0000 </r>
       <r>   -13.1377     0.0000     3.0000 </r>
       <r>   -12.9319     0.0000     3.0000 </r>
       <r>   -12.7260     0.0000     3.0000 </r>
       <r>   -12.5202     0.0000     3.0000 </r>
       <r>   -12.3143     0.0000     3.0000 </r>
       <r>   -12.1085     0.0000     3.0000 </r>
       <r>   -11.9026     0.0000     3.0000 </r>
       <r>   -11.6967     0.0000     3.0000 </r>
       <r>   -11.4909     0.0000     3.0000 </r>
       <r>   -11.2850     0.0000     3.0000 </r>
       <r>   -11.0792     0.0000     3.0000 </r>
       <r>   -10.8733     0.0000     3.0000 </r>
       <r>   -10.6675     0.0000     3.0000 </r>
       <r>   -10.4616     0.0000     3.0000 </r>
       <r>   -10.2558     0.0000     3.0000 </r>
       <r>   -10.0499     0.0000     3.0000 </r>
       <r>    -9.8440     0.0000     3.0000 </r>
       <r>    -9.6382     0.0000     3.0000 </r>
       <r>    -9.4323     0.0000     3.0000 </r>
       <r>    -9.2265     0.0000     3.0000 </r>
       <r>    -9.0206     0.0000     3.0000 </r>
       <r>    -8.8148     0.0000     3.0000 </r>
       <r>    -8.6089     0.0000     3.0000 </r>
       <r>    -8.4031     0.0000     3.0000 </r>
       <r>    -8.1972     0.0000     3.0000 </r>
       <r>    -7.9914     0.0000     3.0000 </r>
       <r>    -7.7855     0.0000     3.0000 </r>
       <r>    -7.5796     0.0000     3.0000 </r>
       <r>    -7.3738     0.0000     3.0000 </r>
       <r>    -7.1679     0.0000     3.0000 </r>
       <r>    -6.9621     0.0000     3.0000 </r>
       <r>    -6.7562     0.0000     3.0000 </r>
       <r>    -6.5504     0.0000     3.0000 </r>
       <r>    -6.3445     0.0000     3.0000 </r>
       <r>    -6.1387     0.0000     3.0000 </r>
       <r>    -5.9328     0.0000     3.0000 </r>
       <r>    -5.7270     0.0000     3.0000 </r>
       <r>    -5.5211     0.0000     3.0000 </r>
       <r>    -5.3152     0.0000     3.0000 </r>
       <r>    -5.1094     0.0055     3.0011 </r>
       <r>    -4.9035    14.4644     5.9787 </r>
       <r>    -4.6977     0.1035     6.0000 </r>
       <r>    -4.4918     0.0000     6.0000 </r>
       <r>    -4.2860     0.0295     6.0061 </r>
       <r>    -4.0801     9.6760     7.9979 </r>
       <r>    -3.8743     0.0101     8.0000 </r>
       <r>    -3.6684     0.0000     8.0000 </r>
       <r>    -3.4626     0.0000     8.0000 </r>
       <r>    -3.2567     4.4896     8.9242 </r>
       <r>    -3.0508     0.3681     9.0000 </r>
       <r>    -2.8450     0.0000     9.0000 </r>
       <r>    -2.6391     0.0000     9.0000 </r>
       <r>    -2.4333     0.0000     9.0000 </r>
       <r>    -2.2274     0.0000     9.0000 </r>
       <r>    -2.0216     0.0000     9.0000 </r>
       <r>    -1.8157     0.0000     9.0000 </r>
       <r>    -1.6099     0.0000     9.0000 </r>
       <r>    -1.4040     0.0000     9.0000 </r>
       <r>    -1.1981     0.0000     9.0000 </r>
       <r>    -0.9923     0.0000     9.0000 </r>
       <r>    -0.7864     0.0000     9.0000 </r>
       <r>    -0.5806     0.0000     9.0000 </r>
       <r>    -0.3747     0.0000     9.0000 </r>
       <r>    -0.1689     0.0000     9.0000 </r>
       <r>     0.0370     0.9112     9.1876 </r>
       <r>     0.2428    13.9847    12.0664 </r>
       <r>     0.4487     4.5352    13.0000 </r>
       <r>     0.6545     0.0000    13.0000 </r>
       <r>     0.8604     0.0000    13.0000 </r>
       <r>     1.0663     0.0000    13.0000 </r>
       <r>     1.2721     0.0000    13.0000 </r>
       <r>     1.4780     6.6551    14.3700 </r>
       <r>     1.6838     3.0605    15.0000 </r>
       <r>     1.8897     0.0000    15.0000 </r>
       <r>     2.0955     6.7631    16.3922 </r>
       <r>     2.3014    12.6560    18.9975 </r>
       <r>     2.5072     0.2002    19.0387 </r>
       <r>     2.7131    14.3829    21.9995 </r>
       <r>     2.9189     2.6554    22.5461 </r>
       <r>     3.1248    21.6320    26.9992 </r>
       <r>     3.3307     0.0039    27.0000 </r>
       <r>     3.5365     0.0000    27.0000 </r>
       <r>     3.7424     0.0000    27.0000 </r>
       <r>     3.9482     0.1668    27.0343 </r>
       <r>     4.1541    17.7927    30.6971 </r>
       <r>     4.3599    20.8963    34.9987 </r>
       <r>     4.5658     0.0065    35.0000 </r>
       <r>     4.7716     0.0000    35.0000 </r>
       <r>     4.9775     0.0000    35.0000 </r>
       <r>     5.1833     0.0000    35.0000 </r>
       <r>     5.3892     0.0832    35.0171 </r>
       <r>     5.5951     4.7741    35.9999 </r>
       <r>     5.8009     0.0005    36.0000 </r>
       <r>     6.0068     0.0000    36.0000 </r>
       <r>     6.2126     0.0000    36.0000 </r>
       <r>     6.4185     0.0000    36.0000 </r>
       <r>     6.6243     0.0000    36.0000 </r>
       <r>     6.8302     0.0000    36.0000 </r>
       <r>     7.0360     0.0000    36.0000 </r>
       <r>     7.2419     0.0000    36.0000 </r>
       <r>     7.4477     0.0000    36.0000 </r>
       <r>     7.6536     0.0000    36.0000 </r>
       <r>     7.8595     0.0000    36.0000 </r>
       <r>     8.0653     0.0000    36.0000 </r>
       <r>     8.2712     0.0000    36.0000 </r>
      </set>
     </set>
    </array>
   </total>
   <partial>
    <array>
     <dimension dim="1">gridpoints</dimension>
     <dimension dim="2">spin</dimension>
     <dimension dim="3">ion</dimension>
     <field>energy</field>
     <field>    s</field>
     <field>   py</field>
     <field>   pz</field>
     <field>   px</field>
     <field>  dxy</field>
     <field>  dyz</field>
     <field>  dz2</field>
     <field>  dxz</field>
     <field>x2-y2</field>
     <set>
      <set comment="ion 1">
       <set comment="spin 1">
        <r>   -53.4853     0.0000     0.0000     0.0000     0.0000     0.0000     0.0000     0.0000     0.0000     0.0000 </r>
        <r>   -53.2794     0.0000     0.0000     0.0000     0.0000     0.0000     0.0000     0.0000     0.0000     0.0000 </r>
        <r>   -53.0735     0.0000     0.0000     0.0000     0.0000     0.0000     0.0000     0.0000     0.0000     0.0000 </r>
        <r>   -52.8677     0.0000     0.0000     0.0000     0.0000     0.0000     0.0000     0.0000     0.0000     0.0000 </r>
        <r>   -52.6618     0.0000     0.0000     0.0000     0.0000     0.0000     0.0000     0.0000     0.0000     0.0000 </r>
        <r>   -52.4560     0.0000     0.0000     0.0000     0.0000     0.0000     0.0000     0.0000     0.0000     0.0000 </r>
        <r>   -52.2501     0.0000     0.0000     0.0000     0.0000     0.0000     0.0000     0.0000     0.0000     0.0000 </r>
        <r>   -52.0443     0.0000     0.0000     0.0000     0.0000     0.0000     0.0000     0.0000     0.0000     0.0000 </r>
        <r>   -51.8384     0.0000     0.0000     0.0000     0.0000     0.0000     0.0000     0.0000     0.0000     0.0000 </r>
        <r>   -51.6326     0.0000     0.0000     0.0000     0.0000     0.0000     0.0000     0.0000     0.0000     0.0000 </r>
        <r>   -51.4267     0.0000     0.0000     0.0000     0.0000     0.0000     0.0000     0.0000     0.0000     0.0000 </r>
        <r>   -51.2209     0.0000     0.0000     0.0000     0.0000     0.0000     0.0000     0.0000     0.0000     0.0000 </r>
        <r>   -51.0150     0.0000     0.0000     0.0000     0.0000     0.0000     0.0000     0.0000     0.0000     0.0000 </r>
        <r>   -50.8091     0.0000     0.0005     0.0005     0.0005     0.0000     0.0000     0.0000     0.0000     0.0000 </r>
        <r>   -50.6033     0.0000     4.7567     4.7567     4.7567     0.0000     0.0000     0.0000     0.0000     0.0000 </r>
        <r>   -50.3974     0.0000     0.0829     0.0829     0.0829     0.0000     0.0000     0.0000     0.0000     0.0000 </r>
        <r>   -50.1916     0.0000     0.0000     0.0000     0.0000     0.0000     0.0000     0.0000     0.0000     0.0000 </r>
        <r>   -49.9857     0.0000     0.0000     0.0000     0.0000     0.0000     0.0000     0.0000     0.0000     0.0000 </r>
        <r>   -49.7799     0.0000     0.0000     0.0000     0.0000     0.0000     0.0000     0.0000     0.0000     0.0000 </r>
        <r>   -49.5740     0.0000     0.0000     0.0000     0.0000     0.0000     0.0000     0.0000     0.0000     0.0000 </r>
        <r>   -49.3682     0.0000     0.0000     0.0000     0.0000     0.0000     0.0000     0.0000     0.0000     0.0000 </r>
        <r>   -49.1623     0.0000     0.0000     0.0000     0.0000     0.0000     0.0000     0.0000     0.0000     0.0000 </r>
        <r>   -48.9564     0.0000     0.0000     0.0000     0.0000     0.0000     0.0000     0.0000     0.0000     0.0000 </r>
        <r>   -48.7506     0.0000     0.0000     0.0000     0.0000     0.0000     0.0000     0.0000     0.0000     0.0000 </r>
        <r>   -48.5447     0.0000     0.0000     0.0000     0.0000     0.0000     0.0000     0.0000     0.0000     0.0000 </r>
        <r>   -48.3389     0.0000     0.0000     0.0000     0.0000     0.0000     0.0000     0.0000     0.0000     0.0000 </r>
        <r>   -48.1330     0.0000     0.0000     0.0000     0.0000     0.0000     0.0000     0.0000     0.0000     0.0000 </r>
        <r>   -47.9272     0.0000     0.0000     0.0000     0.0000     0.0000     0.0000     0.0000     0.0000     0.0000 </r>
        <r>   -47.7213     0.0000     0.0000     0.0000     0.0000     0.0000     0.0000     0.0000     0.0000     0.0000 </r>
        <r>   -47.5155     0.0000     0.0000     0.0000     0.0000     0.0000     0.0000     0.0000     0.0000     0.0000 </r>
        <r>   -47.3096     0.0000     0.0000     0.0000     0.0000     0.0000     0.0000     0.0000     0.0000     0.0000 </r>
        <r>   -47.1038     0.0000     0.0000     0.0000     0.0000     0.0000     0.0000     0.0000     0.0000     0.0000 </r>
        <r>   -46.8979     0.0000     0.0000     0.0000     0.0000     0.0000     0.0000     0.0000     0.0000     0.0000 </r>
        <r>   -46.6920     0.0000     0.0000     0.0000     0.0000     0.0000     0.0000     0.0000     0.0000     0.0000 </r>
        <r>   -46.4862     0.0000     0.0000     0.0000     0.0000     0.0000     0.0000     0.0000     0.0000     0.0000 </r>
        <r>   -46.2803     0.0000     0.0000     0.0000     0.0000     0.0000     0.0000     0.0000     0.0000     0.0000 </r>
        <r>   -46.0745     0.0000     0.0000     0.0000     0.0000     0.0000     0.0000     0.0000     0.0000     0.0000 </r>
        <r>   -45.8686     0.0000     0.0000     0.0000     0.0000     0.0000     0.0000     0.0000     0.0000     0.0000 </r>
        <r>   -45.6628     0.0000     0.0000     0.0000     0.0000     0.0000     0.0000     0.0000     0.0000     0.0000 </r>
        <r>   -45.4569     0.0000     0.0000     0.0000     0.0000     0.0000     0.0000     0.0000     0.0000     0.0000 </r>
        <r>   -45.2511     0.0000     0.0000     0.0000     0.0000     0.0000     0.0000     0.0000     0.0000     0.0000 </r>
        <r>   -45.0452     0.0000     0.0000     0.0000     0.0000     0.0000     0.0000     0.0000     0.0000     0.0000 </r>
        <r>   -44.8394     0.0000     0.0000     0.0000     0.0000     0.0000     0.0000     0.0000     0.0000     0.0000 </r>
        <r>   -44.6335     0.0000     0.0000     0.0000     0.0000     0.0000     0.0000     0.0000     0.0000     0.0000 </r>
        <r>   -44.4276     0.0000     0.0000     0.0000     0.0000     0.0000     0.0000     0.0000     0.0000     0.0000 </r>
        <r>   -44.2218     0.0000     0.0000     0.0000     0.0000     0.0000     0.0000     0.0000     0.0000     0.0000 </r>
        <r>   -44.0159     0.0000     0.0000     0.0000     0.0000     0.0000     0.0000     0.0000     0.0000     0.0000 </r>
        <r>   -43.8101     0.0000     0.0000     0.0000     0.0000     0.0000     0.0000     0.0000     0.0000     0.0000 </r>
        <r>   -43.6042     0.0000     0.0000     0.0000     0.0000     0.0000     0.0000     0.0000     0.0000     0.0000 </r>
        <r>   -43.3984     0.0000     0.0000     0.0000     0.0000     0.0000     0.0000     0.0000     0.0000     0.0000 </r>
        <r>   -43.1925     0.0000     0.0000     0.0000     0.0000     0.0000     0.0000     0.0000     0.0000     0.0000 </r>
        <r>   -42.9867     0.0000     0.0000     0.0000     0.0000     0.0000     0.0000     0.0000     0.0000     0.0000 </r>
        <r>   -42.7808     0.0000     0.0000     0.0000     0.0000     0.0000     0.0000     0.0000     0.0000     0.0000 </r>
        <r>   -42.5750     0.0000     0.0000     0.0000     0.0000     0.0000     0.0000     0.0000     0.0000     0.0000 </r>
        <r>   -42.3691     0.0000     0.0000     0.0000     0.0000     0.0000     0.0000     0.0000     0.0000     0.0000 </r>
        <r>   -42.1632     0.0000     0.0000     0.0000     0.0000     0.0000     0.0000     0.0000     0.0000     0.0000 </r>
        <r>   -41.9574     0.0000     0.0000     0.0000     0.0000     0.0000     0.0000     0.0000     0.0000     0.0000 </r>
        <r>   -41.7515     0.0000     0.0000     0.0000     0.0000     0.0000     0.0000     0.0000     0.0000     0.0000 </r>
        <r>   -41.5457     0.0000     0.0000     0.0000     0.0000     0.0000     0.0000     0.0000     0.0000     0.0000 </r>
        <r>   -41.3398     0.0000     0.0000     0.0000     0.0000     0.0000     0.0000     0.0000     0.0000     0.0000 </r>
        <r>   -41.1340     0.0000     0.0000     0.0000     0.0000     0.0000     0.0000     0.0000     0.0000     0.0000 </r>
        <r>   -40.9281     0.0000     0.0000     0.0000     0.0000     0.0000     0.0000     0.0000     0.0000     0.0000 </r>
        <r>   -40.7223     0.0000     0.0000     0.0000     0.0000     0.0000     0.0000     0.0000     0.0000     0.0000 </r>
        <r>   -40.5164     0.0000     0.0000     0.0000     0.0000     0.0000     0.0000     0.0000     0.0000     0.0000 </r>
        <r>   -40.3106     0.0000     0.0000     0.0000     0.0000     0.0000     0.0000     0.0000     0.0000     0.0000 </r>
        <r>   -40.1047     0.0000     0.0000     0.0000     0.0000     0.0000     0.0000     0.0000     0.0000     0.0000 </r>
        <r>   -39.8988     0.0000     0.0000     0.0000     0.0000     0.0000     0.0000     0.0000     0.0000     0.0000 </r>
        <r>   -39.6930     0.0000     0.0000     0.0000     0.0000     0.0000     0.0000     0.0000     0.0000     0.0000 </r>
        <r>   -39.4871     0.0000     0.0000     0.0000     0.0000     0.0000     0.0000     0.0000     0.0000     0.0000 </r>
        <r>   -39.2813     0.0000     0.0000     0.0000     0.0000     0.0000     0.0000     0.0000     0.0000     0.0000 </r>
        <r>   -39.0754     0.0000     0.0000     0.0000     0.0000     0.0000     0.0000     0.0000     0.0000     0.0000 </r>
        <r>   -38.8696     0.0000     0.0000     0.0000     0.0000     0.0000     0.0000     0.0000     0.0000     0.0000 </r>
        <r>   -38.6637     0.0000     0.0000     0.0000     0.0000     0.0000     0.0000     0.0000     0.0000     0.0000 </r>
        <r>   -38.4579     0.0000     0.0000     0.0000     0.0000     0.0000     0.0000     0.0000     0.0000     0.0000 </r>
        <r>   -38.2520     0.0000     0.0000     0.0000     0.0000     0.0000     0.0000     0.0000     0.0000     0.0000 </r>
        <r>   -38.0461     0.0000     0.0000     0.0000     0.0000     0.0000     0.0000     0.0000     0.0000     0.0000 </r>
        <r>   -37.8403     0.0000     0.0000     0.0000     0.0000     0.0000     0.0000     0.0000     0.0000     0.0000 </r>
        <r>   -37.6344     0.0000     0.0000     0.0000     0.0000     0.0000     0.0000     0.0000     0.0000     0.0000 </r>
        <r>   -37.4286     0.0000     0.0000     0.0000     0.0000     0.0000     0.0000     0.0000     0.0000     0.0000 </r>
        <r>   -37.2227     0.0000     0.0000     0.0000     0.0000     0.0000     0.0000     0.0000     0.0000     0.0000 </r>
        <r>   -37.0169     0.0000     0.0000     0.0000     0.0000     0.0000     0.0000     0.0000     0.0000     0.0000 </r>
        <r>   -36.8110     0.0000     0.0000     0.0000     0.0000     0.0000     0.0000     0.0000     0.0000     0.0000 </r>
        <r>   -36.6052     0.0000     0.0000     0.0000     0.0000     0.0000     0.0000     0.0000     0.0000     0.0000 </r>
        <r>   -36.3993     0.0000     0.0000     0.0000     0.0000     0.0000     0.0000     0.0000     0.0000     0.0000 </r>
        <r>   -36.1935     0.0000     0.0000     0.0000     0.0000     0.0000     0.0000     0.0000     0.0000     0.0000 </r>
        <r>   -35.9876     0.0000     0.0000     0.0000     0.0000     0.0000     0.0000     0.0000     0.0000     0.0000 </r>
        <r>   -35.7817     0.0000     0.0000     0.0000     0.0000     0.0000     0.0000     0.0000     0.0000     0.0000 </r>
        <r>   -35.5759     0.0000     0.0000     0.0000     0.0000     0.0000     0.0000     0.0000     0.0000     0.0000 </r>
        <r>   -35.3700     0.0000     0.0000     0.0000     0.0000     0.0000     0.0000     0.0000     0.0000     0.0000 </r>
        <r>   -35.1642     0.0000     0.0000     0.0000     0.0000     0.0000     0.0000     0.0000     0.0000     0.0000 </r>
        <r>   -34.9583     0.0000     0.0000     0.0000     0.0000     0.0000     0.0000     0.0000     0.0000     0.0000 </r>
        <r>   -34.7525     0.0000     0.0000     0.0000     0.0000     0.0000     0.0000     0.0000     0.0000     0.0000 </r>
        <r>   -34.5466     0.0000     0.0000     0.0000     0.0000     0.0000     0.0000     0.0000     0.0000     0.0000 </r>
        <r>   -34.3408     0.0000     0.0000     0.0000     0.0000     0.0000     0.0000     0.0000     0.0000     0.0000 </r>
        <r>   -34.1349     0.0000     0.0000     0.0000     0.0000     0.0000     0.0000     0.0000     0.0000     0.0000 </r>
        <r>   -33.9291     0.0000     0.0000     0.0000     0.0000     0.0000     0.0000     0.0000     0.0000     0.0000 </r>
        <r>   -33.7232     0.0000     0.0000     0.0000     0.0000     0.0000     0.0000     0.0000     0.0000     0.0000 </r>
        <r>   -33.5173     0.0000     0.0000     0.0000     0.0000     0.0000     0.0000     0.0000     0.0000     0.0000 </r>
        <r>   -33.3115     0.0000     0.0000     0.0000     0.0000     0.0000     0.0000     0.0000     0.0000     0.0000 </r>
        <r>   -33.1056     0.0000     0.0000     0.0000     0.0000     0.0000     0.0000     0.0000     0.0000     0.0000 </r>
        <r>   -32.8998     0.0000     0.0000     0.0000     0.0000     0.0000     0.0000     0.0000     0.0000     0.0000 </r>
        <r>   -32.6939     0.0000     0.0000     0.0000     0.0000     0.0000     0.0000     0.0000     0.0000     0.0000 </r>
        <r>   -32.4881     0.0000     0.0000     0.0000     0.0000     0.0000     0.0000     0.0000     0.0000     0.0000 </r>
        <r>   -32.2822     0.0000     0.0000     0.0000     0.0000     0.0000     0.0000     0.0000     0.0000     0.0000 </r>
        <r>   -32.0764     0.0000     0.0000     0.0000     0.0000     0.0000     0.0000     0.0000     0.0000     0.0000 </r>
        <r>   -31.8705     0.0000     0.0000     0.0000     0.0000     0.0000     0.0000     0.0000     0.0000     0.0000 </r>
        <r>   -31.6647     0.0000     0.0000     0.0000     0.0000     0.0000     0.0000     0.0000     0.0000     0.0000 </r>
        <r>   -31.4588     0.0000     0.0000     0.0000     0.0000     0.0000     0.0000     0.0000     0.0000     0.0000 </r>
        <r>   -31.2529     0.0000     0.0000     0.0000     0.0000     0.0000     0.0000     0.0000     0.0000     0.0000 </r>
        <r>   -31.0471     0.0000     0.0000     0.0000     0.0000     0.0000     0.0000     0.0000     0.0000     0.0000 </r>
        <r>   -30.8412     0.0000     0.0000     0.0000     0.0000     0.0000     0.0000     0.0000     0.0000     0.0000 </r>
        <r>   -30.6354     0.0000     0.0000     0.0000     0.0000     0.0000     0.0000     0.0000     0.0000     0.0000 </r>
        <r>   -30.4295     0.0000     0.0000     0.0000     0.0000     0.0000     0.0000     0.0000     0.0000     0.0000 </r>
        <r>   -30.2237     0.0000     0.0000     0.0000     0.0000     0.0000     0.0000     0.0000     0.0000     0.0000 </r>
        <r>   -30.0178     0.0000     0.0000     0.0000     0.0000     0.0000     0.0000     0.0000     0.0000     0.0000 </r>
        <r>   -29.8120     0.0000     0.0000     0.0000     0.0000     0.0000     0.0000     0.0000     0.0000     0.0000 </r>
        <r>   -29.6061     0.0000     0.0000     0.0000     0.0000     0.0000     0.0000     0.0000     0.0000     0.0000 </r>
        <r>   -29.4002     0.0000     0.0000     0.0000     0.0000     0.0000     0.0000     0.0000     0.0000     0.0000 </r>
        <r>   -29.1944     0.0000     0.0000     0.0000     0.0000     0.0000     0.0000     0.0000     0.0000     0.0000 </r>
        <r>   -28.9885     0.0000     0.0000     0.0000     0.0000     0.0000     0.0000     0.0000     0.0000     0.0000 </r>
        <r>   -28.7827     0.0000     0.0000     0.0000     0.0000     0.0000     0.0000     0.0000     0.0000     0.0000 </r>
        <r>   -28.5768     0.0000     0.0000     0.0000     0.0000     0.0000     0.0000     0.0000     0.0000     0.0000 </r>
        <r>   -28.3710     0.0000     0.0000     0.0000     0.0000     0.0000     0.0000     0.0000     0.0000     0.0000 </r>
        <r>   -28.1651     0.0000     0.0000     0.0000     0.0000     0.0000     0.0000     0.0000     0.0000     0.0000 </r>
        <r>   -27.9593     0.0000     0.0000     0.0000     0.0000     0.0000     0.0000     0.0000     0.0000     0.0000 </r>
        <r>   -27.7534     0.0000     0.0000     0.0000     0.0000     0.0000     0.0000     0.0000     0.0000     0.0000 </r>
        <r>   -27.5476     0.0000     0.0000     0.0000     0.0000     0.0000     0.0000     0.0000     0.0000     0.0000 </r>
        <r>   -27.3417     0.0000     0.0000     0.0000     0.0000     0.0000     0.0000     0.0000     0.0000     0.0000 </r>
        <r>   -27.1358     0.0000     0.0000     0.0000     0.0000     0.0000     0.0000     0.0000     0.0000     0.0000 </r>
        <r>   -26.9300     0.0000     0.0000     0.0000     0.0000     0.0000     0.0000     0.0000     0.0000     0.0000 </r>
        <r>   -26.7241     0.0000     0.0000     0.0000     0.0000     0.0000     0.0000     0.0000     0.0000     0.0000 </r>
        <r>   -26.5183     0.0000     0.0000     0.0000     0.0000     0.0000     0.0000     0.0000     0.0000     0.0000 </r>
        <r>   -26.3124     0.0000     0.0000     0.0000     0.0000     0.0000     0.0000     0.0000     0.0000     0.0000 </r>
        <r>   -26.1066     0.0000     0.0000     0.0000     0.0000     0.0000     0.0000     0.0000     0.0000     0.0000 </r>
        <r>   -25.9007     0.0000     0.0000     0.0000     0.0000     0.0000     0.0000     0.0000     0.0000     0.0000 </r>
        <r>   -25.6949     0.0000     0.0000     0.0000     0.0000     0.0000     0.0000     0.0000     0.0000     0.0000 </r>
        <r>   -25.4890     0.0000     0.0000     0.0000     0.0000     0.0000     0.0000     0.0000     0.0000     0.0000 </r>
        <r>   -25.2832     0.0000     0.0000     0.0000     0.0000     0.0000     0.0000     0.0000     0.0000     0.0000 </r>
        <r>   -25.0773     0.0000     0.0000     0.0000     0.0000     0.0000     0.0000     0.0000     0.0000     0.0000 </r>
        <r>   -24.8714     0.0000     0.0000     0.0000     0.0000     0.0000     0.0000     0.0000     0.0000     0.0000 </r>
        <r>   -24.6656     0.0000     0.0000     0.0000     0.0000     0.0000     0.0000     0.0000     0.0000     0.0000 </r>
        <r>   -24.4597     0.0000     0.0000     0.0000     0.0000     0.0000     0.0000     0.0000     0.0000     0.0000 </r>
        <r>   -24.2539     0.0000     0.0000     0.0000     0.0000     0.0000     0.0000     0.0000     0.0000     0.0000 </r>
        <r>   -24.0480     0.0000     0.0000     0.0000     0.0000     0.0000     0.0000     0.0000     0.0000     0.0000 </r>
        <r>   -23.8422     0.0000     0.0000     0.0000     0.0000     0.0000     0.0000     0.0000     0.0000     0.0000 </r>
        <r>   -23.6363     0.0000     0.0000     0.0000     0.0000     0.0000     0.0000     0.0000     0.0000     0.0000 </r>
        <r>   -23.4305     0.0000     0.0000     0.0000     0.0000     0.0000     0.0000     0.0000     0.0000     0.0000 </r>
        <r>   -23.2246     0.0000     0.0000     0.0000     0.0000     0.0000     0.0000     0.0000     0.0000     0.0000 </r>
        <r>   -23.0188     0.0000     0.0000     0.0000     0.0000     0.0000     0.0000     0.0000     0.0000     0.0000 </r>
        <r>   -22.8129     0.0000     0.0000     0.0000     0.0000     0.0000     0.0000     0.0000     0.0000     0.0000 </r>
        <r>   -22.6070     0.0000     0.0000     0.0000     0.0000     0.0000     0.0000     0.0000     0.0000     0.0000 </r>
        <r>   -22.4012     0.0000     0.0000     0.0000     0.0000     0.0000     0.0000     0.0000     0.0000     0.0000 </r>
[...]
        <r>    -0.9923     0.0000     0.0000     0.0000     0.0000     0.0000     0.0000     0.0000     0.0000     0.0000 </r>
        <r>    -0.7864     0.0000     0.0000     0.0000     0.0000     0.0000     0.0000     0.0000     0.0000     0.0000 </r>
        <r>    -0.5806     0.0000     0.0000     0.0000     0.0000     0.0000     0.0000     0.0000     0.0000     0.0000 </r>
        <r>    -0.3747     0.0000     0.0000     0.0000     0.0000     0.0000     0.0000     0.0000     0.0000     0.0000 </r>
        <r>    -0.1689     0.0000     0.0000     0.0000     0.0000     0.0000     0.0000     0.0000     0.0000     0.0000 </r>
        <r>     0.0370     0.0000     0.0204     0.0204     0.0204     0.0000     0.0000     0.0000     0.0000     0.0000 </r>
        <r>     0.2428     0.0085     0.3054     0.3053     0.3053     0.0000     0.0000     0.0000     0.0000     0.0000 </r>
        <r>     0.4487     0.1197     0.0000     0.0000     0.0000     0.0000     0.0000     0.0000     0.0000     0.0000 </r>
        <r>     0.6545     0.0000     0.0000     0.0000     0.0000     0.0000     0.0000     0.0000     0.0000     0.0000 </r>
        <r>     0.8604     0.0000     0.0000     0.0000     0.0000     0.0000     0.0000     0.0000     0.0000     0.0000 </r>
        <r>     1.0663     0.0000     0.0000     0.0000     0.0000     0.0000     0.0000     0.0000     0.0000     0.0000 </r>
        <r>     1.2721     0.0000     0.0000     0.0000     0.0000     0.0000     0.0000     0.0000     0.0000     0.0000 </r>
        <r>     1.4780     0.0000     0.0000     0.0000     0.0000     0.0000     0.0000     0.0205     0.0000     0.0205 </r>
        <r>     1.6838     0.0000     0.0000     0.0000     0.0000     0.0000     0.0000     0.0094     0.0000     0.0094 </r>
        <r>     1.8897     0.0000     0.0000     0.0000     0.0000     0.0000     0.0000     0.0000     0.0000     0.0000 </r>
        <r>     2.0955     0.0002     0.0550     0.0546     0.0549     0.0000     0.0000     0.0000     0.0000     0.0000 </r>
        <r>     2.3014     0.1539     0.0636     0.0631     0.0636     0.0000     0.0000     0.0000     0.0000     0.0000 </r>
        <r>     2.5072     0.0004     0.0000     0.0000     0.0000     0.0009     0.0009     0.0000     0.0009     0.0000 </r>
        <r>     2.7131     0.0000     0.0000     0.0000     0.0000     0.0722     0.0721     0.0000     0.0722     0.0000 </r>
        <r>     2.9189     0.0000     0.0000     0.0000     0.0000     0.0000     0.0000     0.0002     0.0000     0.0002 </r>
        <r>     3.1248     0.0000     0.0000     0.0000     0.0000     0.0000     0.0000     0.0252     0.0000     0.0252 </r>
        <r>     3.3307     0.0000     0.0000     0.0000     0.0000     0.0000     0.0000     0.0000     0.0000     0.0000 </r>
        <r>     3.5365     0.0000     0.0000     0.0000     0.0000     0.0000     0.0000     0.0000     0.0000     0.0000 </r>
        <r>     3.7424     0.0000     0.0000     0.0000     0.0000     0.0000     0.0000     0.0000     0.0000     0.0000 </r>
        <r>     3.9482     0.0000     0.0009     0.0023     0.0014     0.0000     0.0000     0.0000     0.0000     0.0000 </r>
        <r>     4.1541     0.0480     0.1157     0.1312     0.1176     0.0016     0.0031     0.0000     0.0018     0.0000 </r>
        <r>     4.3599     0.0967     0.0165     0.0002     0.0141     0.0409     0.0394     0.0000     0.0407     0.0000 </r>
        <r>     4.5658     0.0000     0.0000     0.0000     0.0000     0.0000     0.0000     0.0000     0.0000     0.0000 </r>
        <r>     4.7716     0.0000     0.0000     0.0000     0.0000     0.0000     0.0000     0.0000     0.0000     0.0000 </r>
        <r>     4.9775     0.0000     0.0000     0.0000     0.0000     0.0000     0.0000     0.0000     0.0000     0.0000 </r>
        <r>     5.1833     0.0000     0.0000     0.0000     0.0000     0.0000     0.0000     0.0000     0.0000     0.0000 </r>
        <r>     5.3892     0.0025     0.0000     0.0002     0.0000     0.0000     0.0000     0.0000     0.0000     0.0002 </r>
        <r>     5.5951     0.1443     0.0005     0.0097     0.0001     0.0000     0.0000     0.0001     0.0000     0.0130 </r>
        <r>     5.8009     0.0000     0.0000     0.0000     0.0000     0.0000     0.0000     0.0000     0.0000     0.0000 </r>
        <r>     6.0068     0.0000     0.0000     0.0000     0.0000     0.0000     0.0000     0.0000     0.0000     0.0000 </r>
        <r>     6.2126     0.0000     0.0000     0.0000     0.0000     0.0000     0.0000     0.0000     0.0000     0.0000 </r>
        <r>     6.4185     0.0000     0.0000     0.0000     0.0000     0.0000     0.0000     0.0000     0.0000     0.0000 </r>
        <r>     6.6243     0.0000     0.0000     0.0000     0.0000     0.0000     0.0000     0.0000     0.0000     0.0000 </r>
        <r>     6.8302     0.0000     0.0000     0.0000     0.0000     0.0000     0.0000     0.0000     0.0000     0.0000 </r>
        <r>     7.0360     0.0000     0.0000     0.0000     0.0000     0.0000     0.0000     0.0000     0.0000     0.0000 </r>
        <r>     7.2419     0.0000     0.0000     0.0000     0.0000     0.0000     0.0000     0.0000     0.0000     0.0000 </r>
        <r>     7.4477     0.0000     0.0000     0.0000     0.0000     0.0000     0.0000     0.0000     0.0000     0.0000 </r>
        <r>     7.6536     0.0000     0.0000     0.0000     0.0000     0.0000     0.0000     0.0000     0.0000     0.0000 </r>
        <r>     7.8595     0.0000     0.0000     0.0000     0.0000     0.0000     0.0000     0.0000     0.0000     0.0000 </r>
        <r>     8.0653     0.0000     0.0000     0.0000     0.0000     0.0000     0.0000     0.0000     0.0000     0.0000 </r>
        <r>     8.2712     0.0000     0.0000     0.0000     0.0000     0.0000     0.0000     0.0000     0.0000     0.0000 </r>
       </set>
      </set>
     </set>
    </array>
   </partial>
  </dos>
  <projected>
   <eigenvalues>
    <array>
     <dimension dim="1">band</dimension>
     <dimension dim="2">kpoint</dimension>
     <dimension dim="3">spin</dimension>
     <field>eigene</field>
     <field>occ</field>
     <set>
      <set comment="spin 1">
       <set comment="kpoint 1">
        <r>  -50.6781    1.0000 </r>
        <r>  -50.6781    1.0000 </r>
        <r>  -50.6781    1.0000 </r>
        <r>   -6.7525    1.0000 </r>
        <r>   -6.7525    1.0000 </r>
        <r>   -5.9474    1.0000 </r>
        <r>   -5.9474    1.0000 </r>
        <r>   -5.9474    1.0000 </r>
        <r>   -4.5027    1.0000 </r>
        <r>   -0.7936    0.0000 </r>
        <r>   -0.7936    0.0000 </r>
        <r>   -0.7935    0.0000 </r>
        <r>   -0.2052    0.0000 </r>
        <r>    0.8496    0.0000 </r>
        <r>    0.8497    0.0000 </r>
        <r>    1.6160    0.0000 </r>
        <r>    1.6160    0.0000 </r>
        <r>    1.6161    0.0000 </r>
        <r>    1.7601    0.0000 </r>
        <r>    2.0145    0.0000 </r>
        <r>    2.0145    0.0000 </r>
        <r>    2.0145    0.0000 </r>
        <r>    2.4355    0.0000 </r>
        <r>    2.4356    0.0000 </r>
        <r>    2.4357    0.0000 </r>
        <r>    2.5050    0.0000 </r>
        <r>    2.5051    0.0000 </r>
        <r>    3.5637    0.0000 </r>
        <r>    3.5638    0.0000 </r>
        <r>    3.5670    0.0000 </r>
        <r>    3.6385    0.0000 </r>
        <r>    3.7968    0.0000 </r>
        <r>    3.8083    0.0000 </r>
        <r>    3.8084    0.0000 </r>
        <r>    3.8088    0.0000 </r>
        <r>    4.5912    0.0000 </r>
       </set>
      </set>
      <set comment="spin 2">
       <set comment="kpoint 1">
        <r>  -49.1954    1.0000 </r>
        <r>  -49.1953    1.0000 </r>
        <r>  -49.1953    1.0000 </r>
        <r>   -4.9903    1.0000 </r>
        <r>   -4.9903    1.0000 </r>
        <r>   -4.9900    1.0000 </r>
        <r>   -4.1891    0.0000 </r>
        <r>   -4.1888    0.0000 </r>
        <r>   -3.3074    0.0000 </r>
        <r>    0.0912    0.0000 </r>
        <r>    0.0912    0.0000 </r>
        <r>    0.0912    0.0000 </r>
        <r>    0.2960    0.0000 </r>
        <r>    1.4609    0.0000 </r>
        <r>    1.4609    0.0000 </r>
        <r>    2.0987    0.0000 </r>
        <r>    2.0988    0.0000 </r>
        <r>    2.0988    0.0000 </r>
        <r>    2.2021    0.0000 </r>
        <r>    2.5860    0.0000 </r>
        <r>    2.5860    0.0000 </r>
        <r>    2.5861    0.0000 </r>
        <r>    2.9516    0.0000 </r>
        <r>    2.9516    0.0000 </r>
        <r>    2.9517    0.0000 </r>
        <r>    3.0062    0.0000 </r>
        <r>    3.0063    0.0000 </r>
        <r>    4.0229    0.0000 </r>
        <r>    4.0236    0.0000 </r>
        <r>    4.0655    0.0000 </r>
        <r>    4.1654    0.0000 </r>
        <r>    4.1764    0.0000 </r>
        <r>    4.2103    0.0000 </r>
        <r>    4.2464    0.0000 </r>
        <r>    4.2465    0.0000 </r>
        <r>    5.4641    0.0000 </r>
       </set>
      </set>
     </set>
    </array>
   </eigenvalues>
   <array>
    <dimension dim="1">ion</dimension>
    <dimension dim="2">band</dimension>
    <dimension dim="3">kpoint</dimension>
    <dimension dim="4">spin</dimension>
    <field>    s</field>
    <field>   py</field>
    <field>   pz</field>
    <field>   px</field>
    <field>  dxy</field>
    <field>  dyz</field>
    <field>  dz2</field>
    <field>  dxz</field>
    <field>x2-y2</field>
    <set>
     <set comment="spin1">
      <set comment="kpoint 1">
       <set comment="band 1">
        <r>  0.0000  0.9957  0.0002  0.0005  0.0000  0.0000  0.0000  0.0000  0.0000 </r>
       </set>
       <set comment="band 2">
        <r>  0.0000  0.0002  0.9943  0.0019  0.0000  0.0000  0.0000  0.0000  0.0000 </r>
       </set>
       <set comment="band 3">
        <r>  0.0000  0.0005  0.0019  0.9940  0.0000  0.0000  0.0000  0.0000  0.0000 </r>
       </set>
       <set comment="band 4">
        <r>  0.0000  0.0000  0.0000  0.0000  0.0000  0.0000  0.3528  0.0000  0.5434 </r>
       </set>
       <set comment="band 5">
        <r>  0.0000  0.0000  0.0000  0.0000  0.0000  0.0000  0.5434  0.0000  0.3528 </r>
       </set>
       <set comment="band 6">
        <r>  0.0000  0.0000  0.0000  0.0000  0.8865  0.0000  0.0000  0.0000  0.0000 </r>
       </set>
       <set comment="band 7">
        <r>  0.0000  0.0000  0.0000  0.0000  0.0000  0.8865  0.0000  0.0000  0.0000 </r>
       </set>
       <set comment="band 8">
        <r>  0.0000  0.0000  0.0000  0.0000  0.0000  0.0000  0.0000  0.8865  0.0000 </r>
       </set>
       <set comment="band 9">
        <r>  0.3094  0.0000  0.0000  0.0000  0.0000  0.0000  0.0000  0.0000  0.0000 </r>
       </set>
       <set comment="band 10">
        <r>  0.0000  0.0543  0.0213  0.0078  0.0000  0.0000  0.0000  0.0000  0.0000 </r>
       </set>
       <set comment="band 11">
        <r>  0.0000  0.0024  0.0403  0.0406  0.0000  0.0000  0.0000  0.0000  0.0000 </r>
       </set>
       <set comment="band 12">
        <r>  0.0000  0.0266  0.0217  0.0348  0.0000  0.0000  0.0000  0.0000  0.0000 </r>
       </set>
       <set comment="band 13">
        <r>  0.0292  0.0000  0.0000  0.0000  0.0000  0.0000  0.0000  0.0000  0.0000 </r>
       </set>
       <set comment="band 14">
        <r>  0.0000  0.0000  0.0000  0.0000  0.0000  0.0000  0.0058  0.0000  0.0001 </r>
       </set>
       <set comment="band 15">
        <r>  0.0000  0.0000  0.0000  0.0000  0.0000  0.0000  0.0001  0.0000  0.0058 </r>
       </set>
       <set comment="band 16">
        <r>  0.0000  0.0000  0.0202  0.0064  0.0000  0.0000  0.0000  0.0000  0.0000 </r>
       </set>
       <set comment="band 17">
        <r>  0.0000  0.0253  0.0004  0.0009  0.0000  0.0000  0.0000  0.0000  0.0000 </r>
       </set>
       <set comment="band 18">
        <r>  0.0000  0.0013  0.0062  0.0194  0.0000  0.0000  0.0000  0.0000  0.0000 </r>
       </set>
       <set comment="band 19">
        <r>  0.0297  0.0000  0.0000  0.0000  0.0000  0.0000  0.0000  0.0000  0.0000 </r>
       </set>
       <set comment="band 20">
        <r>  0.0000  0.0000  0.0000  0.0000  0.0005  0.0006  0.0000  0.0152  0.0000 </r>
       </set>
       <set comment="band 21">
        <r>  0.0000  0.0000  0.0000  0.0000  0.0036  0.0126  0.0000  0.0001  0.0000 </r>
       </set>
       <set comment="band 22">
        <r>  0.0000  0.0000  0.0000  0.0000  0.0122  0.0031  0.0000  0.0010  0.0000 </r>
       </set>
       <set comment="band 23">
        <r>  0.0000  0.0000  0.0000  0.0000  0.0000  0.0000  0.0000  0.0000  0.0000 </r>
       </set>
       <set comment="band 24">
        <r>  0.0000  0.0000  0.0000  0.0000  0.0000  0.0000  0.0000  0.0000  0.0000 </r>
       </set>
       <set comment="band 25">
        <r>  0.0000  0.0000  0.0000  0.0000  0.0000  0.0000  0.0000  0.0000  0.0000 </r>
       </set>
       <set comment="band 26">
        <r>  0.0000  0.0000  0.0000  0.0000  0.0000  0.0000  0.0040  0.0000  0.0000 </r>
       </set>
       <set comment="band 27">
        <r>  0.0000  0.0000  0.0000  0.0000  0.0000  0.0000  0.0000  0.0000  0.0040 </r>
       </set>
       <set comment="band 28">
        <r>  0.0000  0.0020  0.0120  0.0212  0.0000  0.0000  0.0000  0.0000  0.0000 </r>
       </set>
       <set comment="band 29">
        <r>  0.0000  0.0031  0.0183  0.0137  0.0000  0.0000  0.0000  0.0000  0.0000 </r>
       </set>
       <set comment="band 30">
        <r>  0.0000  0.0290  0.0050  0.0000  0.0000  0.0000  0.0000  0.0000  0.0000 </r>
       </set>
       <set comment="band 31">
        <r>  0.0000  0.0014  0.0001  0.0003  0.0000  0.0000  0.0000  0.0000  0.0000 </r>
       </set>
       <set comment="band 32">
        <r>  0.0271  0.0000  0.0000  0.0000  0.0003  0.0000  0.0000  0.0000  0.0000 </r>
       </set>
       <set comment="band 33">
        <r>  0.0002  0.0000  0.0000  0.0000  0.0003  0.0035  0.0000  0.0040  0.0000 </r>
       </set>
       <set comment="band 34">
        <r>  0.0006  0.0000  0.0000  0.0000  0.0048  0.0008  0.0000  0.0020  0.0000 </r>
       </set>
       <set comment="band 35">
        <r>  0.0005  0.0000  0.0000  0.0000  0.0023  0.0036  0.0000  0.0017  0.0000 </r>
       </set>
       <set comment="band 36">
        <r>  0.0019  0.0054  0.0007  0.0093  0.0000  0.0000  0.0008  0.0000  0.0111 </r>
       </set>
      </set>
     </set>
     <set comment="spin2">
      <set comment="kpoint 1">
       <set comment="band 1">
        <r>  0.0000  0.0000  0.9954  0.0000  0.0000  0.0000  0.0000  0.0000  0.0000 </r>
       </set>
       <set comment="band 2">
        <r>  0.0000  0.9954  0.0000  0.0000  0.0000  0.0000  0.0000  0.0000  0.0000 </r>
       </set>
       <set comment="band 3">
        <r>  0.0000  0.0000  0.0000  0.9954  0.0000  0.0000  0.0000  0.0000  0.0000 </r>
       </set>
       <set comment="band 4">
        <r>  0.0000  0.0000  0.0000  0.0000  0.0000  0.8857  0.0000  0.0000  0.0000 </r>
       </set>
       <set comment="band 5">
        <r>  0.0000  0.0000  0.0000  0.0000  0.0000  0.0000  0.0000  0.8857  0.0000 </r>
       </set>
       <set comment="band 6">
        <r>  0.0000  0.0000  0.0000  0.0000  0.8857  0.0000  0.0000  0.0000  0.0000 </r>
       </set>
       <set comment="band 7">
        <r>  0.0000  0.0000  0.0000  0.0000  0.0000  0.0000  0.0103  0.0000  0.8674 </r>
       </set>
       <set comment="band 8">
        <r>  0.0000  0.0000  0.0000  0.0000  0.0000  0.0000  0.8674  0.0000  0.0103 </r>
       </set>
       <set comment="band 9">
        <r>  0.2809  0.0000  0.0000  0.0000  0.0000  0.0000  0.0000  0.0000  0.0000 </r>
       </set>
       <set comment="band 10">
        <r>  0.0000  0.0121  0.0004  0.0546  0.0000  0.0000  0.0000  0.0000  0.0000 </r>
       </set>
       <set comment="band 11">
        <r>  0.0000  0.0527  0.0018  0.0125  0.0000  0.0000  0.0000  0.0000  0.0000 </r>
       </set>
       <set comment="band 12">
        <r>  0.0000  0.0022  0.0648  0.0000  0.0000  0.0000  0.0000  0.0000  0.0000 </r>
       </set>
       <set comment="band 13">
        <r>  0.0264  0.0000  0.0000  0.0000  0.0000  0.0000  0.0000  0.0000  0.0000 </r>
       </set>
       <set comment="band 14">
        <r>  0.0000  0.0000  0.0000  0.0000  0.0000  0.0000  0.0039  0.0000  0.0022 </r>
       </set>
       <set comment="band 15">
        <r>  0.0000  0.0000  0.0000  0.0000  0.0000  0.0000  0.0022  0.0000  0.0039 </r>
       </set>
       <set comment="band 16">
        <r>  0.0000  0.0192  0.0000  0.0051  0.0000  0.0000  0.0000  0.0000  0.0000 </r>
       </set>
       <set comment="band 17">
        <r>  0.0000  0.0046  0.0042  0.0157  0.0000  0.0000  0.0000  0.0000  0.0000 </r>
       </set>
       <set comment="band 18">
        <r>  0.0000  0.0006  0.0200  0.0036  0.0000  0.0000  0.0000  0.0000  0.0000 </r>
       </set>
       <set comment="band 19">
        <r>  0.0318  0.0000  0.0000  0.0000  0.0000  0.0000  0.0000  0.0000  0.0000 </r>
       </set>
       <set comment="band 20">
        <r>  0.0000  0.0000  0.0000  0.0000  0.0006  0.0096  0.0000  0.0048  0.0000 </r>
       </set>
       <set comment="band 21">
        <r>  0.0000  0.0000  0.0000  0.0000  0.0009  0.0055  0.0000  0.0087  0.0000 </r>
       </set>
       <set comment="band 22">
        <r>  0.0000  0.0000  0.0000  0.0000  0.0135  0.0000  0.0000  0.0016  0.0000 </r>
       </set>
       <set comment="band 23">
        <r>  0.0000  0.0000  0.0000  0.0000  0.0000  0.0000  0.0000  0.0000  0.0000 </r>
       </set>
       <set comment="band 24">
        <r>  0.0000  0.0000  0.0000  0.0000  0.0000  0.0000  0.0000  0.0000  0.0000 </r>
       </set>
       <set comment="band 25">
        <r>  0.0000  0.0000  0.0000  0.0000  0.0000  0.0000  0.0000  0.0000  0.0000 </r>
       </set>
       <set comment="band 26">
        <r>  0.0000  0.0000  0.0000  0.0000  0.0000  0.0000  0.0000  0.0000  0.0052 </r>
       </set>
       <set comment="band 27">
        <r>  0.0000  0.0000  0.0000  0.0000  0.0000  0.0000  0.0052  0.0000  0.0000 </r>
       </set>
       <set comment="band 28">
        <r>  0.0000  0.0000  0.0263  0.0012  0.0000  0.0000  0.0000  0.0000  0.0000 </r>
       </set>
       <set comment="band 29">
        <r>  0.0000  0.0107  0.0008  0.0158  0.0000  0.0000  0.0000  0.0000  0.0000 </r>
       </set>
       <set comment="band 30">
        <r>  0.0013  0.0125  0.0004  0.0067  0.0001  0.0002  0.0000  0.0001  0.0000 </r>
       </set>
       <set comment="band 31">
        <r>  0.0107  0.0019  0.0000  0.0018  0.0004  0.0006  0.0000  0.0004  0.0000 </r>
       </set>
       <set comment="band 32">
        <r>  0.0174  0.0001  0.0000  0.0004  0.0000  0.0000  0.0000  0.0000  0.0000 </r>
       </set>
       <set comment="band 33">
        <r>  0.0005  0.0022  0.0000  0.0015  0.0016  0.0036  0.0000  0.0017  0.0000 </r>
       </set>
       <set comment="band 34">
        <r>  0.0000  0.0000  0.0000  0.0000  0.0028  0.0042  0.0000  0.0017  0.0000 </r>
       </set>
       <set comment="band 35">
        <r>  0.0000  0.0000  0.0000  0.0000  0.0039  0.0000  0.0000  0.0048  0.0000 </r>
       </set>
       <set comment="band 36">
        <r>  0.0302  0.0001  0.0020  0.0000  0.0000  0.0000  0.0000  0.0000  0.0027 </r>
       </set>
      </set>
     </set>
    </set>
   </array>
  </projected>
 </calculation>
 <structure name="finalpos" >
  <crystal>
   <varray name="basis" >
    <v>      10.00000000       0.00000000       0.00000000 </v>
    <v>       0.00000000      10.00000000       0.00000000 </v>
    <v>       0.00000000       0.00000000      10.00000000 </v>
   </varray>
   <i name="volume">   1000.00000000 </i>
   <varray name="rec_basis" >
    <v>       0.10000000       0.00000000       0.00000000 </v>
    <v>       0.00000000       0.10000000       0.00000000 </v>
    <v>       0.00000000       0.00000000       0.10000000 </v>
   </varray>
  </crystal>
  <varray name="positions" >
   <v>       0.50000000       0.50000000       0.50000000 </v>
  </varray>
 </structure>
</modeling>
