       N       E                     dE             d eps       ncg     rms          ort
DAV:   1     0.157004386682E+02    0.15700E+02   -0.11133E+03    36   0.117E+02
DAV:   2     0.185005599542E+01   -0.13850E+02   -0.13850E+02    36   0.168E+01
DAV:   3     0.338169668137E+00   -0.15119E+01   -0.15119E+01    36   0.104E+01
DAV:   4     0.239096525262E+00   -0.99073E-01   -0.99073E-01    36   0.152E+00
DAV:   5     0.226228697680E+00   -0.12868E-01   -0.12868E-01    36   0.530E-01
SDA:   6    -0.371333034203E-01   -0.26336E+00   -0.14133E-01    36   0.353E-01 0.000E+00
DMP:   7    -0.360112376411E-01    0.11221E-02   -0.49440E-01    36   0.139E+00-0.408E-01
DMP:   8     0.224598092368E-01    0.58471E-01   -0.58733E+00    36   0.163E+01-0.413E+00
DMP:   9     0.818366948196E+00    0.79591E+00   -0.76661E+01    36   0.212E+02-0.540E+01
DMP:  10     0.100398471405E+02    0.92215E+01   -0.89983E+02    36   0.249E+03-0.638E+02
DMP:  11     0.652578025717E+02    0.55218E+02   -0.65177E+03    36   0.178E+04-0.406E+03
DMP:  12     0.859452356814E+02    0.20687E+02   -0.73971E+03    36   0.208E+04-0.597E+03
DMP:  13     0.332794896372E+02   -0.52666E+02   -0.16382E+03    36   0.524E+03-0.299E+03
DMP:  14     0.889701009882E+01   -0.24382E+02   -0.16616E+02    36   0.631E+02-0.565E+02
DMP:  15     0.342892507951E+01   -0.54681E+01   -0.25071E+01    36   0.651E+01-0.645E+00
DMP:  16     0.212000524170E+01   -0.13089E+01   -0.12963E+01    36   0.280E+01 0.116E+01
DMP:  17     0.166225770543E+01   -0.45775E+00   -0.97140E+00    36   0.269E+01-0.692E+00
DMP:  18     0.134002289174E+01   -0.32223E+00   -0.55618E+00    36   0.167E+01-0.745E+00
DMP:  19     0.108094221239E+01   -0.25908E+00   -0.20768E+00    36   0.548E+00-0.765E-01
DMP:  20     0.926431336230E+00   -0.15451E+00   -0.11432E+00    36   0.188E+00 0.256E+00
DMP:  21     0.825142863977E+00   -0.10129E+00   -0.10514E+00    36   0.178E+00 0.221E+00
DMP:  22     0.735228973545E+00   -0.89914E-01   -0.87433E-01    36   0.147E+00 0.187E+00
DMP:  23     0.654613663102E+00   -0.80615E-01   -0.79149E-01    36   0.127E+00 0.184E+00
DMP:  24     0.578566639586E+00   -0.76047E-01   -0.77595E-01    36   0.124E+00 0.182E+00
DMP:  25     0.504057422541E+00   -0.74509E-01   -0.76801E-01    36   0.124E+00 0.178E+00
DMP:  26     0.430851221503E+00   -0.73206E-01   -0.75680E-01    36   0.123E+00 0.174E+00
DMP:  27     0.359877007863E+00   -0.70974E-01   -0.71142E-01    36   0.115E+00 0.165E+00
DMP:  28     0.295934567641E+00   -0.63942E-01   -0.65934E-01    36   0.111E+00 0.142E+00
DMP:  29     0.242346441572E+00   -0.53588E-01   -0.63000E-01    36   0.118E+00 0.103E+00
DMP:  30     0.198572712134E+00   -0.43774E-01   -0.59177E-01    36   0.125E+00 0.612E-01
DMP:  31     0.161547669956E+00   -0.37025E-01   -0.48357E-01    36   0.107E+00 0.371E-01
DMP:  32     0.129413886557E+00   -0.32134E-01   -0.33658E-01    36   0.690E-01 0.397E-01
DMP:  33     0.102824894798E+00   -0.26589E-01   -0.24500E-01    36   0.426E-01 0.487E-01
DMP:  34     0.807135484343E-01   -0.22111E-01   -0.21154E-01    36   0.341E-01 0.492E-01
DMP:  35     0.609644537323E-01   -0.19749E-01   -0.19326E-01    36   0.308E-01 0.458E-01
DMP:  36     0.430750407402E-01   -0.17889E-01   -0.17282E-01    36   0.275E-01 0.411E-01
DMP:  37     0.274938406091E-01   -0.15581E-01   -0.15021E-01    36   0.243E-01 0.346E-01
DMP:  38     0.145580716359E-01   -0.12936E-01   -0.12834E-01    36   0.217E-01 0.271E-01
DMP:  39     0.408720502742E-02   -0.10471E-01   -0.10646E-01    36   0.189E-01 0.202E-01
DMP:  40    -0.438375854276E-02   -0.84710E-02   -0.84046E-02    36   0.150E-01 0.157E-01
DMP:  41    -0.112935192390E-01   -0.69098E-02   -0.64138E-02    36   0.109E-01 0.135E-01
DMP:  42    -0.169370085108E-01   -0.56435E-02   -0.51137E-02    36   0.814E-02 0.122E-01
DMP:  43    -0.216576804133E-01   -0.47207E-02   -0.44354E-02    36   0.696E-02 0.108E-01
DMP:  44    -0.257960869582E-01   -0.41384E-02   -0.39219E-02    36   0.614E-02 0.958E-02
DMP:  45    -0.294147874882E-01   -0.36187E-02   -0.33807E-02    36   0.529E-02 0.827E-02
DMP:  46    -0.324344110489E-01   -0.30196E-02   -0.28474E-02    36   0.459E-02 0.663E-02
DMP:  47    -0.348150063393E-01   -0.23806E-02   -0.24043E-02    36   0.419E-02 0.477E-02
DMP:  48    -0.366482865293E-01   -0.18333E-02   -0.19877E-02    36   0.377E-02 0.314E-02
DMP:  49    -0.380801860850E-01   -0.14319E-02   -0.15193E-02    36   0.297E-02 0.218E-02
DMP:  50    -0.392205044278E-01   -0.11403E-02   -0.10844E-02    36   0.199E-02 0.190E-02
DMP:  51    -0.401337294970E-01   -0.91323E-03   -0.81263E-03    36   0.133E-02 0.185E-02
DMP:  52    -0.408804358480E-01   -0.74671E-03   -0.68971E-03    36   0.108E-02 0.170E-02
DMP:  53    -0.415259617967E-01   -0.64553E-03   -0.59972E-03    36   0.927E-03 0.150E-02
DMP:  54    -0.420788223677E-01   -0.55286E-03   -0.51224E-03    36   0.800E-03 0.126E-02
DMP:  55    -0.425281428095E-01   -0.44932E-03   -0.43877E-03    36   0.730E-03 0.961E-03
DMP:  56    -0.428702211547E-01   -0.34208E-03   -0.38957E-03    36   0.741E-03 0.609E-03
DMP:  57    -0.431244689277E-01   -0.25425E-03   -0.33824E-03    36   0.733E-03 0.294E-03
DMP:  58    -0.433210153914E-01   -0.19655E-03   -0.25817E-03    36   0.594E-03 0.134E-03
DMP:  59    -0.434755447175E-01   -0.15453E-03   -0.17283E-03    36   0.384E-03 0.125E-03
DMP:  60    -0.435948139369E-01   -0.11927E-03   -0.11260E-03    36   0.220E-03 0.162E-03
DMP:  61    -0.436889465017E-01   -0.94133E-04   -0.80903E-04    36   0.131E-03 0.187E-03
DMP:  62    -0.437641829735E-01   -0.75236E-04   -0.69002E-04    36   0.107E-03 0.172E-03
DMP:  63    -0.438283023869E-01   -0.64119E-04   -0.58657E-04    36   0.907E-04 0.147E-03
DMP:  64    -0.438805203667E-01   -0.52218E-04   -0.49415E-04    36   0.803E-04 0.113E-03
DMP:  65    -0.439204274105E-01   -0.39907E-04   -0.43371E-04    36   0.799E-04 0.747E-04
   1 F= -.43920427E-01 E0= -.43920427E-01  d E =-.439204E-01  mag=    -0.0000
