<?xml version="1.0" encoding="ISO-8859-1"?>
<modeling>
 <generator>
  <i name="program" type="string">vasp </i>
  <i name="version" type="string">5.4.4.18Apr17-6-g9f103f2a35  </i>
  <i name="subversion" type="string">(build Nov 08 2019 15:19:53) gamma-only         parallel </i>
  <i name="platform" type="string">LinuxIFC </i>
  <i name="date" type="string">2020 11 30 </i>
  <i name="time" type="string">09:30:44 </i>
 </generator>
 <incar>
  <i type="string" name="PREC">accurate</i>
  <i type="string" name="ALGO"> D</i>
  <i type="int" name="ISPIN">     2</i>
  <i type="int" name="NELM">   300</i>
  <i type="int" name="IBRION">     2</i>
  <i name="EDIFF">      0.00005000</i>
  <i type="int" name="NSW">    99</i>
  <i type="int" name="ISIF">     2</i>
  <i name="ENCUT">    520.00000000</i>
  <v name="MAGMOM">      0.60000000</v>
  <i type="string" name="LREAL"> Auto</i>
  <i type="int" name="ISMEAR">     0</i>
  <i name="SIGMA">      0.05000000</i>
  <i type="logical" name="LWAVE"> F  </i>
  <i type="int" name="LORBIT">    11</i>
  <i type="logical" name="LASPH"> T  </i>
  <v type="int" name="KPOINT_BSE">    -1     0     0     0</v>
  <i type="int" name="NELM">   300</i>
  <i type="logical" name="LASPH"> T  </i>
 </incar>
 <structure name="primitive_cell" >
  <crystal>
   <varray name="basis" >
    <v>      10.00000000       0.00000000       0.00000000 </v>
    <v>       0.00000000      10.00000000       0.00000000 </v>
    <v>       0.00000000       0.00000000      10.00000000 </v>
   </varray>
   <i name="volume">   1000.00000000 </i>
   <varray name="rec_basis" >
    <v>       0.10000000       0.00000000       0.00000000 </v>
    <v>       0.00000000       0.10000000       0.00000000 </v>
    <v>       0.00000000       0.00000000       0.10000000 </v>
   </varray>
  </crystal>
  <varray name="positions" >
   <v>      -0.50000000      -0.50000000      -0.50000000 </v>
  </varray>
 </structure>
 <varray name="primitive_index" >
  <v type="int" >        1 </v>
 </varray>
 <kpoints>
  <generation param="Gamma">
   <v type="int" name="divisions">       1        1        1 </v>
   <v name="usershift">      0.00000000       0.00000000       0.00000000 </v>
   <v name="genvec1">      1.00000000       0.00000000       0.00000000 </v>
   <v name="genvec2">      0.00000000       1.00000000       0.00000000 </v>
   <v name="genvec3">      0.00000000       0.00000000       1.00000000 </v>
   <v name="shift">      0.00000000       0.00000000       0.00000000 </v>
  </generation>
  <varray name="kpointlist" >
   <v>       0.00000000       0.00000000       0.00000000 </v>
  </varray>
  <varray name="weights" >
   <v>       1.00000000 </v>
  </varray>
 </kpoints>
 <parameters>
  <separator name="general" >
   <i type="string" name="SYSTEM">unknown system</i>
   <i type="logical" name="LCOMPAT"> F  </i>
  </separator>
  <separator name="electronic" >
   <i type="string" name="PREC">accura</i>
   <i name="ENMAX">    520.00000000</i>
   <i name="ENAUG">    780.94400000</i>
   <i name="EDIFF">      0.00005000</i>
   <i type="int" name="IALGO">    53</i>
   <i type="int" name="IWAVPR">    11</i>
   <i type="int" name="NBANDS">    36</i>
   <i name="NELECT">      4.00000000</i>
   <i type="int" name="TURBO">     0</i>
   <i type="int" name="IRESTART">     0</i>
   <i type="int" name="NREBOOT">     0</i>
   <i type="int" name="NMIN">     0</i>
   <i name="EREF">      0.00000000</i>
   <separator name="electronic smearing" >
    <i type="int" name="ISMEAR">     0</i>
    <i name="SIGMA">      0.05000000</i>
    <i name="KSPACING">      0.50000000</i>
    <i type="logical" name="KGAMMA"> T  </i>
   </separator>
   <separator name="electronic projectors" >
    <i type="logical" name="LREAL"> T  </i>
    <v name="ROPT">     -0.00025000</v>
    <i type="int" name="LMAXPAW">  -100</i>
    <i type="int" name="LMAXMIX">     2</i>
    <i type="logical" name="NLSPLINE"> F  </i>
   </separator>
   <separator name="electronic startup" >
    <i type="int" name="ISTART">     0</i>
    <i type="int" name="ICHARG">     2</i>
    <i type="int" name="INIWAV">     1</i>
   </separator>
   <separator name="electronic spin" >
    <i type="int" name="ISPIN">     2</i>
    <i type="logical" name="LNONCOLLINEAR"> F  </i>
    <v name="MAGMOM">      0.60000000</v>
    <i name="NUPDOWN">     -1.00000000</i>
    <i type="logical" name="LSORBIT"> F  </i>
    <v name="SAXIS">      0.00000000      0.00000000      1.00000000</v>
    <i type="logical" name="LSPIRAL"> F  </i>
    <v name="QSPIRAL">      0.00000000      0.00000000      0.00000000</v>
    <i type="logical" name="LZEROZ"> F  </i>
   </separator>
   <separator name="electronic exchange-correlation" >
    <i type="logical" name="LASPH"> T  </i>
    <i type="logical" name="LMETAGGA"> F  </i>
   </separator>
   <separator name="electronic convergence" >
    <i type="int" name="NELM">   300</i>
    <i type="int" name="NELMDL">    -5</i>
    <i type="int" name="NELMIN">     2</i>
    <i name="ENINI">    520.00000000</i>
    <separator name="electronic convergence detail" >
     <i type="logical" name="LDIAG"> T  </i>
     <i type="logical" name="LSUBROT"> F  </i>
     <i name="WEIMIN">      0.00100000</i>
     <i name="EBREAK">      0.00000035</i>
     <i name="DEPER">      0.30000000</i>
     <i type="int" name="NRMM">     4</i>
     <i name="TIME">      0.40000000</i>
    </separator>
   </separator>
   <separator name="electronic mixer" >
    <i name="AMIX">      0.40000000</i>
    <i name="BMIX">      1.00000000</i>
    <i name="AMIN">      0.10000000</i>
    <i name="AMIX_MAG">      1.60000000</i>
    <i name="BMIX_MAG">      1.00000000</i>
    <separator name="electronic mixer details" >
     <i type="int" name="IMIX">     4</i>
     <i type="logical" name="MIXFIRST"> F  </i>
     <i type="int" name="MAXMIX">   -45</i>
     <i name="WC">    100.00000000</i>
     <i type="int" name="INIMIX">     1</i>
     <i type="int" name="MIXPRE">     1</i>
     <i type="int" name="MREMOVE">     5</i>
    </separator>
   </separator>
   <separator name="electronic dipolcorrection" >
    <i type="logical" name="LDIPOL"> F  </i>
    <i type="logical" name="LMONO"> F  </i>
    <i type="int" name="IDIPOL">     0</i>
    <i name="EPSILON">      1.00000000</i>
    <v name="DIPOL">   -100.00000000   -100.00000000   -100.00000000</v>
    <i name="EFIELD">      0.00000000</i>
   </separator>
  </separator>
  <separator name="grids" >
   <i type="int" name="NGX">    80</i>
   <i type="int" name="NGY">    80</i>
   <i type="int" name="NGZ">    80</i>
   <i type="int" name="NGXF">   160</i>
   <i type="int" name="NGYF">   160</i>
   <i type="int" name="NGZF">   160</i>
   <i type="logical" name="ADDGRID"> F  </i>
  </separator>
  <separator name="ionic" >
   <i type="int" name="NSW">    99</i>
   <i type="int" name="IBRION">     2</i>
   <i type="int" name="MDALGO">     0</i>
   <i type="int" name="ISIF">     2</i>
   <i name="PSTRESS">      0.00000000</i>
   <i name="EDIFFG">      0.00050000</i>
   <i type="int" name="NFREE">     1</i>
   <i name="POTIM">      0.50000000</i>
   <i name="SMASS">     -3.00000000</i>
   <i name="SCALEE">      1.00000000</i>
  </separator>
  <separator name="ionic md" >
   <i name="TEBEG">      0.00010000</i>
   <i name="TEEND">      0.00010000</i>
   <i type="int" name="NBLOCK">     1</i>
   <i type="int" name="KBLOCK">    99</i>
   <i type="int" name="NPACO">   256</i>
   <i name="APACO">     16.00000000</i>
  </separator>
  <separator name="symmetry" >
   <i type="int" name="ISYM">     2</i>
   <i name="SYMPREC">      0.00001000</i>
  </separator>
  <separator name="dos" >
   <i type="int" name="LORBIT">    11</i>
   <v name="RWIGS">     -1.00000000</v>
   <i type="int" name="NEDOS">   301</i>
   <i name="EMIN">     10.00000000</i>
   <i name="EMAX">    -10.00000000</i>
   <i name="EFERMI">      0.00000000</i>
  </separator>
  <separator name="writing" >
   <i type="int" name="NWRITE">     2</i>
   <i type="logical" name="LWAVE"> F  </i>
   <i type="logical" name="LDOWNSAMPLE"> F  </i>
   <i type="logical" name="LCHARG"> T  </i>
   <i type="logical" name="LPARD"> F  </i>
   <i type="logical" name="LVTOT"> F  </i>
   <i type="logical" name="LVHAR"> F  </i>
   <i type="logical" name="LELF"> F  </i>
   <i type="logical" name="LOPTICS"> F  </i>
   <v name="STM">      0.00000000      0.00000000      0.00000000      0.00000000      0.00000000      0.00000000      0.00000000</v>
  </separator>
  <separator name="performance" >
   <i type="int" name="NPAR">    36</i>
   <i type="int" name="NSIM">     4</i>
   <i type="int" name="NBLK">    -1</i>
   <i type="logical" name="LPLANE"> T  </i>
   <i type="logical" name="LSCALAPACK"> T  </i>
   <i type="logical" name="LSCAAWARE"> F  </i>
   <i type="logical" name="LSCALU"> F  </i>
   <i type="logical" name="LASYNC"> F  </i>
   <i type="logical" name="LORBITALREAL"> F  </i>
  </separator>
  <separator name="miscellaneous" >
   <i type="int" name="IDIOT">     3</i>
   <i type="int" name="ISPECIAL">     0</i>
   <i type="logical" name="LMUSIC"> F  </i>
   <v name="POMASS">      9.01300000</v>
   <v name="DARWINR">      0.00000000</v>
   <v name="DARWINV">      1.00000000</v>
   <i type="logical" name="LCORR"> T  </i>
  </separator>
  <i type="logical" name="GGA_COMPAT"> T  </i>
  <i type="logical" name="LBERRY"> F  </i>
  <i type="int" name="ICORELEVEL">     0</i>
  <i type="logical" name="LDAU"> F  </i>
  <i type="int" name="I_CONSTRAINED_M">     0</i>
  <separator name="electronic exchange-correlation" >
   <i type="string" name="GGA">--</i>
   <i type="int" name="VOSKOWN">     0</i>
   <i type="logical" name="LHFCALC"> F  </i>
   <i type="string" name="PRECFOCK"></i>
   <i type="logical" name="LSYMGRAD"> F  </i>
   <i type="logical" name="LHFONE"> F  </i>
   <i type="logical" name="LRHFCALC"> F  </i>
   <i type="logical" name="LTHOMAS"> F  </i>
   <i type="logical" name="LMODELHF"> F  </i>
   <i name="ENCUT4O">     -1.00000000</i>
   <i type="int" name="EXXOEP">     0</i>
   <i type="int" name="FOURORBIT">     0</i>
   <i name="AEXX">      0.00000000</i>
   <i name="HFALPHA">      0.00000000</i>
   <i name="MCALPHA">      0.00000000</i>
   <i name="ALDAX">      1.00000000</i>
   <i name="AGGAX">      1.00000000</i>
   <i name="ALDAC">      1.00000000</i>
   <i name="AGGAC">      1.00000000</i>
   <i type="int" name="NKREDX">     1</i>
   <i type="int" name="NKREDY">     1</i>
   <i type="int" name="NKREDZ">     1</i>
   <i type="logical" name="SHIFTRED"> F  </i>
   <i type="logical" name="ODDONLY"> F  </i>
   <i type="logical" name="EVENONLY"> F  </i>
   <i type="int" name="LMAXFOCK">     0</i>
   <i type="int" name="NMAXFOCKAE">     0</i>
   <i type="logical" name="LFOCKAEDFT"> F  </i>
   <i name="HFSCREEN">      0.00000000</i>
   <i name="HFSCREENC">      0.00000000</i>
   <i type="int" name="NBANDSGWLOW">     0</i>
  </separator>
  <separator name="vdW DFT" >
   <i type="logical" name="LUSE_VDW"> F  </i>
   <i name="Zab_VDW">     -0.84910000</i>
   <i name="PARAM1">      0.12340000</i>
   <i name="PARAM2">      1.00000000</i>
   <i name="PARAM3">      0.00000000</i>
  </separator>
  <separator name="model GW" >
   <i type="int" name="MODEL_GW">     0</i>
   <i name="MODEL_EPS0">    600.00000000</i>
   <i name="MODEL_ALPHA">      1.00000000</i>
  </separator>
  <separator name="linear response parameters" >
   <i type="logical" name="LEPSILON"> F  </i>
   <i type="logical" name="LRPA"> F  </i>
   <i type="logical" name="LNABLA"> F  </i>
   <i type="logical" name="LVEL"> F  </i>
   <i type="int" name="KINTER">     0</i>
   <i name="CSHIFT">      0.10000000</i>
   <i name="OMEGAMAX">     -1.00000000</i>
   <i name="DEG_THRESHOLD">      0.00200000</i>
   <i name="RTIME">     -0.10000000</i>
   <i name="WPLASMAI">      0.00000000</i>
   <v name="DFIELD">      0.00000000      0.00000000      0.00000000</v>
   <v name="WPLASMA">      0.00000000      0.00000000      0.00000000      0.00000000      0.00000000      0.00000000      0.00000000      0.00000000      0.00000000</v>
  </separator>
  <separator name="orbital magnetization" >
   <i type="logical" name="NUCIND"> F  </i>
   <v name="MAGPOS">      0.00000000      0.00000000      0.00000000</v>
   <i type="logical" name="LNICSALL"> T  </i>
   <i type="logical" name="ORBITALMAG"> F  </i>
   <i type="logical" name="LMAGBLOCH"> F  </i>
   <i type="logical" name="LCHIMAG"> F  </i>
   <i type="logical" name="LGAUGE"> T  </i>
   <i type="int" name="MAGATOM">     0</i>
   <v name="MAGDIPOL">      0.00000000      0.00000000      0.00000000</v>
   <v name="AVECCONST">      0.00000000      0.00000000      0.00000000</v>
  </separator>
  <separator name="response functions" >
   <i type="logical" name="LADDER"> F  </i>
   <i type="logical" name="LRPAFORCE"> F  </i>
   <i type="logical" name="LFXC"> F  </i>
   <i type="logical" name="LHARTREE"> T  </i>
   <i type="int" name="IBSE">     0</i>
   <v type="int" name="KPOINT">    -1     0     0     0</v>
   <i type="logical" name="LTCTE"> F  </i>
   <i type="logical" name="LTETE"> F  </i>
   <i type="logical" name="LTRIPLET"> F  </i>
   <i type="logical" name="LFXCEPS"> F  </i>
   <i type="logical" name="LFXHEG"> F  </i>
   <i type="int" name="NATURALO">     2</i>
   <i type="logical" name="L2ORDER"> F  </i>
   <i type="logical" name="LMP2LT"> F  </i>
   <i type="logical" name="LUSEW"> F  </i>
   <i name="ENCUTGW">     -2.00000000</i>
   <i name="ENCUTGWSOFT">     -2.00000000</i>
   <i name="ENCUTLF">     -1.00000000</i>
   <i type="int" name="LMAXMP2">    -1</i>
   <i name="SCISSOR">      0.00000000</i>
   <i type="int" name="NOMEGA">     0</i>
   <i type="int" name="NOMEGAR">     0</i>
   <i type="int" name="NBANDSGW">    -1</i>
   <i type="int" name="NBANDSO">    -1</i>
   <i type="int" name="NBANDSV">    -1</i>
   <i type="int" name="NELM">   300</i>
   <i type="int" name="NELMHF">     1</i>
   <i type="int" name="DIM">     3</i>
   <i type="int" name="ANTIRES">     0</i>
   <i name="OMEGAMAX">    -30.00000000</i>
   <i name="OMEGAMIN">    -30.00000000</i>
   <i name="OMEGATL">   -200.00000000</i>
   <i type="int" name="OMEGAGRID">   140</i>
   <i name="CSHIFT">     -0.10000000</i>
   <i type="logical" name="SELFENERGY"> F  </i>
   <i type="logical" name="LSPECTRAL"> F  </i>
   <i type="logical" name="LSPECTRALGW"> F  </i>
   <i type="logical" name="LSINGLES"> F  </i>
   <i type="logical" name="LFERMIGW"> F  </i>
   <i type="logical" name="ODDONLYGW"> F  </i>
   <i type="logical" name="EVENONLYGW"> F  </i>
   <i type="int" name="NKREDLFX">     1</i>
   <i type="int" name="NKREDLFY">     1</i>
   <i type="int" name="NKREDLFZ">     1</i>
   <i type="int" name="MAXMEM">  2800</i>
   <i type="int" name="TELESCOPE">     0</i>
   <i type="int" name="TAUPAR">     1</i>
   <i type="int" name="OMEGAPAR">    -1</i>
   <i name="LAMBDA">      1.00000000</i>
  </separator>
  <separator name="External order field" >
   <i name="OFIELD_KAPPA">      0.00000000</i>
   <v name="OFIELD_K">      0.00000000      0.00000000      0.00000000</v>
   <i name="OFIELD_Q6_NEAR">      0.00000000</i>
   <i name="OFIELD_Q6_FAR">      0.00000000</i>
   <i name="OFIELD_A">      0.00000000</i>
  </separator>
 </parameters>
 <atominfo>
  <atoms>       1 </atoms>
  <types>       1 </types>
  <array name="atoms" >
   <dimension dim="1">ion</dimension>
   <field type="string">element</field>
   <field type="int">atomtype</field>
   <set>
    <rc><c>Be</c><c>   1</c></rc>
   </set>
  </array>
  <array name="atomtypes" >
   <dimension dim="1">type</dimension>
   <field type="int">atomspertype</field>
   <field type="string">element</field>
   <field>mass</field>
   <field>valence</field>
   <field type="string">pseudopotential</field>
   <set>
    <rc><c>   1</c><c>Be</c><c>      9.01300000</c><c>      4.00000000</c><c>  PAW_PBE Be_sv 06Sep2000               </c></rc>
   </set>
  </array>
 </atominfo>
 <structure name="initialpos" >
  <crystal>
   <varray name="basis" >
    <v>      10.00000000       0.00000000       0.00000000 </v>
    <v>       0.00000000      10.00000000       0.00000000 </v>
    <v>       0.00000000       0.00000000      10.00000000 </v>
   </varray>
   <i name="volume">   1000.00000000 </i>
   <varray name="rec_basis" >
    <v>       0.10000000       0.00000000       0.00000000 </v>
    <v>       0.00000000       0.10000000       0.00000000 </v>
    <v>       0.00000000       0.00000000       0.10000000 </v>
   </varray>
  </crystal>
  <varray name="positions" >
   <v>       0.50000000       0.50000000       0.50000000 </v>
  </varray>
 </structure>
 <calculation>
  <scstep>
   <time name="total">    0.56    0.57</time>
   <energy>
    <i name="alphaZ">      0.12192724 </i>
    <i name="ewald">    -32.68518401 </i>
    <i name="hartreedc">   -121.83979577 </i>
    <i name="XCdc">     15.62308391 </i>
    <i name="pawpsdc">    134.88106048 </i>
    <i name="pawaedc">   -170.95887146 </i>
    <i name="eentropy">     -0.00000000 </i>
    <i name="bandstr">   -207.58390877 </i>
    <i name="atom">    398.14212705 </i>
    <i name="e_fr_energy">     15.70043867 </i>
    <i name="e_wo_entrp">     15.70043867 </i>
    <i name="e_0_energy">     15.70043867 </i>
   </energy>
  </scstep>
  <scstep>
   <time name="total">    0.34    0.34</time>
   <energy>
    <i name="e_fr_energy">      1.85005600 </i>
    <i name="e_wo_entrp">      1.85005600 </i>
    <i name="e_0_energy">      1.85005600 </i>
   </energy>
  </scstep>
  <scstep>
   <time name="total">    0.33    0.33</time>
   <energy>
    <i name="e_fr_energy">      0.33816967 </i>
    <i name="e_wo_entrp">      0.33816967 </i>
    <i name="e_0_energy">      0.33816967 </i>
   </energy>
  </scstep>
  <scstep>
   <time name="total">    0.33    0.33</time>
   <energy>
    <i name="e_fr_energy">      0.23909653 </i>
    <i name="e_wo_entrp">      0.23909653 </i>
    <i name="e_0_energy">      0.23909653 </i>
   </energy>
  </scstep>
  <scstep>
   <time name="total">    0.56    0.56</time>
   <energy>
    <i name="e_fr_energy">      0.22622870 </i>
    <i name="e_wo_entrp">      0.22622870 </i>
    <i name="e_0_energy">      0.22622870 </i>
   </energy>
  </scstep>
  <scstep>
   <time name="total">    0.71    0.71</time>
   <energy>
    <i name="e_fr_energy">     -0.03713330 </i>
    <i name="e_wo_entrp">     -0.03713330 </i>
    <i name="e_0_energy">     -0.03713330 </i>
   </energy>
  </scstep>
  <scstep>
   <time name="total">    0.67    0.67</time>
   <energy>
    <i name="e_fr_energy">     -0.03601124 </i>
    <i name="e_wo_entrp">     -0.03601124 </i>
    <i name="e_0_energy">     -0.03601124 </i>
   </energy>
  </scstep>
  <scstep>
   <time name="total">    0.68    0.68</time>
   <energy>
    <i name="e_fr_energy">      0.02245981 </i>
    <i name="e_wo_entrp">      0.02245981 </i>
    <i name="e_0_energy">      0.02245981 </i>
   </energy>
  </scstep>
  <scstep>
   <time name="total">    0.68    0.68</time>
   <energy>
    <i name="e_fr_energy">      0.81836695 </i>
    <i name="e_wo_entrp">      0.81836695 </i>
    <i name="e_0_energy">      0.81836695 </i>
   </energy>
  </scstep>
  <scstep>
   <time name="total">    0.70    0.70</time>
   <energy>
    <i name="e_fr_energy">     10.03984714 </i>
    <i name="e_wo_entrp">     10.03984714 </i>
    <i name="e_0_energy">     10.03984714 </i>
   </energy>
  </scstep>
  <scstep>
   <time name="total">    0.68    0.68</time>
   <energy>
    <i name="e_fr_energy">     65.25780257 </i>
    <i name="e_wo_entrp">     65.25780257 </i>
    <i name="e_0_energy">     65.25780257 </i>
   </energy>
  </scstep>
  <scstep>
   <time name="total">    0.68    0.68</time>
   <energy>
    <i name="e_fr_energy">     85.94523568 </i>
    <i name="e_wo_entrp">     85.94523568 </i>
    <i name="e_0_energy">     85.94523568 </i>
   </energy>
  </scstep>
  <scstep>
   <time name="total">    0.69    0.69</time>
   <energy>
    <i name="e_fr_energy">     33.27948964 </i>
    <i name="e_wo_entrp">     33.27948964 </i>
    <i name="e_0_energy">     33.27948964 </i>
   </energy>
  </scstep>
  <scstep>
   <time name="total">    0.68    0.68</time>
   <energy>
    <i name="e_fr_energy">      8.89701010 </i>
    <i name="e_wo_entrp">      8.89701010 </i>
    <i name="e_0_energy">      8.89701010 </i>
   </energy>
  </scstep>
  <scstep>
   <time name="total">    0.67    0.67</time>
   <energy>
    <i name="e_fr_energy">      3.42892508 </i>
    <i name="e_wo_entrp">      3.42892508 </i>
    <i name="e_0_energy">      3.42892508 </i>
   </energy>
  </scstep>
  <scstep>
   <time name="total">    0.67    0.67</time>
   <energy>
    <i name="e_fr_energy">      2.12000524 </i>
    <i name="e_wo_entrp">      2.12000524 </i>
    <i name="e_0_energy">      2.12000524 </i>
   </energy>
  </scstep>
  <scstep>
   <time name="total">    0.69    0.69</time>
   <energy>
    <i name="e_fr_energy">      1.66225771 </i>
    <i name="e_wo_entrp">      1.66225771 </i>
    <i name="e_0_energy">      1.66225771 </i>
   </energy>
  </scstep>
  <scstep>
   <time name="total">    0.68    0.68</time>
   <energy>
    <i name="e_fr_energy">      1.34002289 </i>
    <i name="e_wo_entrp">      1.34002289 </i>
    <i name="e_0_energy">      1.34002289 </i>
   </energy>
  </scstep>
  <scstep>
   <time name="total">    0.67    0.67</time>
   <energy>
    <i name="e_fr_energy">      1.08094221 </i>
    <i name="e_wo_entrp">      1.08094221 </i>
    <i name="e_0_energy">      1.08094221 </i>
   </energy>
  </scstep>
  <scstep>
   <time name="total">    0.68    0.68</time>
   <energy>
    <i name="e_fr_energy">      0.92643134 </i>
    <i name="e_wo_entrp">      0.92643134 </i>
    <i name="e_0_energy">      0.92643134 </i>
   </energy>
  </scstep>
  <scstep>
   <time name="total">    0.69    0.69</time>
   <energy>
    <i name="e_fr_energy">      0.82514286 </i>
    <i name="e_wo_entrp">      0.82514286 </i>
    <i name="e_0_energy">      0.82514286 </i>
   </energy>
  </scstep>
  <scstep>
   <time name="total">    0.70    0.70</time>
   <energy>
    <i name="e_fr_energy">      0.73522897 </i>
    <i name="e_wo_entrp">      0.73522897 </i>
    <i name="e_0_energy">      0.73522897 </i>
   </energy>
  </scstep>
  <scstep>
   <time name="total">    0.68    0.68</time>
   <energy>
    <i name="e_fr_energy">      0.65461366 </i>
    <i name="e_wo_entrp">      0.65461366 </i>
    <i name="e_0_energy">      0.65461366 </i>
   </energy>
  </scstep>
  <scstep>
   <time name="total">    0.68    0.68</time>
   <energy>
    <i name="e_fr_energy">      0.57856664 </i>
    <i name="e_wo_entrp">      0.57856664 </i>
    <i name="e_0_energy">      0.57856664 </i>
   </energy>
  </scstep>
  <scstep>
   <time name="total">    0.67    0.67</time>
   <energy>
    <i name="e_fr_energy">      0.50405742 </i>
    <i name="e_wo_entrp">      0.50405742 </i>
    <i name="e_0_energy">      0.50405742 </i>
   </energy>
  </scstep>
  <scstep>
   <time name="total">    0.68    0.68</time>
   <energy>
    <i name="e_fr_energy">      0.43085122 </i>
    <i name="e_wo_entrp">      0.43085122 </i>
    <i name="e_0_energy">      0.43085122 </i>
   </energy>
  </scstep>
  <scstep>
   <time name="total">    0.70    0.70</time>
   <energy>
    <i name="e_fr_energy">      0.35987701 </i>
    <i name="e_wo_entrp">      0.35987701 </i>
    <i name="e_0_energy">      0.35987701 </i>
   </energy>
  </scstep>
  <scstep>
   <time name="total">    0.68    0.68</time>
   <energy>
    <i name="e_fr_energy">      0.29593457 </i>
    <i name="e_wo_entrp">      0.29593457 </i>
    <i name="e_0_energy">      0.29593457 </i>
   </energy>
  </scstep>
  <scstep>
   <time name="total">    0.68    0.68</time>
   <energy>
    <i name="e_fr_energy">      0.24234644 </i>
    <i name="e_wo_entrp">      0.24234644 </i>
    <i name="e_0_energy">      0.24234644 </i>
   </energy>
  </scstep>
  <scstep>
   <time name="total">    0.67    0.67</time>
   <energy>
    <i name="e_fr_energy">      0.19857271 </i>
    <i name="e_wo_entrp">      0.19857271 </i>
    <i name="e_0_energy">      0.19857271 </i>
   </energy>
  </scstep>
  <scstep>
   <time name="total">    0.68    0.68</time>
   <energy>
    <i name="e_fr_energy">      0.16154767 </i>
    <i name="e_wo_entrp">      0.16154767 </i>
    <i name="e_0_energy">      0.16154767 </i>
   </energy>
  </scstep>
  <scstep>
   <time name="total">    0.67    0.67</time>
   <energy>
    <i name="e_fr_energy">      0.12941389 </i>
    <i name="e_wo_entrp">      0.12941389 </i>
    <i name="e_0_energy">      0.12941389 </i>
   </energy>
  </scstep>
  <scstep>
   <time name="total">    0.69    0.69</time>
   <energy>
    <i name="e_fr_energy">      0.10282489 </i>
    <i name="e_wo_entrp">      0.10282489 </i>
    <i name="e_0_energy">      0.10282489 </i>
   </energy>
  </scstep>
  <scstep>
   <time name="total">    0.68    0.68</time>
   <energy>
    <i name="e_fr_energy">      0.08071355 </i>
    <i name="e_wo_entrp">      0.08071355 </i>
    <i name="e_0_energy">      0.08071355 </i>
   </energy>
  </scstep>
  <scstep>
   <time name="total">    0.68    0.68</time>
   <energy>
    <i name="e_fr_energy">      0.06096445 </i>
    <i name="e_wo_entrp">      0.06096445 </i>
    <i name="e_0_energy">      0.06096445 </i>
   </energy>
  </scstep>
  <scstep>
   <time name="total">    0.69    0.69</time>
   <energy>
    <i name="e_fr_energy">      0.04307504 </i>
    <i name="e_wo_entrp">      0.04307504 </i>
    <i name="e_0_energy">      0.04307504 </i>
   </energy>
  </scstep>
  <scstep>
   <time name="total">    0.69    0.69</time>
   <energy>
    <i name="e_fr_energy">      0.02749384 </i>
    <i name="e_wo_entrp">      0.02749384 </i>
    <i name="e_0_energy">      0.02749384 </i>
   </energy>
  </scstep>
  <scstep>
   <time name="total">    0.68    0.68</time>
   <energy>
    <i name="e_fr_energy">      0.01455807 </i>
    <i name="e_wo_entrp">      0.01455807 </i>
    <i name="e_0_energy">      0.01455807 </i>
   </energy>
  </scstep>
  <scstep>
   <time name="total">    0.67    0.67</time>
   <energy>
    <i name="e_fr_energy">      0.00408721 </i>
    <i name="e_wo_entrp">      0.00408721 </i>
    <i name="e_0_energy">      0.00408721 </i>
   </energy>
  </scstep>
  <scstep>
   <time name="total">    0.69    0.69</time>
   <energy>
    <i name="e_fr_energy">     -0.00438376 </i>
    <i name="e_wo_entrp">     -0.00438376 </i>
    <i name="e_0_energy">     -0.00438376 </i>
   </energy>
  </scstep>
  <scstep>
   <time name="total">    0.68    0.68</time>
   <energy>
    <i name="e_fr_energy">     -0.01129352 </i>
    <i name="e_wo_entrp">     -0.01129352 </i>
    <i name="e_0_energy">     -0.01129352 </i>
   </energy>
  </scstep>
  <scstep>
   <time name="total">    0.68    0.68</time>
   <energy>
    <i name="e_fr_energy">     -0.01693701 </i>
    <i name="e_wo_entrp">     -0.01693701 </i>
    <i name="e_0_energy">     -0.01693701 </i>
   </energy>
  </scstep>
  <scstep>
   <time name="total">    0.68    0.68</time>
   <energy>
    <i name="e_fr_energy">     -0.02165768 </i>
    <i name="e_wo_entrp">     -0.02165768 </i>
    <i name="e_0_energy">     -0.02165768 </i>
   </energy>
  </scstep>
  <scstep>
   <time name="total">    0.67    0.67</time>
   <energy>
    <i name="e_fr_energy">     -0.02579609 </i>
    <i name="e_wo_entrp">     -0.02579609 </i>
    <i name="e_0_energy">     -0.02579609 </i>
   </energy>
  </scstep>
  <scstep>
   <time name="total">    0.67    0.67</time>
   <energy>
    <i name="e_fr_energy">     -0.02941479 </i>
    <i name="e_wo_entrp">     -0.02941479 </i>
    <i name="e_0_energy">     -0.02941479 </i>
   </energy>
  </scstep>
  <scstep>
   <time name="total">    0.68    0.68</time>
   <energy>
    <i name="e_fr_energy">     -0.03243441 </i>
    <i name="e_wo_entrp">     -0.03243441 </i>
    <i name="e_0_energy">     -0.03243441 </i>
   </energy>
  </scstep>
  <scstep>
   <time name="total">    0.67    0.67</time>
   <energy>
    <i name="e_fr_energy">     -0.03481501 </i>
    <i name="e_wo_entrp">     -0.03481501 </i>
    <i name="e_0_energy">     -0.03481501 </i>
   </energy>
  </scstep>
  <scstep>
   <time name="total">    0.67    0.67</time>
   <energy>
    <i name="e_fr_energy">     -0.03664829 </i>
    <i name="e_wo_entrp">     -0.03664829 </i>
    <i name="e_0_energy">     -0.03664829 </i>
   </energy>
  </scstep>
  <scstep>
   <time name="total">    0.69    0.69</time>
   <energy>
    <i name="e_fr_energy">     -0.03808019 </i>
    <i name="e_wo_entrp">     -0.03808019 </i>
    <i name="e_0_energy">     -0.03808019 </i>
   </energy>
  </scstep>
  <scstep>
   <time name="total">    0.68    0.68</time>
   <energy>
    <i name="e_fr_energy">     -0.03922050 </i>
    <i name="e_wo_entrp">     -0.03922050 </i>
    <i name="e_0_energy">     -0.03922050 </i>
   </energy>
  </scstep>
  <scstep>
   <time name="total">    0.67    0.67</time>
   <energy>
    <i name="e_fr_energy">     -0.04013373 </i>
    <i name="e_wo_entrp">     -0.04013373 </i>
    <i name="e_0_energy">     -0.04013373 </i>
   </energy>
  </scstep>
  <scstep>
   <time name="total">    0.69    0.69</time>
   <energy>
    <i name="e_fr_energy">     -0.04088044 </i>
    <i name="e_wo_entrp">     -0.04088044 </i>
    <i name="e_0_energy">     -0.04088044 </i>
   </energy>
  </scstep>
  <scstep>
   <time name="total">    0.68    0.68</time>
   <energy>
    <i name="e_fr_energy">     -0.04152596 </i>
    <i name="e_wo_entrp">     -0.04152596 </i>
    <i name="e_0_energy">     -0.04152596 </i>
   </energy>
  </scstep>
  <scstep>
   <time name="total">    0.67    0.67</time>
   <energy>
    <i name="e_fr_energy">     -0.04207882 </i>
    <i name="e_wo_entrp">     -0.04207882 </i>
    <i name="e_0_energy">     -0.04207882 </i>
   </energy>
  </scstep>
  <scstep>
   <time name="total">    0.67    0.67</time>
   <energy>
    <i name="e_fr_energy">     -0.04252814 </i>
    <i name="e_wo_entrp">     -0.04252814 </i>
    <i name="e_0_energy">     -0.04252814 </i>
   </energy>
  </scstep>
  <scstep>
   <time name="total">    0.67    0.67</time>
   <energy>
    <i name="e_fr_energy">     -0.04287022 </i>
    <i name="e_wo_entrp">     -0.04287022 </i>
    <i name="e_0_energy">     -0.04287022 </i>
   </energy>
  </scstep>
  <scstep>
   <time name="total">    0.67    0.67</time>
   <energy>
    <i name="e_fr_energy">     -0.04312447 </i>
    <i name="e_wo_entrp">     -0.04312447 </i>
    <i name="e_0_energy">     -0.04312447 </i>
   </energy>
  </scstep>
  <scstep>
   <time name="total">    0.68    0.68</time>
   <energy>
    <i name="e_fr_energy">     -0.04332102 </i>
    <i name="e_wo_entrp">     -0.04332102 </i>
    <i name="e_0_energy">     -0.04332102 </i>
   </energy>
  </scstep>
  <scstep>
   <time name="total">    0.68    0.68</time>
   <energy>
    <i name="e_fr_energy">     -0.04347554 </i>
    <i name="e_wo_entrp">     -0.04347554 </i>
    <i name="e_0_energy">     -0.04347554 </i>
   </energy>
  </scstep>
  <scstep>
   <time name="total">    0.68    0.68</time>
   <energy>
    <i name="e_fr_energy">     -0.04359481 </i>
    <i name="e_wo_entrp">     -0.04359481 </i>
    <i name="e_0_energy">     -0.04359481 </i>
   </energy>
  </scstep>
  <scstep>
   <time name="total">    0.67    0.67</time>
   <energy>
    <i name="e_fr_energy">     -0.04368895 </i>
    <i name="e_wo_entrp">     -0.04368895 </i>
    <i name="e_0_energy">     -0.04368895 </i>
   </energy>
  </scstep>
  <scstep>
   <time name="total">    0.67    0.68</time>
   <energy>
    <i name="e_fr_energy">     -0.04376418 </i>
    <i name="e_wo_entrp">     -0.04376418 </i>
    <i name="e_0_energy">     -0.04376418 </i>
   </energy>
  </scstep>
  <scstep>
   <time name="total">    0.69    0.69</time>
   <energy>
    <i name="e_fr_energy">     -0.04382830 </i>
    <i name="e_wo_entrp">     -0.04382830 </i>
    <i name="e_0_energy">     -0.04382830 </i>
   </energy>
  </scstep>
  <scstep>
   <time name="total">    0.68    0.68</time>
   <energy>
    <i name="e_fr_energy">     -0.04388052 </i>
    <i name="e_wo_entrp">     -0.04388052 </i>
    <i name="e_0_energy">     -0.04388052 </i>
   </energy>
  </scstep>
  <scstep>
   <time name="total">    0.72    0.72</time>
   <energy>
    <i name="alphaZ">      0.12192724 </i>
    <i name="ewald">    -32.68518401 </i>
    <i name="hartreedc">   -121.83700265 </i>
    <i name="XCdc">     15.55395975 </i>
    <i name="pawpsdc">    134.93267539 </i>
    <i name="pawaedc">   -170.97864961 </i>
    <i name="eentropy">     -0.00000000 </i>
    <i name="bandstr">   -223.29377359 </i>
    <i name="atom">    398.14212705 </i>
    <i name="e_fr_energy">     -0.04392043 </i>
    <i name="e_wo_entrp">     -0.04392043 </i>
    <i name="e_0_energy">     -0.04392043 </i>
   </energy>
  </scstep>
  <structure>
   <crystal>
    <varray name="basis" >
     <v>      10.00000000       0.00000000       0.00000000 </v>
     <v>       0.00000000      10.00000000       0.00000000 </v>
     <v>       0.00000000       0.00000000      10.00000000 </v>
    </varray>
    <i name="volume">   1000.00000000 </i>
    <varray name="rec_basis" >
     <v>       0.10000000       0.00000000       0.00000000 </v>
     <v>       0.00000000       0.10000000       0.00000000 </v>
     <v>       0.00000000       0.00000000       0.10000000 </v>
    </varray>
   </crystal>
   <varray name="positions" >
    <v>       0.50000000       0.50000000       0.50000000 </v>
   </varray>
  </structure>
  <varray name="forces" >
   <v>       0.00000000       0.00000000       0.00000000 </v>
  </varray>
  <varray name="stress" >
   <v>      -0.07975784       0.00000000       0.00000000 </v>
   <v>       0.00000000      -0.07975784       0.00000000 </v>
   <v>      -0.00000000       0.00000000      -0.07975784 </v>
  </varray>
  <energy>
   <i name="e_fr_energy">     -0.04392043 </i>
   <i name="e_wo_entrp">     -0.04392043 </i>
   <i name="e_0_energy">     -0.00000000 </i>
  </energy>
  <time name="totalsc">   48.97   49.12</time>
  <eigenvalues>
   <array>
    <dimension dim="1">band</dimension>
    <dimension dim="2">kpoint</dimension>
    <dimension dim="3">spin</dimension>
    <field>eigene</field>
    <field>occ</field>
    <set>
     <set comment="spin 1">
      <set comment="kpoint 1">
       <r> -106.1441    1.0000 </r>
       <r>   -5.5028    1.0000 </r>
       <r>   -1.8979    0.0000 </r>
       <r>   -1.8979    0.0000 </r>
       <r>   -1.8979    0.0000 </r>
       <r>   -0.2810    0.0000 </r>
       <r>    0.9453    0.0000 </r>
       <r>    0.9453    0.0000 </r>
       <r>    1.3013    0.0000 </r>
       <r>    1.3013    0.0000 </r>
       <r>    1.3013    0.0000 </r>
       <r>    1.5701    0.0000 </r>
       <r>    2.0591    0.0000 </r>
       <r>    2.0591    0.0000 </r>
       <r>    2.0591    0.0000 </r>
       <r>    2.5389    0.0000 </r>
       <r>    2.5389    0.0000 </r>
       <r>    2.5626    0.0000 </r>
       <r>    2.5626    0.0000 </r>
       <r>    2.5626    0.0000 </r>
       <r>    2.9644    0.0000 </r>
       <r>    2.9644    0.0000 </r>
       <r>    2.9644    0.0000 </r>
       <r>    3.5251    0.0000 </r>
       <r>    3.8185    0.0000 </r>
       <r>    3.8185    0.0000 </r>
       <r>    3.8185    0.0000 </r>
       <r>    3.8233    0.0000 </r>
       <r>    4.2402    0.0000 </r>
       <r>    4.2402    0.0000 </r>
       <r>    4.2402    0.0000 </r>
       <r>    4.6396    0.0000 </r>
       <r>    4.6651    0.0000 </r>
       <r>    4.6651    0.0000 </r>
       <r>    5.8729    0.0000 </r>
       <r>    5.9610    0.0000 </r>
      </set>
     </set>
     <set comment="spin 2">
      <set comment="kpoint 1">
       <r> -106.1441    1.0000 </r>
       <r>   -5.5028    1.0000 </r>
       <r>   -1.8979    0.0000 </r>
       <r>   -1.8979    0.0000 </r>
       <r>   -1.8979    0.0000 </r>
       <r>   -0.2810    0.0000 </r>
       <r>    0.9453    0.0000 </r>
       <r>    0.9453    0.0000 </r>
       <r>    1.3013    0.0000 </r>
       <r>    1.3013    0.0000 </r>
       <r>    1.3013    0.0000 </r>
       <r>    1.5701    0.0000 </r>
       <r>    2.0591    0.0000 </r>
       <r>    2.0591    0.0000 </r>
       <r>    2.0591    0.0000 </r>
       <r>    2.5389    0.0000 </r>
       <r>    2.5389    0.0000 </r>
       <r>    2.5626    0.0000 </r>
       <r>    2.5626    0.0000 </r>
       <r>    2.5626    0.0000 </r>
       <r>    2.9644    0.0000 </r>
       <r>    2.9644    0.0000 </r>
       <r>    2.9644    0.0000 </r>
       <r>    3.5251    0.0000 </r>
       <r>    3.8185    0.0000 </r>
       <r>    3.8185    0.0000 </r>
       <r>    3.8185    0.0000 </r>
       <r>    3.8233    0.0000 </r>
       <r>    4.2402    0.0000 </r>
       <r>    4.2402    0.0000 </r>
       <r>    4.2403    0.0000 </r>
       <r>    4.6397    0.0000 </r>
       <r>    4.6649    0.0000 </r>
       <r>    4.6651    0.0000 </r>
       <r>    5.6580    0.0000 </r>
       <r>    5.6591    0.0000 </r>
      </set>
     </set>
    </set>
   </array>
  </eigenvalues>
  <separator name="orbital magnetization" >
   <v name="MAGDIPOLOUT">      0.00000000      0.00000000      0.00000000</v>
  </separator>
  <dos>
   <i name="efermi">     -5.18414840 </i>
   <total>
    <array>
     <dimension dim="1">gridpoints</dimension>
     <dimension dim="2">spin</dimension>
     <field>energy</field>
     <field>total</field>
     <field>integrated</field>
     <set>
      <set comment="spin 1">
       <r>  -111.7493     0.0000     0.0000 </r>
       <r>  -111.3383     0.0000     0.0000 </r>
       <r>  -110.9272     0.0000     0.0000 </r>
       <r>  -110.5162     0.0000     0.0000 </r>
       <r>  -110.1051     0.0000     0.0000 </r>
       <r>  -109.6941     0.0000     0.0000 </r>
       <r>  -109.2830     0.0000     0.0000 </r>
       <r>  -108.8720     0.0000     0.0000 </r>
       <r>  -108.4609     0.0000     0.0000 </r>
       <r>  -108.0499     0.0000     0.0000 </r>
       <r>  -107.6388     0.0000     0.0000 </r>
       <r>  -107.2277     0.0000     0.0000 </r>
       <r>  -106.8167     0.0000     0.0000 </r>
       <r>  -106.4056     0.0000     0.0000 </r>
       <r>  -105.9946     2.4328     1.0000 </r>
       <r>  -105.5835     0.0000     1.0000 </r>
       <r>  -105.1725     0.0000     1.0000 </r>
       <r>  -104.7614     0.0000     1.0000 </r>
       <r>  -104.3504     0.0000     1.0000 </r>
       <r>  -103.9393     0.0000     1.0000 </r>
       <r>  -103.5283     0.0000     1.0000 </r>
       <r>  -103.1172     0.0000     1.0000 </r>
       <r>  -102.7062     0.0000     1.0000 </r>
       <r>  -102.2951     0.0000     1.0000 </r>
       <r>  -101.8841     0.0000     1.0000 </r>
       <r>  -101.4730     0.0000     1.0000 </r>
       <r>  -101.0620     0.0000     1.0000 </r>
       <r>  -100.6509     0.0000     1.0000 </r>
       <r>  -100.2399     0.0000     1.0000 </r>
       <r>   -99.8288     0.0000     1.0000 </r>
       <r>   -99.4178     0.0000     1.0000 </r>
       <r>   -99.0067     0.0000     1.0000 </r>
       <r>   -98.5957     0.0000     1.0000 </r>
       <r>   -98.1846     0.0000     1.0000 </r>
       <r>   -97.7736     0.0000     1.0000 </r>
       <r>   -97.3625     0.0000     1.0000 </r>
       <r>   -96.9515     0.0000     1.0000 </r>
       <r>   -96.5404     0.0000     1.0000 </r>
       <r>   -96.1293     0.0000     1.0000 </r>
       <r>   -95.7183     0.0000     1.0000 </r>
       <r>   -95.3072     0.0000     1.0000 </r>
       <r>   -94.8962     0.0000     1.0000 </r>
       <r>   -94.4851     0.0000     1.0000 </r>
       <r>   -94.0741     0.0000     1.0000 </r>
       <r>   -93.6630     0.0000     1.0000 </r>
       <r>   -93.2520     0.0000     1.0000 </r>
       <r>   -92.8409     0.0000     1.0000 </r>
       <r>   -92.4299     0.0000     1.0000 </r>
       <r>   -92.0188     0.0000     1.0000 </r>
       <r>   -91.6078     0.0000     1.0000 </r>
       <r>   -91.1967     0.0000     1.0000 </r>
       <r>   -90.7857     0.0000     1.0000 </r>
       <r>   -90.3746     0.0000     1.0000 </r>
       <r>   -89.9636     0.0000     1.0000 </r>
       <r>   -89.5525     0.0000     1.0000 </r>
       <r>   -89.1415     0.0000     1.0000 </r>
       <r>   -88.7304     0.0000     1.0000 </r>
       <r>   -88.3194     0.0000     1.0000 </r>
       <r>   -87.9083     0.0000     1.0000 </r>
       <r>   -87.4973     0.0000     1.0000 </r>
       <r>   -87.0862     0.0000     1.0000 </r>
       <r>   -86.6752     0.0000     1.0000 </r>
       <r>   -86.2641     0.0000     1.0000 </r>
       <r>   -85.8531     0.0000     1.0000 </r>
       <r>   -85.4420     0.0000     1.0000 </r>
       <r>   -85.0310     0.0000     1.0000 </r>
       <r>   -84.6199     0.0000     1.0000 </r>
       <r>   -84.2088     0.0000     1.0000 </r>
       <r>   -83.7978     0.0000     1.0000 </r>
       <r>   -83.3867     0.0000     1.0000 </r>
       <r>   -82.9757     0.0000     1.0000 </r>
       <r>   -82.5646     0.0000     1.0000 </r>
       <r>   -82.1536     0.0000     1.0000 </r>
       <r>   -81.7425     0.0000     1.0000 </r>
       <r>   -81.3315     0.0000     1.0000 </r>
       <r>   -80.9204     0.0000     1.0000 </r>
       <r>   -80.5094     0.0000     1.0000 </r>
       <r>   -80.0983     0.0000     1.0000 </r>
       <r>   -79.6873     0.0000     1.0000 </r>
       <r>   -79.2762     0.0000     1.0000 </r>
       <r>   -78.8652     0.0000     1.0000 </r>
       <r>   -78.4541     0.0000     1.0000 </r>
       <r>   -78.0431     0.0000     1.0000 </r>
       <r>   -77.6320     0.0000     1.0000 </r>
       <r>   -77.2210     0.0000     1.0000 </r>
       <r>   -76.8099     0.0000     1.0000 </r>
       <r>   -76.3989     0.0000     1.0000 </r>
       <r>   -75.9878     0.0000     1.0000 </r>
       <r>   -75.5768     0.0000     1.0000 </r>
       <r>   -75.1657     0.0000     1.0000 </r>
       <r>   -74.7547     0.0000     1.0000 </r>
       <r>   -74.3436     0.0000     1.0000 </r>
       <r>   -73.9326     0.0000     1.0000 </r>
       <r>   -73.5215     0.0000     1.0000 </r>
       <r>   -73.1105     0.0000     1.0000 </r>
       <r>   -72.6994     0.0000     1.0000 </r>
       <r>   -72.2883     0.0000     1.0000 </r>
       <r>   -71.8773     0.0000     1.0000 </r>
       <r>   -71.4662     0.0000     1.0000 </r>
       <r>   -71.0552     0.0000     1.0000 </r>
       <r>   -70.6441     0.0000     1.0000 </r>
       <r>   -70.2331     0.0000     1.0000 </r>
       <r>   -69.8220     0.0000     1.0000 </r>
       <r>   -69.4110     0.0000     1.0000 </r>
       <r>   -68.9999     0.0000     1.0000 </r>
       <r>   -68.5889     0.0000     1.0000 </r>
       <r>   -68.1778     0.0000     1.0000 </r>
       <r>   -67.7668     0.0000     1.0000 </r>
       <r>   -67.3557     0.0000     1.0000 </r>
       <r>   -66.9447     0.0000     1.0000 </r>
       <r>   -66.5336     0.0000     1.0000 </r>
       <r>   -66.1226     0.0000     1.0000 </r>
       <r>   -65.7115     0.0000     1.0000 </r>
       <r>   -65.3005     0.0000     1.0000 </r>
       <r>   -64.8894     0.0000     1.0000 </r>
       <r>   -64.4784     0.0000     1.0000 </r>
       <r>   -64.0673     0.0000     1.0000 </r>
       <r>   -63.6563     0.0000     1.0000 </r>
       <r>   -63.2452     0.0000     1.0000 </r>
       <r>   -62.8342     0.0000     1.0000 </r>
       <r>   -62.4231     0.0000     1.0000 </r>
       <r>   -62.0121     0.0000     1.0000 </r>
       <r>   -61.6010     0.0000     1.0000 </r>
       <r>   -61.1900     0.0000     1.0000 </r>
       <r>   -60.7789     0.0000     1.0000 </r>
       <r>   -60.3678     0.0000     1.0000 </r>
       <r>   -59.9568     0.0000     1.0000 </r>
       <r>   -59.5457     0.0000     1.0000 </r>
       <r>   -59.1347     0.0000     1.0000 </r>
       <r>   -58.7236     0.0000     1.0000 </r>
       <r>   -58.3126     0.0000     1.0000 </r>
       <r>   -57.9015     0.0000     1.0000 </r>
       <r>   -57.4905     0.0000     1.0000 </r>
       <r>   -57.0794     0.0000     1.0000 </r>
       <r>   -56.6684     0.0000     1.0000 </r>
       <r>   -56.2573     0.0000     1.0000 </r>
       <r>   -55.8463     0.0000     1.0000 </r>
       <r>   -55.4352     0.0000     1.0000 </r>
       <r>   -55.0242     0.0000     1.0000 </r>
       <r>   -54.6131     0.0000     1.0000 </r>
       <r>   -54.2021     0.0000     1.0000 </r>
       <r>   -53.7910     0.0000     1.0000 </r>
       <r>   -53.3800     0.0000     1.0000 </r>
       <r>   -52.9689     0.0000     1.0000 </r>
       <r>   -52.5579     0.0000     1.0000 </r>
       <r>   -52.1468     0.0000     1.0000 </r>
       <r>   -51.7358     0.0000     1.0000 </r>
       <r>   -51.3247     0.0000     1.0000 </r>
       <r>   -50.9137     0.0000     1.0000 </r>
       <r>   -50.5026     0.0000     1.0000 </r>
       <r>   -50.0916     0.0000     1.0000 </r>
       <r>   -49.6805     0.0000     1.0000 </r>
       <r>   -49.2694     0.0000     1.0000 </r>
       <r>   -48.8584     0.0000     1.0000 </r>
       <r>   -48.4473     0.0000     1.0000 </r>
       <r>   -48.0363     0.0000     1.0000 </r>
       <r>   -47.6252     0.0000     1.0000 </r>
       <r>   -47.2142     0.0000     1.0000 </r>
       <r>   -46.8031     0.0000     1.0000 </r>
       <r>   -46.3921     0.0000     1.0000 </r>
       <r>   -45.9810     0.0000     1.0000 </r>
       <r>   -45.5700     0.0000     1.0000 </r>
       <r>   -45.1589     0.0000     1.0000 </r>
       <r>   -44.7479     0.0000     1.0000 </r>
       <r>   -44.3368     0.0000     1.0000 </r>
       <r>   -43.9258     0.0000     1.0000 </r>
       <r>   -43.5147     0.0000     1.0000 </r>
       <r>   -43.1037     0.0000     1.0000 </r>
       <r>   -42.6926     0.0000     1.0000 </r>
       <r>   -42.2816     0.0000     1.0000 </r>
       <r>   -41.8705     0.0000     1.0000 </r>
       <r>   -41.4595     0.0000     1.0000 </r>
       <r>   -41.0484     0.0000     1.0000 </r>
       <r>   -40.6374     0.0000     1.0000 </r>
       <r>   -40.2263     0.0000     1.0000 </r>
       <r>   -39.8153     0.0000     1.0000 </r>
       <r>   -39.4042     0.0000     1.0000 </r>
       <r>   -38.9932     0.0000     1.0000 </r>
       <r>   -38.5821     0.0000     1.0000 </r>
       <r>   -38.1711     0.0000     1.0000 </r>
       <r>   -37.7600     0.0000     1.0000 </r>
       <r>   -37.3489     0.0000     1.0000 </r>
       <r>   -36.9379     0.0000     1.0000 </r>
       <r>   -36.5268     0.0000     1.0000 </r>
       <r>   -36.1158     0.0000     1.0000 </r>
       <r>   -35.7047     0.0000     1.0000 </r>
       <r>   -35.2937     0.0000     1.0000 </r>
       <r>   -34.8826     0.0000     1.0000 </r>
       <r>   -34.4716     0.0000     1.0000 </r>
       <r>   -34.0605     0.0000     1.0000 </r>
       <r>   -33.6495     0.0000     1.0000 </r>
       <r>   -33.2384     0.0000     1.0000 </r>
       <r>   -32.8274     0.0000     1.0000 </r>
       <r>   -32.4163     0.0000     1.0000 </r>
       <r>   -32.0053     0.0000     1.0000 </r>
       <r>   -31.5942     0.0000     1.0000 </r>
       <r>   -31.1832     0.0000     1.0000 </r>
       <r>   -30.7721     0.0000     1.0000 </r>
       <r>   -30.3611     0.0000     1.0000 </r>
       <r>   -29.9500     0.0000     1.0000 </r>
       <r>   -29.5390     0.0000     1.0000 </r>
       <r>   -29.1279     0.0000     1.0000 </r>
       <r>   -28.7169     0.0000     1.0000 </r>
       <r>   -28.3058     0.0000     1.0000 </r>
       <r>   -27.8948     0.0000     1.0000 </r>
       <r>   -27.4837     0.0000     1.0000 </r>
       <r>   -27.0727     0.0000     1.0000 </r>
       <r>   -26.6616     0.0000     1.0000 </r>
       <r>   -26.2506     0.0000     1.0000 </r>
       <r>   -25.8395     0.0000     1.0000 </r>
       <r>   -25.4284     0.0000     1.0000 </r>
       <r>   -25.0174     0.0000     1.0000 </r>
       <r>   -24.6063     0.0000     1.0000 </r>
       <r>   -24.1953     0.0000     1.0000 </r>
       <r>   -23.7842     0.0000     1.0000 </r>
       <r>   -23.3732     0.0000     1.0000 </r>
       <r>   -22.9621     0.0000     1.0000 </r>
       <r>   -22.5511     0.0000     1.0000 </r>
       <r>   -22.1400     0.0000     1.0000 </r>
       <r>   -21.7290     0.0000     1.0000 </r>
       <r>   -21.3179     0.0000     1.0000 </r>
       <r>   -20.9069     0.0000     1.0000 </r>
       <r>   -20.4958     0.0000     1.0000 </r>
       <r>   -20.0848     0.0000     1.0000 </r>
       <r>   -19.6737     0.0000     1.0000 </r>
       <r>   -19.2627     0.0000     1.0000 </r>
       <r>   -18.8516     0.0000     1.0000 </r>
       <r>   -18.4406     0.0000     1.0000 </r>
       <r>   -18.0295     0.0000     1.0000 </r>
       <r>   -17.6185     0.0000     1.0000 </r>
       <r>   -17.2074     0.0000     1.0000 </r>
       <r>   -16.7964     0.0000     1.0000 </r>
       <r>   -16.3853     0.0000     1.0000 </r>
       <r>   -15.9743     0.0000     1.0000 </r>
       <r>   -15.5632     0.0000     1.0000 </r>
       <r>   -15.1522     0.0000     1.0000 </r>
       <r>   -14.7411     0.0000     1.0000 </r>
       <r>   -14.3301     0.0000     1.0000 </r>
       <r>   -13.9190     0.0000     1.0000 </r>
       <r>   -13.5079     0.0000     1.0000 </r>
       <r>   -13.0969     0.0000     1.0000 </r>
       <r>   -12.6858     0.0000     1.0000 </r>
       <r>   -12.2748     0.0000     1.0000 </r>
       <r>   -11.8637     0.0000     1.0000 </r>
       <r>   -11.4527     0.0000     1.0000 </r>
       <r>   -11.0416     0.0000     1.0000 </r>
       <r>   -10.6306     0.0000     1.0000 </r>
       <r>   -10.2195     0.0000     1.0000 </r>
       <r>    -9.8085     0.0000     1.0000 </r>
       <r>    -9.3974     0.0000     1.0000 </r>
       <r>    -8.9864     0.0000     1.0000 </r>
       <r>    -8.5753     0.0000     1.0000 </r>
       <r>    -8.1643     0.0000     1.0000 </r>
       <r>    -7.7532     0.0000     1.0000 </r>
       <r>    -7.3422     0.0000     1.0000 </r>
       <r>    -6.9311     0.0000     1.0000 </r>
       <r>    -6.5201     0.0000     1.0000 </r>
       <r>    -6.1090     0.0000     1.0000 </r>
       <r>    -5.6980     0.0000     1.0000 </r>
       <r>    -5.2869     2.4328     2.0000 </r>
       <r>    -4.8759     0.0000     2.0000 </r>
       <r>    -4.4648     0.0000     2.0000 </r>
       <r>    -4.0538     0.0000     2.0000 </r>
       <r>    -3.6427     0.0000     2.0000 </r>
       <r>    -3.2317     0.0000     2.0000 </r>
       <r>    -2.8206     0.0000     2.0000 </r>
       <r>    -2.4095     0.0000     2.0000 </r>
       <r>    -1.9985     0.0162     2.0066 </r>
       <r>    -1.5874     7.2822     5.0000 </r>
       <r>    -1.1764     0.0000     5.0000 </r>
       <r>    -0.7653     0.0000     5.0000 </r>
       <r>    -0.3543     0.0463     5.0190 </r>
       <r>     0.0568     2.3865     6.0000 </r>
       <r>     0.4678     0.0000     6.0000 </r>
       <r>     0.8789     0.1462     6.0601 </r>
       <r>     1.2899     7.4460     9.1208 </r>
       <r>     1.7010     7.0042    11.9999 </r>
       <r>     2.1120     6.8076    14.7983 </r>
       <r>     2.5231     2.5535    16.0496 </r>
       <r>     2.9341    11.0403    20.5878 </r>
       <r>     3.3452     5.8685    23.0000 </r>
       <r>     3.7562     2.7887    24.1463 </r>
       <r>     4.1673     9.5178    28.0586 </r>
       <r>     4.5783     7.2916    31.0558 </r>
       <r>     4.9894     7.1626    34.0000 </r>
       <r>     5.4004     0.0000    34.0000 </r>
       <r>     5.8115     0.1004    34.0413 </r>
       <r>     6.2225     4.7652    36.0000 </r>
       <r>     6.6336     0.0000    36.0000 </r>
       <r>     7.0446     0.0000    36.0000 </r>
       <r>     7.4557     0.0000    36.0000 </r>
       <r>     7.8667     0.0000    36.0000 </r>
       <r>     8.2778     0.0000    36.0000 </r>
       <r>     8.6888     0.0000    36.0000 </r>
       <r>     9.0999     0.0000    36.0000 </r>
       <r>     9.5110     0.0000    36.0000 </r>
       <r>     9.9220     0.0000    36.0000 </r>
       <r>    10.3331     0.0000    36.0000 </r>
       <r>    10.7441     0.0000    36.0000 </r>
       <r>    11.1552     0.0000    36.0000 </r>
       <r>    11.5662     0.0000    36.0000 </r>
      </set>
      <set comment="spin 2">
       <r>  -111.7493     0.0000     0.0000 </r>
       <r>  -111.3383     0.0000     0.0000 </r>
       <r>  -110.9272     0.0000     0.0000 </r>
       <r>  -110.5162     0.0000     0.0000 </r>
       <r>  -110.1051     0.0000     0.0000 </r>
       <r>  -109.6941     0.0000     0.0000 </r>
       <r>  -109.2830     0.0000     0.0000 </r>
       <r>  -108.8720     0.0000     0.0000 </r>
       <r>  -108.4609     0.0000     0.0000 </r>
       <r>  -108.0499     0.0000     0.0000 </r>
       <r>  -107.6388     0.0000     0.0000 </r>
       <r>  -107.2277     0.0000     0.0000 </r>
       <r>  -106.8167     0.0000     0.0000 </r>
       <r>  -106.4056     0.0000     0.0000 </r>
       <r>  -105.9946     2.4328     1.0000 </r>
       <r>  -105.5835     0.0000     1.0000 </r>
       <r>  -105.1725     0.0000     1.0000 </r>
       <r>  -104.7614     0.0000     1.0000 </r>
       <r>  -104.3504     0.0000     1.0000 </r>
       <r>  -103.9393     0.0000     1.0000 </r>
       <r>  -103.5283     0.0000     1.0000 </r>
       <r>  -103.1172     0.0000     1.0000 </r>
       <r>  -102.7062     0.0000     1.0000 </r>
       <r>  -102.2951     0.0000     1.0000 </r>
       <r>  -101.8841     0.0000     1.0000 </r>
       <r>  -101.4730     0.0000     1.0000 </r>
       <r>  -101.0620     0.0000     1.0000 </r>
       <r>  -100.6509     0.0000     1.0000 </r>
       <r>  -100.2399     0.0000     1.0000 </r>
       <r>   -99.8288     0.0000     1.0000 </r>
       <r>   -99.4178     0.0000     1.0000 </r>
       <r>   -99.0067     0.0000     1.0000 </r>
       <r>   -98.5957     0.0000     1.0000 </r>
       <r>   -98.1846     0.0000     1.0000 </r>
       <r>   -97.7736     0.0000     1.0000 </r>
       <r>   -97.3625     0.0000     1.0000 </r>
       <r>   -96.9515     0.0000     1.0000 </r>
       <r>   -96.5404     0.0000     1.0000 </r>
       <r>   -96.1293     0.0000     1.0000 </r>
       <r>   -95.7183     0.0000     1.0000 </r>
       <r>   -95.3072     0.0000     1.0000 </r>
       <r>   -94.8962     0.0000     1.0000 </r>
       <r>   -94.4851     0.0000     1.0000 </r>
       <r>   -94.0741     0.0000     1.0000 </r>
       <r>   -93.6630     0.0000     1.0000 </r>
       <r>   -93.2520     0.0000     1.0000 </r>
       <r>   -92.8409     0.0000     1.0000 </r>
       <r>   -92.4299     0.0000     1.0000 </r>
       <r>   -92.0188     0.0000     1.0000 </r>
       <r>   -91.6078     0.0000     1.0000 </r>
       <r>   -91.1967     0.0000     1.0000 </r>
       <r>   -90.7857     0.0000     1.0000 </r>
       <r>   -90.3746     0.0000     1.0000 </r>
       <r>   -89.9636     0.0000     1.0000 </r>
       <r>   -89.5525     0.0000     1.0000 </r>
       <r>   -89.1415     0.0000     1.0000 </r>
       <r>   -88.7304     0.0000     1.0000 </r>
       <r>   -88.3194     0.0000     1.0000 </r>
       <r>   -87.9083     0.0000     1.0000 </r>
       <r>   -87.4973     0.0000     1.0000 </r>
       <r>   -87.0862     0.0000     1.0000 </r>
       <r>   -86.6752     0.0000     1.0000 </r>
       <r>   -86.2641     0.0000     1.0000 </r>
       <r>   -85.8531     0.0000     1.0000 </r>
       <r>   -85.4420     0.0000     1.0000 </r>
       <r>   -85.0310     0.0000     1.0000 </r>
       <r>   -84.6199     0.0000     1.0000 </r>
       <r>   -84.2088     0.0000     1.0000 </r>
       <r>   -83.7978     0.0000     1.0000 </r>
       <r>   -83.3867     0.0000     1.0000 </r>
       <r>   -82.9757     0.0000     1.0000 </r>
       <r>   -82.5646     0.0000     1.0000 </r>
       <r>   -82.1536     0.0000     1.0000 </r>
       <r>   -81.7425     0.0000     1.0000 </r>
       <r>   -81.3315     0.0000     1.0000 </r>
       <r>   -80.9204     0.0000     1.0000 </r>
       <r>   -80.5094     0.0000     1.0000 </r>
       <r>   -80.0983     0.0000     1.0000 </r>
       <r>   -79.6873     0.0000     1.0000 </r>
       <r>   -79.2762     0.0000     1.0000 </r>
       <r>   -78.8652     0.0000     1.0000 </r>
       <r>   -78.4541     0.0000     1.0000 </r>
       <r>   -78.0431     0.0000     1.0000 </r>
       <r>   -77.6320     0.0000     1.0000 </r>
       <r>   -77.2210     0.0000     1.0000 </r>
       <r>   -76.8099     0.0000     1.0000 </r>
       <r>   -76.3989     0.0000     1.0000 </r>
       <r>   -75.9878     0.0000     1.0000 </r>
       <r>   -75.5768     0.0000     1.0000 </r>
       <r>   -75.1657     0.0000     1.0000 </r>
       <r>   -74.7547     0.0000     1.0000 </r>
       <r>   -74.3436     0.0000     1.0000 </r>
       <r>   -73.9326     0.0000     1.0000 </r>
       <r>   -73.5215     0.0000     1.0000 </r>
       <r>   -73.1105     0.0000     1.0000 </r>
       <r>   -72.6994     0.0000     1.0000 </r>
       <r>   -72.2883     0.0000     1.0000 </r>
       <r>   -71.8773     0.0000     1.0000 </r>
       <r>   -71.4662     0.0000     1.0000 </r>
       <r>   -71.0552     0.0000     1.0000 </r>
       <r>   -70.6441     0.0000     1.0000 </r>
       <r>   -70.2331     0.0000     1.0000 </r>
       <r>   -69.8220     0.0000     1.0000 </r>
       <r>   -69.4110     0.0000     1.0000 </r>
       <r>   -68.9999     0.0000     1.0000 </r>
       <r>   -68.5889     0.0000     1.0000 </r>
       <r>   -68.1778     0.0000     1.0000 </r>
       <r>   -67.7668     0.0000     1.0000 </r>
       <r>   -67.3557     0.0000     1.0000 </r>
       <r>   -66.9447     0.0000     1.0000 </r>
       <r>   -66.5336     0.0000     1.0000 </r>
       <r>   -66.1226     0.0000     1.0000 </r>
       <r>   -65.7115     0.0000     1.0000 </r>
       <r>   -65.3005     0.0000     1.0000 </r>
       <r>   -64.8894     0.0000     1.0000 </r>
       <r>   -64.4784     0.0000     1.0000 </r>
       <r>   -64.0673     0.0000     1.0000 </r>
       <r>   -63.6563     0.0000     1.0000 </r>
       <r>   -63.2452     0.0000     1.0000 </r>
       <r>   -62.8342     0.0000     1.0000 </r>
       <r>   -62.4231     0.0000     1.0000 </r>
       <r>   -62.0121     0.0000     1.0000 </r>
       <r>   -61.6010     0.0000     1.0000 </r>
       <r>   -61.1900     0.0000     1.0000 </r>
       <r>   -60.7789     0.0000     1.0000 </r>
       <r>   -60.3678     0.0000     1.0000 </r>
       <r>   -59.9568     0.0000     1.0000 </r>
       <r>   -59.5457     0.0000     1.0000 </r>
       <r>   -59.1347     0.0000     1.0000 </r>
       <r>   -58.7236     0.0000     1.0000 </r>
       <r>   -58.3126     0.0000     1.0000 </r>
       <r>   -57.9015     0.0000     1.0000 </r>
       <r>   -57.4905     0.0000     1.0000 </r>
       <r>   -57.0794     0.0000     1.0000 </r>
       <r>   -56.6684     0.0000     1.0000 </r>
       <r>   -56.2573     0.0000     1.0000 </r>
       <r>   -55.8463     0.0000     1.0000 </r>
       <r>   -55.4352     0.0000     1.0000 </r>
       <r>   -55.0242     0.0000     1.0000 </r>
       <r>   -54.6131     0.0000     1.0000 </r>
       <r>   -54.2021     0.0000     1.0000 </r>
       <r>   -53.7910     0.0000     1.0000 </r>
       <r>   -53.3800     0.0000     1.0000 </r>
       <r>   -52.9689     0.0000     1.0000 </r>
       <r>   -52.5579     0.0000     1.0000 </r>
       <r>   -52.1468     0.0000     1.0000 </r>
       <r>   -51.7358     0.0000     1.0000 </r>
       <r>   -51.3247     0.0000     1.0000 </r>
       <r>   -50.9137     0.0000     1.0000 </r>
       <r>   -50.5026     0.0000     1.0000 </r>
       <r>   -50.0916     0.0000     1.0000 </r>
       <r>   -49.6805     0.0000     1.0000 </r>
       <r>   -49.2694     0.0000     1.0000 </r>
       <r>   -48.8584     0.0000     1.0000 </r>
       <r>   -48.4473     0.0000     1.0000 </r>
       <r>   -48.0363     0.0000     1.0000 </r>
       <r>   -47.6252     0.0000     1.0000 </r>
       <r>   -47.2142     0.0000     1.0000 </r>
       <r>   -46.8031     0.0000     1.0000 </r>
       <r>   -46.3921     0.0000     1.0000 </r>
       <r>   -45.9810     0.0000     1.0000 </r>
       <r>   -45.5700     0.0000     1.0000 </r>
       <r>   -45.1589     0.0000     1.0000 </r>
       <r>   -44.7479     0.0000     1.0000 </r>
       <r>   -44.3368     0.0000     1.0000 </r>
       <r>   -43.9258     0.0000     1.0000 </r>
       <r>   -43.5147     0.0000     1.0000 </r>
       <r>   -43.1037     0.0000     1.0000 </r>
       <r>   -42.6926     0.0000     1.0000 </r>
       <r>   -42.2816     0.0000     1.0000 </r>
       <r>   -41.8705     0.0000     1.0000 </r>
       <r>   -41.4595     0.0000     1.0000 </r>
       <r>   -41.0484     0.0000     1.0000 </r>
       <r>   -40.6374     0.0000     1.0000 </r>
       <r>   -40.2263     0.0000     1.0000 </r>
       <r>   -39.8153     0.0000     1.0000 </r>
       <r>   -39.4042     0.0000     1.0000 </r>
       <r>   -38.9932     0.0000     1.0000 </r>
       <r>   -38.5821     0.0000     1.0000 </r>
       <r>   -38.1711     0.0000     1.0000 </r>
       <r>   -37.7600     0.0000     1.0000 </r>
       <r>   -37.3489     0.0000     1.0000 </r>
       <r>   -36.9379     0.0000     1.0000 </r>
       <r>   -36.5268     0.0000     1.0000 </r>
       <r>   -36.1158     0.0000     1.0000 </r>
       <r>   -35.7047     0.0000     1.0000 </r>
       <r>   -35.2937     0.0000     1.0000 </r>
       <r>   -34.8826     0.0000     1.0000 </r>
       <r>   -34.4716     0.0000     1.0000 </r>
       <r>   -34.0605     0.0000     1.0000 </r>
       <r>   -33.6495     0.0000     1.0000 </r>
       <r>   -33.2384     0.0000     1.0000 </r>
       <r>   -32.8274     0.0000     1.0000 </r>
       <r>   -32.4163     0.0000     1.0000 </r>
       <r>   -32.0053     0.0000     1.0000 </r>
       <r>   -31.5942     0.0000     1.0000 </r>
       <r>   -31.1832     0.0000     1.0000 </r>
       <r>   -30.7721     0.0000     1.0000 </r>
       <r>   -30.3611     0.0000     1.0000 </r>
       <r>   -29.9500     0.0000     1.0000 </r>
       <r>   -29.5390     0.0000     1.0000 </r>
       <r>   -29.1279     0.0000     1.0000 </r>
       <r>   -28.7169     0.0000     1.0000 </r>
       <r>   -28.3058     0.0000     1.0000 </r>
       <r>   -27.8948     0.0000     1.0000 </r>
       <r>   -27.4837     0.0000     1.0000 </r>
       <r>   -27.0727     0.0000     1.0000 </r>
       <r>   -26.6616     0.0000     1.0000 </r>
       <r>   -26.2506     0.0000     1.0000 </r>
       <r>   -25.8395     0.0000     1.0000 </r>
       <r>   -25.4284     0.0000     1.0000 </r>
       <r>   -25.0174     0.0000     1.0000 </r>
       <r>   -24.6063     0.0000     1.0000 </r>
       <r>   -24.1953     0.0000     1.0000 </r>
       <r>   -23.7842     0.0000     1.0000 </r>
       <r>   -23.3732     0.0000     1.0000 </r>
       <r>   -22.9621     0.0000     1.0000 </r>
       <r>   -22.5511     0.0000     1.0000 </r>
       <r>   -22.1400     0.0000     1.0000 </r>
       <r>   -21.7290     0.0000     1.0000 </r>
       <r>   -21.3179     0.0000     1.0000 </r>
       <r>   -20.9069     0.0000     1.0000 </r>
       <r>   -20.4958     0.0000     1.0000 </r>
       <r>   -20.0848     0.0000     1.0000 </r>
       <r>   -19.6737     0.0000     1.0000 </r>
       <r>   -19.2627     0.0000     1.0000 </r>
       <r>   -18.8516     0.0000     1.0000 </r>
       <r>   -18.4406     0.0000     1.0000 </r>
       <r>   -18.0295     0.0000     1.0000 </r>
       <r>   -17.6185     0.0000     1.0000 </r>
       <r>   -17.2074     0.0000     1.0000 </r>
       <r>   -16.7964     0.0000     1.0000 </r>
       <r>   -16.3853     0.0000     1.0000 </r>
       <r>   -15.9743     0.0000     1.0000 </r>
       <r>   -15.5632     0.0000     1.0000 </r>
       <r>   -15.1522     0.0000     1.0000 </r>
       <r>   -14.7411     0.0000     1.0000 </r>
       <r>   -14.3301     0.0000     1.0000 </r>
       <r>   -13.9190     0.0000     1.0000 </r>
       <r>   -13.5079     0.0000     1.0000 </r>
       <r>   -13.0969     0.0000     1.0000 </r>
       <r>   -12.6858     0.0000     1.0000 </r>
       <r>   -12.2748     0.0000     1.0000 </r>
       <r>   -11.8637     0.0000     1.0000 </r>
       <r>   -11.4527     0.0000     1.0000 </r>
       <r>   -11.0416     0.0000     1.0000 </r>
       <r>   -10.6306     0.0000     1.0000 </r>
       <r>   -10.2195     0.0000     1.0000 </r>
       <r>    -9.8085     0.0000     1.0000 </r>
       <r>    -9.3974     0.0000     1.0000 </r>
       <r>    -8.9864     0.0000     1.0000 </r>
       <r>    -8.5753     0.0000     1.0000 </r>
       <r>    -8.1643     0.0000     1.0000 </r>
       <r>    -7.7532     0.0000     1.0000 </r>
       <r>    -7.3422     0.0000     1.0000 </r>
       <r>    -6.9311     0.0000     1.0000 </r>
       <r>    -6.5201     0.0000     1.0000 </r>
       <r>    -6.1090     0.0000     1.0000 </r>
       <r>    -5.6980     0.0000     1.0000 </r>
       <r>    -5.2869     2.4328     2.0000 </r>
       <r>    -4.8759     0.0000     2.0000 </r>
       <r>    -4.4648     0.0000     2.0000 </r>
       <r>    -4.0538     0.0000     2.0000 </r>
       <r>    -3.6427     0.0000     2.0000 </r>
       <r>    -3.2317     0.0000     2.0000 </r>
       <r>    -2.8206     0.0000     2.0000 </r>
       <r>    -2.4095     0.0000     2.0000 </r>
       <r>    -1.9985     0.0162     2.0066 </r>
       <r>    -1.5874     7.2822     5.0000 </r>
       <r>    -1.1764     0.0000     5.0000 </r>
       <r>    -0.7653     0.0000     5.0000 </r>
       <r>    -0.3543     0.0463     5.0190 </r>
       <r>     0.0568     2.3865     6.0000 </r>
       <r>     0.4678     0.0000     6.0000 </r>
       <r>     0.8789     0.1462     6.0601 </r>
       <r>     1.2899     7.4459     9.1208 </r>
       <r>     1.7010     7.0043    11.9999 </r>
       <r>     2.1120     6.8074    14.7982 </r>
       <r>     2.5231     2.5540    16.0498 </r>
       <r>     2.9341    11.0405    20.5880 </r>
       <r>     3.3452     5.8678    23.0000 </r>
       <r>     3.7562     2.7886    24.1463 </r>
       <r>     4.1673     9.5176    28.0585 </r>
       <r>     4.5783     7.2914    31.0556 </r>
       <r>     4.9894     7.1630    34.0000 </r>
       <r>     5.4004     0.0000    34.0000 </r>
       <r>     5.8115     4.8655    36.0000 </r>
       <r>     6.2225     0.0000    36.0000 </r>
       <r>     6.6336     0.0000    36.0000 </r>
       <r>     7.0446     0.0000    36.0000 </r>
       <r>     7.4557     0.0000    36.0000 </r>
       <r>     7.8667     0.0000    36.0000 </r>
       <r>     8.2778     0.0000    36.0000 </r>
       <r>     8.6888     0.0000    36.0000 </r>
       <r>     9.0999     0.0000    36.0000 </r>
       <r>     9.5110     0.0000    36.0000 </r>
       <r>     9.9220     0.0000    36.0000 </r>
       <r>    10.3331     0.0000    36.0000 </r>
       <r>    10.7441     0.0000    36.0000 </r>
       <r>    11.1552     0.0000    36.0000 </r>
       <r>    11.5662     0.0000    36.0000 </r>
      </set>
     </set>
    </array>
   </total>
   <partial>
    <array>
     <dimension dim="1">gridpoints</dimension>
     <dimension dim="2">spin</dimension>
     <dimension dim="3">ion</dimension>
     <field>energy</field>
     <field>    s</field>
     <field>   py</field>
     <field>   pz</field>
     <field>   px</field>
     <field>  dxy</field>
     <field>  dyz</field>
     <field>  dz2</field>
     <field>  dxz</field>
     <field>x2-y2</field>
     <set>
      <set comment="ion 1">
       <set comment="spin 1">
        <r>  -111.7493     0.0000     0.0000     0.0000     0.0000     0.0000     0.0000     0.0000     0.0000     0.0000 </r>
        <r>  -111.3383     0.0000     0.0000     0.0000     0.0000     0.0000     0.0000     0.0000     0.0000     0.0000 </r>
        <r>  -110.9272     0.0000     0.0000     0.0000     0.0000     0.0000     0.0000     0.0000     0.0000     0.0000 </r>
        <r>  -110.5162     0.0000     0.0000     0.0000     0.0000     0.0000     0.0000     0.0000     0.0000     0.0000 </r>
        <r>  -110.1051     0.0000     0.0000     0.0000     0.0000     0.0000     0.0000     0.0000     0.0000     0.0000 </r>
        <r>  -109.6941     0.0000     0.0000     0.0000     0.0000     0.0000     0.0000     0.0000     0.0000     0.0000 </r>
        <r>  -109.2830     0.0000     0.0000     0.0000     0.0000     0.0000     0.0000     0.0000     0.0000     0.0000 </r>
        <r>  -108.8720     0.0000     0.0000     0.0000     0.0000     0.0000     0.0000     0.0000     0.0000     0.0000 </r>
        <r>  -108.4609     0.0000     0.0000     0.0000     0.0000     0.0000     0.0000     0.0000     0.0000     0.0000 </r>
        <r>  -108.0499     0.0000     0.0000     0.0000     0.0000     0.0000     0.0000     0.0000     0.0000     0.0000 </r>
        <r>  -107.6388     0.0000     0.0000     0.0000     0.0000     0.0000     0.0000     0.0000     0.0000     0.0000 </r>
        <r>  -107.2277     0.0000     0.0000     0.0000     0.0000     0.0000     0.0000     0.0000     0.0000     0.0000 </r>
        <r>  -106.8167     0.0000     0.0000     0.0000     0.0000     0.0000     0.0000     0.0000     0.0000     0.0000 </r>
        <r>  -106.4056     0.0000     0.0000     0.0000     0.0000     0.0000     0.0000     0.0000     0.0000     0.0000 </r>
        <r>  -105.9946     2.4301     0.0000     0.0000     0.0000     0.0000     0.0000     0.0000     0.0000     0.0000 </r>
        <r>  -105.5835     0.0000     0.0000     0.0000     0.0000     0.0000     0.0000     0.0000     0.0000     0.0000 </r>
        <r>  -105.1725     0.0000     0.0000     0.0000     0.0000     0.0000     0.0000     0.0000     0.0000     0.0000 </r>
        <r>  -104.7614     0.0000     0.0000     0.0000     0.0000     0.0000     0.0000     0.0000     0.0000     0.0000 </r>
        <r>  -104.3504     0.0000     0.0000     0.0000     0.0000     0.0000     0.0000     0.0000     0.0000     0.0000 </r>
        <r>  -103.9393     0.0000     0.0000     0.0000     0.0000     0.0000     0.0000     0.0000     0.0000     0.0000 </r>
        <r>  -103.5283     0.0000     0.0000     0.0000     0.0000     0.0000     0.0000     0.0000     0.0000     0.0000 </r>
        <r>  -103.1172     0.0000     0.0000     0.0000     0.0000     0.0000     0.0000     0.0000     0.0000     0.0000 </r>
        <r>  -102.7062     0.0000     0.0000     0.0000     0.0000     0.0000     0.0000     0.0000     0.0000     0.0000 </r>
        <r>  -102.2951     0.0000     0.0000     0.0000     0.0000     0.0000     0.0000     0.0000     0.0000     0.0000 </r>
        <r>  -101.8841     0.0000     0.0000     0.0000     0.0000     0.0000     0.0000     0.0000     0.0000     0.0000 </r>
        <r>  -101.4730     0.0000     0.0000     0.0000     0.0000     0.0000     0.0000     0.0000     0.0000     0.0000 </r>
        <r>  -101.0620     0.0000     0.0000     0.0000     0.0000     0.0000     0.0000     0.0000     0.0000     0.0000 </r>
        <r>  -100.6509     0.0000     0.0000     0.0000     0.0000     0.0000     0.0000     0.0000     0.0000     0.0000 </r>
        <r>  -100.2399     0.0000     0.0000     0.0000     0.0000     0.0000     0.0000     0.0000     0.0000     0.0000 </r>
        <r>   -99.8288     0.0000     0.0000     0.0000     0.0000     0.0000     0.0000     0.0000     0.0000     0.0000 </r>
        <r>   -99.4178     0.0000     0.0000     0.0000     0.0000     0.0000     0.0000     0.0000     0.0000     0.0000 </r>
        <r>   -99.0067     0.0000     0.0000     0.0000     0.0000     0.0000     0.0000     0.0000     0.0000     0.0000 </r>
        <r>   -98.5957     0.0000     0.0000     0.0000     0.0000     0.0000     0.0000     0.0000     0.0000     0.0000 </r>
        <r>   -98.1846     0.0000     0.0000     0.0000     0.0000     0.0000     0.0000     0.0000     0.0000     0.0000 </r>
        <r>   -97.7736     0.0000     0.0000     0.0000     0.0000     0.0000     0.0000     0.0000     0.0000     0.0000 </r>
        <r>   -97.3625     0.0000     0.0000     0.0000     0.0000     0.0000     0.0000     0.0000     0.0000     0.0000 </r>
        <r>   -96.9515     0.0000     0.0000     0.0000     0.0000     0.0000     0.0000     0.0000     0.0000     0.0000 </r>
        <r>   -96.5404     0.0000     0.0000     0.0000     0.0000     0.0000     0.0000     0.0000     0.0000     0.0000 </r>
        <r>   -96.1293     0.0000     0.0000     0.0000     0.0000     0.0000     0.0000     0.0000     0.0000     0.0000 </r>
        <r>   -95.7183     0.0000     0.0000     0.0000     0.0000     0.0000     0.0000     0.0000     0.0000     0.0000 </r>
        <r>   -95.3072     0.0000     0.0000     0.0000     0.0000     0.0000     0.0000     0.0000     0.0000     0.0000 </r>
        <r>   -94.8962     0.0000     0.0000     0.0000     0.0000     0.0000     0.0000     0.0000     0.0000     0.0000 </r>
        <r>   -94.4851     0.0000     0.0000     0.0000     0.0000     0.0000     0.0000     0.0000     0.0000     0.0000 </r>
        <r>   -94.0741     0.0000     0.0000     0.0000     0.0000     0.0000     0.0000     0.0000     0.0000     0.0000 </r>
        <r>   -93.6630     0.0000     0.0000     0.0000     0.0000     0.0000     0.0000     0.0000     0.0000     0.0000 </r>
        <r>   -93.2520     0.0000     0.0000     0.0000     0.0000     0.0000     0.0000     0.0000     0.0000     0.0000 </r>
        <r>   -92.8409     0.0000     0.0000     0.0000     0.0000     0.0000     0.0000     0.0000     0.0000     0.0000 </r>
        <r>   -92.4299     0.0000     0.0000     0.0000     0.0000     0.0000     0.0000     0.0000     0.0000     0.0000 </r>
        <r>   -92.0188     0.0000     0.0000     0.0000     0.0000     0.0000     0.0000     0.0000     0.0000     0.0000 </r>
        <r>   -91.6078     0.0000     0.0000     0.0000     0.0000     0.0000     0.0000     0.0000     0.0000     0.0000 </r>
        <r>   -91.1967     0.0000     0.0000     0.0000     0.0000     0.0000     0.0000     0.0000     0.0000     0.0000 </r>
        <r>   -90.7857     0.0000     0.0000     0.0000     0.0000     0.0000     0.0000     0.0000     0.0000     0.0000 </r>
        <r>   -90.3746     0.0000     0.0000     0.0000     0.0000     0.0000     0.0000     0.0000     0.0000     0.0000 </r>
        <r>   -89.9636     0.0000     0.0000     0.0000     0.0000     0.0000     0.0000     0.0000     0.0000     0.0000 </r>
        <r>   -89.5525     0.0000     0.0000     0.0000     0.0000     0.0000     0.0000     0.0000     0.0000     0.0000 </r>
        <r>   -89.1415     0.0000     0.0000     0.0000     0.0000     0.0000     0.0000     0.0000     0.0000     0.0000 </r>
        <r>   -88.7304     0.0000     0.0000     0.0000     0.0000     0.0000     0.0000     0.0000     0.0000     0.0000 </r>
        <r>   -88.3194     0.0000     0.0000     0.0000     0.0000     0.0000     0.0000     0.0000     0.0000     0.0000 </r>
        <r>   -87.9083     0.0000     0.0000     0.0000     0.0000     0.0000     0.0000     0.0000     0.0000     0.0000 </r>
        <r>   -87.4973     0.0000     0.0000     0.0000     0.0000     0.0000     0.0000     0.0000     0.0000     0.0000 </r>
        <r>   -87.0862     0.0000     0.0000     0.0000     0.0000     0.0000     0.0000     0.0000     0.0000     0.0000 </r>
        <r>   -86.6752     0.0000     0.0000     0.0000     0.0000     0.0000     0.0000     0.0000     0.0000     0.0000 </r>
        <r>   -86.2641     0.0000     0.0000     0.0000     0.0000     0.0000     0.0000     0.0000     0.0000     0.0000 </r>
        <r>   -85.8531     0.0000     0.0000     0.0000     0.0000     0.0000     0.0000     0.0000     0.0000     0.0000 </r>
        <r>   -85.4420     0.0000     0.0000     0.0000     0.0000     0.0000     0.0000     0.0000     0.0000     0.0000 </r>
        <r>   -85.0310     0.0000     0.0000     0.0000     0.0000     0.0000     0.0000     0.0000     0.0000     0.0000 </r>
        <r>   -84.6199     0.0000     0.0000     0.0000     0.0000     0.0000     0.0000     0.0000     0.0000     0.0000 </r>
        <r>   -84.2088     0.0000     0.0000     0.0000     0.0000     0.0000     0.0000     0.0000     0.0000     0.0000 </r>
        <r>   -83.7978     0.0000     0.0000     0.0000     0.0000     0.0000     0.0000     0.0000     0.0000     0.0000 </r>
        <r>   -83.3867     0.0000     0.0000     0.0000     0.0000     0.0000     0.0000     0.0000     0.0000     0.0000 </r>
        <r>   -82.9757     0.0000     0.0000     0.0000     0.0000     0.0000     0.0000     0.0000     0.0000     0.0000 </r>
        <r>   -82.5646     0.0000     0.0000     0.0000     0.0000     0.0000     0.0000     0.0000     0.0000     0.0000 </r>
        <r>   -82.1536     0.0000     0.0000     0.0000     0.0000     0.0000     0.0000     0.0000     0.0000     0.0000 </r>
        <r>   -81.7425     0.0000     0.0000     0.0000     0.0000     0.0000     0.0000     0.0000     0.0000     0.0000 </r>
        <r>   -81.3315     0.0000     0.0000     0.0000     0.0000     0.0000     0.0000     0.0000     0.0000     0.0000 </r>
        <r>   -80.9204     0.0000     0.0000     0.0000     0.0000     0.0000     0.0000     0.0000     0.0000     0.0000 </r>
        <r>   -80.5094     0.0000     0.0000     0.0000     0.0000     0.0000     0.0000     0.0000     0.0000     0.0000 </r>
        <r>   -80.0983     0.0000     0.0000     0.0000     0.0000     0.0000     0.0000     0.0000     0.0000     0.0000 </r>
        <r>   -79.6873     0.0000     0.0000     0.0000     0.0000     0.0000     0.0000     0.0000     0.0000     0.0000 </r>
        <r>   -79.2762     0.0000     0.0000     0.0000     0.0000     0.0000     0.0000     0.0000     0.0000     0.0000 </r>
        <r>   -78.8652     0.0000     0.0000     0.0000     0.0000     0.0000     0.0000     0.0000     0.0000     0.0000 </r>
        <r>   -78.4541     0.0000     0.0000     0.0000     0.0000     0.0000     0.0000     0.0000     0.0000     0.0000 </r>
        <r>   -78.0431     0.0000     0.0000     0.0000     0.0000     0.0000     0.0000     0.0000     0.0000     0.0000 </r>
        <r>   -77.6320     0.0000     0.0000     0.0000     0.0000     0.0000     0.0000     0.0000     0.0000     0.0000 </r>
        <r>   -77.2210     0.0000     0.0000     0.0000     0.0000     0.0000     0.0000     0.0000     0.0000     0.0000 </r>
        <r>   -76.8099     0.0000     0.0000     0.0000     0.0000     0.0000     0.0000     0.0000     0.0000     0.0000 </r>
        <r>   -76.3989     0.0000     0.0000     0.0000     0.0000     0.0000     0.0000     0.0000     0.0000     0.0000 </r>
        <r>   -75.9878     0.0000     0.0000     0.0000     0.0000     0.0000     0.0000     0.0000     0.0000     0.0000 </r>
        <r>   -75.5768     0.0000     0.0000     0.0000     0.0000     0.0000     0.0000     0.0000     0.0000     0.0000 </r>
        <r>   -75.1657     0.0000     0.0000     0.0000     0.0000     0.0000     0.0000     0.0000     0.0000     0.0000 </r>
        <r>   -74.7547     0.0000     0.0000     0.0000     0.0000     0.0000     0.0000     0.0000     0.0000     0.0000 </r>
        <r>   -74.3436     0.0000     0.0000     0.0000     0.0000     0.0000     0.0000     0.0000     0.0000     0.0000 </r>
        <r>   -73.9326     0.0000     0.0000     0.0000     0.0000     0.0000     0.0000     0.0000     0.0000     0.0000 </r>
        <r>   -73.5215     0.0000     0.0000     0.0000     0.0000     0.0000     0.0000     0.0000     0.0000     0.0000 </r>
        <r>   -73.1105     0.0000     0.0000     0.0000     0.0000     0.0000     0.0000     0.0000     0.0000     0.0000 </r>
        <r>   -72.6994     0.0000     0.0000     0.0000     0.0000     0.0000     0.0000     0.0000     0.0000     0.0000 </r>
        <r>   -72.2883     0.0000     0.0000     0.0000     0.0000     0.0000     0.0000     0.0000     0.0000     0.0000 </r>
        <r>   -71.8773     0.0000     0.0000     0.0000     0.0000     0.0000     0.0000     0.0000     0.0000     0.0000 </r>
[...]
        <r>    -6.9311     0.0000     0.0000     0.0000     0.0000     0.0000     0.0000     0.0000     0.0000     0.0000 </r>
        <r>    -6.5201     0.0000     0.0000     0.0000     0.0000     0.0000     0.0000     0.0000     0.0000     0.0000 </r>
        <r>    -6.1090     0.0000     0.0000     0.0000     0.0000     0.0000     0.0000     0.0000     0.0000     0.0000 </r>
        <r>    -5.6980     0.0000     0.0000     0.0000     0.0000     0.0000     0.0000     0.0000     0.0000     0.0000 </r>
        <r>    -5.2869     0.6963     0.0000     0.0000     0.0000     0.0000     0.0000     0.0000     0.0000     0.0000 </r>
        <r>    -4.8759     0.0000     0.0000     0.0000     0.0000     0.0000     0.0000     0.0000     0.0000     0.0000 </r>
        <r>    -4.4648     0.0000     0.0000     0.0000     0.0000     0.0000     0.0000     0.0000     0.0000     0.0000 </r>
        <r>    -4.0538     0.0000     0.0000     0.0000     0.0000     0.0000     0.0000     0.0000     0.0000     0.0000 </r>
        <r>    -3.6427     0.0000     0.0000     0.0000     0.0000     0.0000     0.0000     0.0000     0.0000     0.0000 </r>
        <r>    -3.2317     0.0000     0.0000     0.0000     0.0000     0.0000     0.0000     0.0000     0.0000     0.0000 </r>
        <r>    -2.8206     0.0000     0.0000     0.0000     0.0000     0.0000     0.0000     0.0000     0.0000     0.0000 </r>
        <r>    -2.4095     0.0000     0.0000     0.0000     0.0000     0.0000     0.0000     0.0000     0.0000     0.0000 </r>
        <r>    -1.9985     0.0000     0.0012     0.0012     0.0012     0.0000     0.0000     0.0000     0.0000     0.0000 </r>
        <r>    -1.5874     0.0000     0.5397     0.5397     0.5397     0.0000     0.0000     0.0000     0.0000     0.0000 </r>
        <r>    -1.1764     0.0000     0.0000     0.0000     0.0000     0.0000     0.0000     0.0000     0.0000     0.0000 </r>
        <r>    -0.7653     0.0000     0.0000     0.0000     0.0000     0.0000     0.0000     0.0000     0.0000     0.0000 </r>
        <r>    -0.3543     0.0010     0.0000     0.0000     0.0000     0.0000     0.0000     0.0000     0.0000     0.0000 </r>
        <r>     0.0568     0.0495     0.0000     0.0000     0.0000     0.0000     0.0000     0.0000     0.0000     0.0000 </r>
        <r>     0.4678     0.0000     0.0000     0.0000     0.0000     0.0000     0.0000     0.0000     0.0000     0.0000 </r>
        <r>     0.8789     0.0000     0.0000     0.0000     0.0000     0.0000     0.0000     0.0000     0.0000     0.0000 </r>
        <r>     1.2899     0.0000     0.0377     0.0377     0.0377     0.0000     0.0000     0.0000     0.0000     0.0000 </r>
        <r>     1.7010     0.0649     0.0632     0.0632     0.0632     0.0000     0.0000     0.0000     0.0000     0.0000 </r>
        <r>     2.1120     0.0000     0.0000     0.0000     0.0000     0.0000     0.0000     0.0000     0.0000     0.0000 </r>
        <r>     2.5231     0.0000     0.0000     0.0000     0.0000     0.0000     0.0000     0.0000     0.0000     0.0000 </r>
        <r>     2.9341     0.0000     0.0277     0.0277     0.0277     0.0000     0.0000     0.0000     0.0000     0.0000 </r>
        <r>     3.3452     0.0000     0.1135     0.1135     0.1135     0.0000     0.0000     0.0000     0.0000     0.0000 </r>
        <r>     3.7562     0.0855     0.0000     0.0000     0.0000     0.0000     0.0000     0.0000     0.0000     0.0000 </r>
        <r>     4.1673     0.0000     0.0008     0.0008     0.0008     0.0000     0.0000     0.0000     0.0000     0.0000 </r>
        <r>     4.5783     0.0026     0.0419     0.0420     0.0419     0.0000     0.0000     0.0000     0.0000     0.0000 </r>
        <r>     4.9894     0.0594     0.0000     0.0000     0.0000     0.0000     0.0000     0.0000     0.0000     0.0000 </r>
        <r>     5.4004     0.0000     0.0000     0.0000     0.0000     0.0000     0.0000     0.0000     0.0000     0.0000 </r>
        <r>     5.8115     0.0001     0.0362     0.0345     0.0504     0.0000     0.0000     0.0000     0.0000     0.0000 </r>
        <r>     6.2225     0.0000     0.0000     0.0000     0.0000     0.0000     0.0000     0.0000     0.0000     0.0000 </r>
        <r>     6.6336     0.0000     0.0000     0.0000     0.0000     0.0000     0.0000     0.0000     0.0000     0.0000 </r>
        <r>     7.0446     0.0000     0.0000     0.0000     0.0000     0.0000     0.0000     0.0000     0.0000     0.0000 </r>
        <r>     7.4557     0.0000     0.0000     0.0000     0.0000     0.0000     0.0000     0.0000     0.0000     0.0000 </r>
        <r>     7.8667     0.0000     0.0000     0.0000     0.0000     0.0000     0.0000     0.0000     0.0000     0.0000 </r>
        <r>     8.2778     0.0000     0.0000     0.0000     0.0000     0.0000     0.0000     0.0000     0.0000     0.0000 </r>
        <r>     8.6888     0.0000     0.0000     0.0000     0.0000     0.0000     0.0000     0.0000     0.0000     0.0000 </r>
        <r>     9.0999     0.0000     0.0000     0.0000     0.0000     0.0000     0.0000     0.0000     0.0000     0.0000 </r>
        <r>     9.5110     0.0000     0.0000     0.0000     0.0000     0.0000     0.0000     0.0000     0.0000     0.0000 </r>
        <r>     9.9220     0.0000     0.0000     0.0000     0.0000     0.0000     0.0000     0.0000     0.0000     0.0000 </r>
        <r>    10.3331     0.0000     0.0000     0.0000     0.0000     0.0000     0.0000     0.0000     0.0000     0.0000 </r>
        <r>    10.7441     0.0000     0.0000     0.0000     0.0000     0.0000     0.0000     0.0000     0.0000     0.0000 </r>
        <r>    11.1552     0.0000     0.0000     0.0000     0.0000     0.0000     0.0000     0.0000     0.0000     0.0000 </r>
        <r>    11.5662     0.0000     0.0000     0.0000     0.0000     0.0000     0.0000     0.0000     0.0000     0.0000 </r>
       </set>
      </set>
     </set>
    </array>
   </partial>
  </dos>
  <projected>
   <eigenvalues>
    <array>
     <dimension dim="1">band</dimension>
     <dimension dim="2">kpoint</dimension>
     <dimension dim="3">spin</dimension>
     <field>eigene</field>
     <field>occ</field>
     <set>
      <set comment="spin 1">
       <set comment="kpoint 1">
        <r> -106.1441    1.0000 </r>
        <r>   -5.5028    1.0000 </r>
        <r>   -1.8979    0.0000 </r>
        <r>   -1.8979    0.0000 </r>
        <r>   -1.8979    0.0000 </r>
        <r>   -0.2810    0.0000 </r>
        <r>    0.9453    0.0000 </r>
        <r>    0.9453    0.0000 </r>
        <r>    1.3013    0.0000 </r>
        <r>    1.3013    0.0000 </r>
        <r>    1.3013    0.0000 </r>
        <r>    1.5701    0.0000 </r>
        <r>    2.0591    0.0000 </r>
        <r>    2.0591    0.0000 </r>
        <r>    2.0591    0.0000 </r>
        <r>    2.5389    0.0000 </r>
        <r>    2.5389    0.0000 </r>
        <r>    2.5626    0.0000 </r>
        <r>    2.5626    0.0000 </r>
        <r>    2.5626    0.0000 </r>
        <r>    2.9644    0.0000 </r>
        <r>    2.9644    0.0000 </r>
        <r>    2.9644    0.0000 </r>
        <r>    3.5251    0.0000 </r>
        <r>    3.8185    0.0000 </r>
        <r>    3.8185    0.0000 </r>
        <r>    3.8185    0.0000 </r>
        <r>    3.8233    0.0000 </r>
        <r>    4.2402    0.0000 </r>
        <r>    4.2402    0.0000 </r>
        <r>    4.2402    0.0000 </r>
        <r>    4.6396    0.0000 </r>
        <r>    4.6651    0.0000 </r>
        <r>    4.6651    0.0000 </r>
        <r>    5.8729    0.0000 </r>
        <r>    5.9610    0.0000 </r>
       </set>
      </set>
      <set comment="spin 2">
       <set comment="kpoint 1">
        <r> -106.1441    1.0000 </r>
        <r>   -5.5028    1.0000 </r>
        <r>   -1.8979    0.0000 </r>
        <r>   -1.8979    0.0000 </r>
        <r>   -1.8979    0.0000 </r>
        <r>   -0.2810    0.0000 </r>
        <r>    0.9453    0.0000 </r>
        <r>    0.9453    0.0000 </r>
        <r>    1.3013    0.0000 </r>
        <r>    1.3013    0.0000 </r>
        <r>    1.3013    0.0000 </r>
        <r>    1.5701    0.0000 </r>
        <r>    2.0591    0.0000 </r>
        <r>    2.0591    0.0000 </r>
        <r>    2.0591    0.0000 </r>
        <r>    2.5389    0.0000 </r>
        <r>    2.5389    0.0000 </r>
        <r>    2.5626    0.0000 </r>
        <r>    2.5626    0.0000 </r>
        <r>    2.5626    0.0000 </r>
        <r>    2.9644    0.0000 </r>
        <r>    2.9644    0.0000 </r>
        <r>    2.9644    0.0000 </r>
        <r>    3.5251    0.0000 </r>
        <r>    3.8185    0.0000 </r>
        <r>    3.8185    0.0000 </r>
        <r>    3.8185    0.0000 </r>
        <r>    3.8233    0.0000 </r>
        <r>    4.2402    0.0000 </r>
        <r>    4.2402    0.0000 </r>
        <r>    4.2403    0.0000 </r>
        <r>    4.6397    0.0000 </r>
        <r>    4.6649    0.0000 </r>
        <r>    4.6651    0.0000 </r>
        <r>    5.6580    0.0000 </r>
        <r>    5.6591    0.0000 </r>
       </set>
      </set>
     </set>
    </array>
   </eigenvalues>
   <array>
    <dimension dim="1">ion</dimension>
    <dimension dim="2">band</dimension>
    <dimension dim="3">kpoint</dimension>
    <dimension dim="4">spin</dimension>
    <field>    s</field>
    <field>   py</field>
    <field>   pz</field>
    <field>   px</field>
    <field>  dxy</field>
    <field>  dyz</field>
    <field>  dz2</field>
    <field>  dxz</field>
    <field>x2-y2</field>
    <set>
     <set comment="spin1">
      <set comment="kpoint 1">
       <set comment="band 1">
        <r>  0.9989  0.0000  0.0000  0.0000  0.0000  0.0000  0.0000  0.0000  0.0000 </r>
       </set>
       <set comment="band 2">
        <r>  0.2861  0.0000  0.0000  0.0000  0.0000  0.0000  0.0000  0.0000  0.0000 </r>
       </set>
       <set comment="band 3">
        <r>  0.0000  0.0222  0.0035  0.1966  0.0000  0.0000  0.0000  0.0000  0.0000 </r>
       </set>
       <set comment="band 4">
        <r>  0.0000  0.1988  0.0034  0.0202  0.0000  0.0000  0.0000  0.0000  0.0000 </r>
       </set>
       <set comment="band 5">
        <r>  0.0000  0.0013  0.2155  0.0055  0.0000  0.0000  0.0000  0.0000  0.0000 </r>
       </set>
       <set comment="band 6">
        <r>  0.0208  0.0000  0.0000  0.0000  0.0000  0.0000  0.0000  0.0000  0.0000 </r>
       </set>
       <set comment="band 7">
        <r>  0.0000  0.0000  0.0000  0.0000  0.0000  0.0000  0.0000  0.0000  0.0000 </r>
       </set>
       <set comment="band 8">
        <r>  0.0000  0.0000  0.0000  0.0000  0.0000  0.0000  0.0000  0.0000  0.0000 </r>
       </set>
       <set comment="band 9">
        <r>  0.0000  0.0184  0.0182  0.0049  0.0000  0.0000  0.0000  0.0000  0.0000 </r>
       </set>
       <set comment="band 10">
        <r>  0.0000  0.0215  0.0086  0.0113  0.0000  0.0000  0.0000  0.0000  0.0000 </r>
       </set>
       <set comment="band 11">
        <r>  0.0000  0.0015  0.0147  0.0253  0.0000  0.0000  0.0000  0.0000  0.0000 </r>
       </set>
       <set comment="band 12">
        <r>  0.0267  0.0000  0.0000  0.0000  0.0000  0.0000  0.0000  0.0000  0.0000 </r>
       </set>
       <set comment="band 13">
        <r>  0.0000  0.0000  0.0000  0.0000  0.0000  0.0000  0.0000  0.0000  0.0000 </r>
       </set>
       <set comment="band 14">
        <r>  0.0000  0.0000  0.0000  0.0000  0.0000  0.0000  0.0000  0.0000  0.0000 </r>
       </set>
       <set comment="band 15">
        <r>  0.0000  0.0000  0.0000  0.0000  0.0000  0.0000  0.0000  0.0000  0.0000 </r>
       </set>
       <set comment="band 16">
        <r>  0.0000  0.0000  0.0000  0.0000  0.0000  0.0000  0.0000  0.0000  0.0000 </r>
       </set>
       <set comment="band 17">
        <r>  0.0000  0.0000  0.0000  0.0000  0.0000  0.0000  0.0000  0.0000  0.0000 </r>
       </set>
       <set comment="band 18">
        <r>  0.0000  0.0000  0.0000  0.0000  0.0000  0.0000  0.0000  0.0000  0.0000 </r>
       </set>
       <set comment="band 19">
        <r>  0.0000  0.0000  0.0000  0.0000  0.0000  0.0000  0.0000  0.0000  0.0000 </r>
       </set>
       <set comment="band 20">
        <r>  0.0000  0.0000  0.0000  0.0000  0.0000  0.0000  0.0000  0.0000  0.0000 </r>
       </set>
       <set comment="band 21">
        <r>  0.0000  0.0320  0.0009  0.0251  0.0000  0.0000  0.0000  0.0000  0.0000 </r>
       </set>
       <set comment="band 22">
        <r>  0.0000  0.0120  0.0228  0.0232  0.0000  0.0000  0.0000  0.0000  0.0000 </r>
       </set>
       <set comment="band 23">
        <r>  0.0000  0.0141  0.0343  0.0097  0.0000  0.0000  0.0000  0.0000  0.0000 </r>
       </set>
       <set comment="band 24">
        <r>  0.0352  0.0000  0.0000  0.0000  0.0000  0.0000  0.0000  0.0000  0.0000 </r>
       </set>
       <set comment="band 25">
        <r>  0.0000  0.0000  0.0000  0.0000  0.0000  0.0000  0.0000  0.0000  0.0000 </r>
       </set>
       <set comment="band 26">
        <r>  0.0000  0.0000  0.0000  0.0000  0.0000  0.0000  0.0000  0.0000  0.0000 </r>
       </set>
       <set comment="band 27">
        <r>  0.0000  0.0000  0.0000  0.0000  0.0000  0.0000  0.0000  0.0000  0.0000 </r>
       </set>
       <set comment="band 28">
        <r>  0.0000  0.0000  0.0000  0.0000  0.0000  0.0000  0.0000  0.0000  0.0000 </r>
       </set>
       <set comment="band 29">
        <r>  0.0000  0.0013  0.0063  0.0099  0.0000  0.0000  0.0000  0.0000  0.0000 </r>
       </set>
       <set comment="band 30">
        <r>  0.0000  0.0161  0.0010  0.0004  0.0000  0.0000  0.0000  0.0000  0.0000 </r>
       </set>
       <set comment="band 31">
        <r>  0.0000  0.0001  0.0102  0.0072  0.0000  0.0000  0.0000  0.0000  0.0000 </r>
       </set>
       <set comment="band 32">
        <r>  0.0255  0.0000  0.0000  0.0000  0.0000  0.0000  0.0000  0.0000  0.0000 </r>
       </set>
       <set comment="band 33">
        <r>  0.0000  0.0000  0.0000  0.0000  0.0000  0.0000  0.0000  0.0000  0.0000 </r>
       </set>
       <set comment="band 34">
        <r>  0.0000  0.0000  0.0000  0.0000  0.0000  0.0000  0.0000  0.0000  0.0000 </r>
       </set>
       <set comment="band 35">
        <r>  0.0028  0.0014  0.0000  0.0112  0.0000  0.0000  0.0000  0.0000  0.0000 </r>
       </set>
       <set comment="band 36">
        <r>  0.0099  0.0005  0.0071  0.0000  0.0000  0.0000  0.0000  0.0000  0.0000 </r>
       </set>
      </set>
     </set>
     <set comment="spin2">
      <set comment="kpoint 1">
       <set comment="band 1">
        <r>  0.9989  0.0000  0.0000  0.0000  0.0000  0.0000  0.0000  0.0000  0.0000 </r>
       </set>
       <set comment="band 2">
        <r>  0.2862  0.0000  0.0000  0.0000  0.0000  0.0000  0.0000  0.0000  0.0000 </r>
       </set>
       <set comment="band 3">
        <r>  0.0000  0.0001  0.0038  0.2184  0.0000  0.0000  0.0000  0.0000  0.0000 </r>
       </set>
       <set comment="band 4">
        <r>  0.0000  0.0057  0.2127  0.0040  0.0000  0.0000  0.0000  0.0000  0.0000 </r>
       </set>
       <set comment="band 5">
        <r>  0.0000  0.2166  0.0058  0.0000  0.0000  0.0000  0.0000  0.0000  0.0000 </r>
       </set>
       <set comment="band 6">
        <r>  0.0208  0.0000  0.0000  0.0000  0.0000  0.0000  0.0000  0.0000  0.0000 </r>
       </set>
       <set comment="band 7">
        <r>  0.0000  0.0000  0.0000  0.0000  0.0000  0.0000  0.0000  0.0000  0.0000 </r>
       </set>
       <set comment="band 8">
        <r>  0.0000  0.0000  0.0000  0.0000  0.0000  0.0000  0.0000  0.0000  0.0000 </r>
       </set>
       <set comment="band 9">
        <r>  0.0000  0.0000  0.0278  0.0136  0.0000  0.0000  0.0000  0.0000  0.0000 </r>
       </set>
       <set comment="band 10">
        <r>  0.0000  0.0319  0.0036  0.0060  0.0000  0.0000  0.0000  0.0000  0.0000 </r>
       </set>
       <set comment="band 11">
        <r>  0.0000  0.0095  0.0100  0.0219  0.0000  0.0000  0.0000  0.0000  0.0000 </r>
       </set>
       <set comment="band 12">
        <r>  0.0267  0.0000  0.0000  0.0000  0.0000  0.0000  0.0000  0.0000  0.0000 </r>
       </set>
       <set comment="band 13">
        <r>  0.0000  0.0000  0.0000  0.0000  0.0000  0.0000  0.0000  0.0000  0.0000 </r>
       </set>
       <set comment="band 14">
        <r>  0.0000  0.0000  0.0000  0.0000  0.0000  0.0000  0.0000  0.0000  0.0000 </r>
       </set>
       <set comment="band 15">
        <r>  0.0000  0.0000  0.0000  0.0000  0.0000  0.0000  0.0000  0.0000  0.0000 </r>
       </set>
       <set comment="band 16">
        <r>  0.0000  0.0000  0.0000  0.0000  0.0000  0.0000  0.0000  0.0000  0.0000 </r>
       </set>
       <set comment="band 17">
        <r>  0.0000  0.0000  0.0000  0.0000  0.0000  0.0000  0.0000  0.0000  0.0000 </r>
       </set>
       <set comment="band 18">
        <r>  0.0000  0.0000  0.0000  0.0000  0.0000  0.0000  0.0000  0.0000  0.0000 </r>
       </set>
       <set comment="band 19">
        <r>  0.0000  0.0000  0.0000  0.0000  0.0000  0.0000  0.0000  0.0000  0.0000 </r>
       </set>
       <set comment="band 20">
        <r>  0.0000  0.0000  0.0000  0.0000  0.0000  0.0000  0.0000  0.0000  0.0000 </r>
       </set>
       <set comment="band 21">
        <r>  0.0000  0.0437  0.0043  0.0100  0.0000  0.0000  0.0000  0.0000  0.0000 </r>
       </set>
       <set comment="band 22">
        <r>  0.0000  0.0036  0.0138  0.0406  0.0000  0.0000  0.0000  0.0000  0.0000 </r>
       </set>
       <set comment="band 23">
        <r>  0.0000  0.0107  0.0400  0.0074  0.0000  0.0000  0.0000  0.0000  0.0000 </r>
       </set>
       <set comment="band 24">
        <r>  0.0352  0.0000  0.0000  0.0000  0.0000  0.0000  0.0000  0.0000  0.0000 </r>
       </set>
       <set comment="band 25">
        <r>  0.0000  0.0000  0.0000  0.0000  0.0000  0.0000  0.0000  0.0000  0.0000 </r>
       </set>
       <set comment="band 26">
        <r>  0.0000  0.0000  0.0000  0.0000  0.0000  0.0000  0.0000  0.0000  0.0000 </r>
       </set>
       <set comment="band 27">
        <r>  0.0000  0.0000  0.0000  0.0000  0.0000  0.0000  0.0000  0.0000  0.0000 </r>
       </set>
       <set comment="band 28">
        <r>  0.0000  0.0000  0.0000  0.0000  0.0000  0.0000  0.0000  0.0000  0.0000 </r>
       </set>
       <set comment="band 29">
        <r>  0.0000  0.0106  0.0050  0.0020  0.0000  0.0000  0.0000  0.0000  0.0000 </r>
       </set>
       <set comment="band 30">
        <r>  0.0000  0.0068  0.0055  0.0052  0.0000  0.0000  0.0000  0.0000  0.0000 </r>
       </set>
       <set comment="band 31">
        <r>  0.0000  0.0002  0.0071  0.0103  0.0000  0.0000  0.0000  0.0000  0.0000 </r>
       </set>
       <set comment="band 32">
        <r>  0.0254  0.0000  0.0000  0.0000  0.0000  0.0000  0.0000  0.0000  0.0000 </r>
       </set>
       <set comment="band 33">
        <r>  0.0001  0.0000  0.0000  0.0000  0.0000  0.0000  0.0000  0.0000  0.0000 </r>
       </set>
       <set comment="band 34">
        <r>  0.0000  0.0000  0.0000  0.0000  0.0000  0.0000  0.0000  0.0000  0.0000 </r>
       </set>
       <set comment="band 35">
        <r>  0.0000  0.0132  0.0027  0.0089  0.0000  0.0000  0.0000  0.0000  0.0000 </r>
       </set>
       <set comment="band 36">
        <r>  0.0000  0.0016  0.0114  0.0118  0.0000  0.0000  0.0000  0.0000  0.0000 </r>
       </set>
      </set>
     </set>
    </set>
   </array>
  </projected>
 </calculation>
 <structure name="finalpos" >
  <crystal>
   <varray name="basis" >
    <v>      10.00000000       0.00000000       0.00000000 </v>
    <v>       0.00000000      10.00000000       0.00000000 </v>
    <v>       0.00000000       0.00000000      10.00000000 </v>
   </varray>
   <i name="volume">   1000.00000000 </i>
   <varray name="rec_basis" >
    <v>       0.10000000       0.00000000       0.00000000 </v>
    <v>       0.00000000       0.10000000       0.00000000 </v>
    <v>       0.00000000       0.00000000       0.10000000 </v>
   </varray>
  </crystal>
  <varray name="positions" >
   <v>       0.50000000       0.50000000       0.50000000 </v>
  </varray>
 </structure>
</modeling>
