       N       E                     dE             d eps       ncg     rms          ort
DAV:   1     0.101971992260E+03    0.10197E+03   -0.42422E+03    36   0.289E+02
DAV:   2     0.176289721745E+02   -0.84343E+02   -0.84334E+02    36   0.834E+01
DAV:   3     0.280690276907E+01   -0.14822E+02   -0.14821E+02    36   0.428E+01
DAV:   4     0.125023638595E+01   -0.15567E+01   -0.13968E+01    36   0.136E+01
DAV:   5     0.571085228391E+00   -0.67915E+00   -0.67915E+00    36   0.427E+00
SDA:   6     0.490919770052E+00   -0.80165E-01   -0.58174E+00    36   0.145E+01 0.000E+00
DMP:   7     0.676050698937E-01   -0.42331E+00   -0.25870E+00    36   0.406E+00 0.631E+00
DMP:   8    -0.891414322098E-01   -0.15675E+00   -0.52758E-01    36   0.998E-01 0.841E-01
DMP:   9    -0.123093789824E+00   -0.33952E-01   -0.27987E-01    36   0.688E-01 0.311E-02
DMP:  10    -0.144696641499E+00   -0.21603E-01   -0.17458E-01    36   0.336E-01 0.264E-01
DMP:  11    -0.157507691415E+00   -0.12811E-01   -0.77623E-02    36   0.125E-01 0.180E-01
DMP:  12    -0.164408029686E+00   -0.69003E-02   -0.61079E-02    36   0.907E-02 0.162E-01
DMP:  13    -0.171921693787E+00   -0.75137E-02   -0.72608E-02    36   0.934E-02 0.231E-01
DMP:  14    -0.180322894641E+00   -0.84012E-02   -0.67482E-02    36   0.803E-02 0.231E-01
DMP:  15    -0.187113008206E+00   -0.67901E-02   -0.45807E-02    36   0.522E-02 0.163E-01
DMP:  16    -0.191301223238E+00   -0.41882E-02   -0.24941E-02    36   0.274E-02 0.914E-02
DMP:  17    -0.193455756357E+00   -0.21545E-02   -0.11758E-02    36   0.125E-02 0.443E-02
DMP:  18    -0.194438739618E+00   -0.98298E-03   -0.50581E-03    36   0.521E-03 0.195E-02
DMP:  19    -0.194853222788E+00   -0.41448E-03   -0.20489E-03    36   0.206E-03 0.802E-03
DMP:  20    -0.195018965597E+00   -0.16574E-03   -0.79403E-04    36   0.782E-04 0.315E-03
DMP:  21    -0.195082689701E+00   -0.63724E-04   -0.30158E-04    36   0.300E-04 0.119E-03
DMP:  22    -0.195110136330E+00   -0.27447E-04   -0.21390E-04    36   0.367E-04 0.439E-04
   1 F= -.19511014E+00 E0= -.18098383E+00  d E =-.195110E+00  mag=     1.0000
