<?xml version="1.0" encoding="ISO-8859-1"?>
<modeling>
 <generator>
  <i name="program" type="string">vasp </i>
  <i name="version" type="string">5.4.4.18Apr17-6-g9f103f2a35  </i>
  <i name="subversion" type="string">(build Nov 08 2019 15:19:53) gamma-only         parallel </i>
  <i name="platform" type="string">LinuxIFC </i>
  <i name="date" type="string">2020 11 30 </i>
  <i name="time" type="string">09:31:00 </i>
 </generator>
 <incar>
  <i type="string" name="PREC">accurate</i>
  <i type="string" name="ALGO"> D</i>
  <i type="int" name="ISPIN">     2</i>
  <i type="int" name="NELM">   300</i>
  <i type="int" name="IBRION">     2</i>
  <i name="EDIFF">      0.00005000</i>
  <i type="int" name="NSW">    99</i>
  <i type="int" name="ISIF">     2</i>
  <i name="ENCUT">    520.00000000</i>
  <v name="MAGMOM">      0.60000000</v>
  <i type="string" name="LREAL"> Auto</i>
  <i type="int" name="ISMEAR">     0</i>
  <i name="SIGMA">      0.05000000</i>
  <i type="logical" name="LWAVE"> F  </i>
  <i type="int" name="LORBIT">    11</i>
  <i type="logical" name="LASPH"> T  </i>
  <v type="int" name="KPOINT_BSE">    -1     0     0     0</v>
  <i type="int" name="NELM">   300</i>
  <i type="logical" name="LASPH"> T  </i>
 </incar>
 <structure name="primitive_cell" >
  <crystal>
   <varray name="basis" >
    <v>      10.00000000       0.00000000       0.00000000 </v>
    <v>       0.00000000      10.00000000       0.00000000 </v>
    <v>       0.00000000       0.00000000      10.00000000 </v>
   </varray>
   <i name="volume">   1000.00000000 </i>
   <varray name="rec_basis" >
    <v>       0.10000000       0.00000000       0.00000000 </v>
    <v>       0.00000000       0.10000000       0.00000000 </v>
    <v>       0.00000000       0.00000000       0.10000000 </v>
   </varray>
  </crystal>
  <varray name="positions" >
   <v>      -0.50000000      -0.50000000      -0.50000000 </v>
  </varray>
 </structure>
 <varray name="primitive_index" >
  <v type="int" >        1 </v>
 </varray>
 <kpoints>
  <generation param="Gamma">
   <v type="int" name="divisions">       1        1        1 </v>
   <v name="usershift">      0.00000000       0.00000000       0.00000000 </v>
   <v name="genvec1">      1.00000000       0.00000000       0.00000000 </v>
   <v name="genvec2">      0.00000000       1.00000000       0.00000000 </v>
   <v name="genvec3">      0.00000000       0.00000000       1.00000000 </v>
   <v name="shift">      0.00000000       0.00000000       0.00000000 </v>
  </generation>
  <varray name="kpointlist" >
   <v>       0.00000000       0.00000000       0.00000000 </v>
  </varray>
  <varray name="weights" >
   <v>       1.00000000 </v>
  </varray>
 </kpoints>
 <parameters>
  <separator name="general" >
   <i type="string" name="SYSTEM">unknown system</i>
   <i type="logical" name="LCOMPAT"> F  </i>
  </separator>
  <separator name="electronic" >
   <i type="string" name="PREC">accura</i>
   <i name="ENMAX">    520.00000000</i>
   <i name="ENAUG">    449.70400000</i>
   <i name="EDIFF">      0.00005000</i>
   <i type="int" name="IALGO">    53</i>
   <i type="int" name="IWAVPR">    11</i>
   <i type="int" name="NBANDS">    36</i>
   <i name="NELECT">     13.00000000</i>
   <i type="int" name="TURBO">     0</i>
   <i type="int" name="IRESTART">     0</i>
   <i type="int" name="NREBOOT">     0</i>
   <i type="int" name="NMIN">     0</i>
   <i name="EREF">      0.00000000</i>
   <separator name="electronic smearing" >
    <i type="int" name="ISMEAR">     0</i>
    <i name="SIGMA">      0.05000000</i>
    <i name="KSPACING">      0.50000000</i>
    <i type="logical" name="KGAMMA"> T  </i>
   </separator>
   <separator name="electronic projectors" >
    <i type="logical" name="LREAL"> T  </i>
    <v name="ROPT">     -0.00025000</v>
    <i type="int" name="LMAXPAW">  -100</i>
    <i type="int" name="LMAXMIX">     2</i>
    <i type="logical" name="NLSPLINE"> F  </i>
   </separator>
   <separator name="electronic startup" >
    <i type="int" name="ISTART">     0</i>
    <i type="int" name="ICHARG">     2</i>
    <i type="int" name="INIWAV">     1</i>
   </separator>
   <separator name="electronic spin" >
    <i type="int" name="ISPIN">     2</i>
    <i type="logical" name="LNONCOLLINEAR"> F  </i>
    <v name="MAGMOM">      0.60000000</v>
    <i name="NUPDOWN">     -1.00000000</i>
    <i type="logical" name="LSORBIT"> F  </i>
    <v name="SAXIS">      0.00000000      0.00000000      1.00000000</v>
    <i type="logical" name="LSPIRAL"> F  </i>
    <v name="QSPIRAL">      0.00000000      0.00000000      0.00000000</v>
    <i type="logical" name="LZEROZ"> F  </i>
   </separator>
   <separator name="electronic exchange-correlation" >
    <i type="logical" name="LASPH"> T  </i>
    <i type="logical" name="LMETAGGA"> F  </i>
   </separator>
   <separator name="electronic convergence" >
    <i type="int" name="NELM">   300</i>
    <i type="int" name="NELMDL">    -5</i>
    <i type="int" name="NELMIN">     2</i>
    <i name="ENINI">    520.00000000</i>
    <separator name="electronic convergence detail" >
     <i type="logical" name="LDIAG"> T  </i>
     <i type="logical" name="LSUBROT"> F  </i>
     <i name="WEIMIN">      0.00100000</i>
     <i name="EBREAK">      0.00000035</i>
     <i name="DEPER">      0.30000000</i>
     <i type="int" name="NRMM">     4</i>
     <i name="TIME">      0.40000000</i>
    </separator>
   </separator>
   <separator name="electronic mixer" >
    <i name="AMIX">      0.40000000</i>
    <i name="BMIX">      1.00000000</i>
    <i name="AMIN">      0.10000000</i>
    <i name="AMIX_MAG">      1.60000000</i>
    <i name="BMIX_MAG">      1.00000000</i>
    <separator name="electronic mixer details" >
     <i type="int" name="IMIX">     4</i>
     <i type="logical" name="MIXFIRST"> F  </i>
     <i type="int" name="MAXMIX">   -45</i>
     <i name="WC">    100.00000000</i>
     <i type="int" name="INIMIX">     1</i>
     <i type="int" name="MIXPRE">     1</i>
     <i type="int" name="MREMOVE">     5</i>
    </separator>
   </separator>
   <separator name="electronic dipolcorrection" >
    <i type="logical" name="LDIPOL"> F  </i>
    <i type="logical" name="LMONO"> F  </i>
    <i type="int" name="IDIPOL">     0</i>
    <i name="EPSILON">      1.00000000</i>
    <v name="DIPOL">   -100.00000000   -100.00000000   -100.00000000</v>
    <i name="EFIELD">      0.00000000</i>
   </separator>
  </separator>
  <separator name="grids" >
   <i type="int" name="NGX">    80</i>
   <i type="int" name="NGY">    80</i>
   <i type="int" name="NGZ">    80</i>
   <i type="int" name="NGXF">   160</i>
   <i type="int" name="NGYF">   160</i>
   <i type="int" name="NGZF">   160</i>
   <i type="logical" name="ADDGRID"> F  </i>
  </separator>
  <separator name="ionic" >
   <i type="int" name="NSW">    99</i>
   <i type="int" name="IBRION">     2</i>
   <i type="int" name="MDALGO">     0</i>
   <i type="int" name="ISIF">     2</i>
   <i name="PSTRESS">      0.00000000</i>
   <i name="EDIFFG">      0.00050000</i>
   <i type="int" name="NFREE">     1</i>
   <i name="POTIM">      0.50000000</i>
   <i name="SMASS">     -3.00000000</i>
   <i name="SCALEE">      1.00000000</i>
  </separator>
  <separator name="ionic md" >
   <i name="TEBEG">      0.00010000</i>
   <i name="TEEND">      0.00010000</i>
   <i type="int" name="NBLOCK">     1</i>
   <i type="int" name="KBLOCK">    99</i>
   <i type="int" name="NPACO">   256</i>
   <i name="APACO">     16.00000000</i>
  </separator>
  <separator name="symmetry" >
   <i type="int" name="ISYM">     2</i>
   <i name="SYMPREC">      0.00001000</i>
  </separator>
  <separator name="dos" >
   <i type="int" name="LORBIT">    11</i>
   <v name="RWIGS">     -1.00000000</v>
   <i type="int" name="NEDOS">   301</i>
   <i name="EMIN">     10.00000000</i>
   <i name="EMAX">    -10.00000000</i>
   <i name="EFERMI">      0.00000000</i>
  </separator>
  <separator name="writing" >
   <i type="int" name="NWRITE">     2</i>
   <i type="logical" name="LWAVE"> F  </i>
   <i type="logical" name="LDOWNSAMPLE"> F  </i>
   <i type="logical" name="LCHARG"> T  </i>
   <i type="logical" name="LPARD"> F  </i>
   <i type="logical" name="LVTOT"> F  </i>
   <i type="logical" name="LVHAR"> F  </i>
   <i type="logical" name="LELF"> F  </i>
   <i type="logical" name="LOPTICS"> F  </i>
   <v name="STM">      0.00000000      0.00000000      0.00000000      0.00000000      0.00000000      0.00000000      0.00000000</v>
  </separator>
  <separator name="performance" >
   <i type="int" name="NPAR">    36</i>
   <i type="int" name="NSIM">     4</i>
   <i type="int" name="NBLK">    -1</i>
   <i type="logical" name="LPLANE"> T  </i>
   <i type="logical" name="LSCALAPACK"> T  </i>
   <i type="logical" name="LSCAAWARE"> F  </i>
   <i type="logical" name="LSCALU"> F  </i>
   <i type="logical" name="LASYNC"> F  </i>
   <i type="logical" name="LORBITALREAL"> F  </i>
  </separator>
  <separator name="miscellaneous" >
   <i type="int" name="IDIOT">     3</i>
   <i type="int" name="ISPECIAL">     0</i>
   <i type="logical" name="LMUSIC"> F  </i>
   <v name="POMASS">    114.82000000</v>
   <v name="DARWINR">      0.00000000</v>
   <v name="DARWINV">      1.00000000</v>
   <i type="logical" name="LCORR"> T  </i>
  </separator>
  <i type="logical" name="GGA_COMPAT"> T  </i>
  <i type="logical" name="LBERRY"> F  </i>
  <i type="int" name="ICORELEVEL">     0</i>
  <i type="logical" name="LDAU"> F  </i>
  <i type="int" name="I_CONSTRAINED_M">     0</i>
  <separator name="electronic exchange-correlation" >
   <i type="string" name="GGA">--</i>
   <i type="int" name="VOSKOWN">     0</i>
   <i type="logical" name="LHFCALC"> F  </i>
   <i type="string" name="PRECFOCK"></i>
   <i type="logical" name="LSYMGRAD"> F  </i>
   <i type="logical" name="LHFONE"> F  </i>
   <i type="logical" name="LRHFCALC"> F  </i>
   <i type="logical" name="LTHOMAS"> F  </i>
   <i type="logical" name="LMODELHF"> F  </i>
   <i name="ENCUT4O">     -1.00000000</i>
   <i type="int" name="EXXOEP">     0</i>
   <i type="int" name="FOURORBIT">     0</i>
   <i name="AEXX">      0.00000000</i>
   <i name="HFALPHA">      0.00000000</i>
   <i name="MCALPHA">      0.00000000</i>
   <i name="ALDAX">      1.00000000</i>
   <i name="AGGAX">      1.00000000</i>
   <i name="ALDAC">      1.00000000</i>
   <i name="AGGAC">      1.00000000</i>
   <i type="int" name="NKREDX">     1</i>
   <i type="int" name="NKREDY">     1</i>
   <i type="int" name="NKREDZ">     1</i>
   <i type="logical" name="SHIFTRED"> F  </i>
   <i type="logical" name="ODDONLY"> F  </i>
   <i type="logical" name="EVENONLY"> F  </i>
   <i type="int" name="LMAXFOCK">     0</i>
   <i type="int" name="NMAXFOCKAE">     0</i>
   <i type="logical" name="LFOCKAEDFT"> F  </i>
   <i name="HFSCREEN">      0.00000000</i>
   <i name="HFSCREENC">      0.00000000</i>
   <i type="int" name="NBANDSGWLOW">     0</i>
  </separator>
  <separator name="vdW DFT" >
   <i type="logical" name="LUSE_VDW"> F  </i>
   <i name="Zab_VDW">     -0.84910000</i>
   <i name="PARAM1">      0.12340000</i>
   <i name="PARAM2">      1.00000000</i>
   <i name="PARAM3">      0.00000000</i>
  </separator>
  <separator name="model GW" >
   <i type="int" name="MODEL_GW">     0</i>
   <i name="MODEL_EPS0">    600.00000000</i>
   <i name="MODEL_ALPHA">      1.00000000</i>
  </separator>
  <separator name="linear response parameters" >
   <i type="logical" name="LEPSILON"> F  </i>
   <i type="logical" name="LRPA"> F  </i>
   <i type="logical" name="LNABLA"> F  </i>
   <i type="logical" name="LVEL"> F  </i>
   <i type="int" name="KINTER">     0</i>
   <i name="CSHIFT">      0.10000000</i>
   <i name="OMEGAMAX">     -1.00000000</i>
   <i name="DEG_THRESHOLD">      0.00200000</i>
   <i name="RTIME">     -0.10000000</i>
   <i name="WPLASMAI">      0.00000000</i>
   <v name="DFIELD">      0.00000000      0.00000000      0.00000000</v>
   <v name="WPLASMA">      0.00000000      0.00000000      0.00000000      0.00000000      0.00000000      0.00000000      0.00000000      0.00000000      0.00000000</v>
  </separator>
  <separator name="orbital magnetization" >
   <i type="logical" name="NUCIND"> F  </i>
   <v name="MAGPOS">      0.00000000      0.00000000      0.00000000</v>
   <i type="logical" name="LNICSALL"> T  </i>
   <i type="logical" name="ORBITALMAG"> F  </i>
   <i type="logical" name="LMAGBLOCH"> F  </i>
   <i type="logical" name="LCHIMAG"> F  </i>
   <i type="logical" name="LGAUGE"> T  </i>
   <i type="int" name="MAGATOM">     0</i>
   <v name="MAGDIPOL">      0.00000000      0.00000000      0.00000000</v>
   <v name="AVECCONST">      0.00000000      0.00000000      0.00000000</v>
  </separator>
  <separator name="response functions" >
   <i type="logical" name="LADDER"> F  </i>
   <i type="logical" name="LRPAFORCE"> F  </i>
   <i type="logical" name="LFXC"> F  </i>
   <i type="logical" name="LHARTREE"> T  </i>
   <i type="int" name="IBSE">     0</i>
   <v type="int" name="KPOINT">    -1     0     0     0</v>
   <i type="logical" name="LTCTE"> F  </i>
   <i type="logical" name="LTETE"> F  </i>
   <i type="logical" name="LTRIPLET"> F  </i>
   <i type="logical" name="LFXCEPS"> F  </i>
   <i type="logical" name="LFXHEG"> F  </i>
   <i type="int" name="NATURALO">     2</i>
   <i type="logical" name="L2ORDER"> F  </i>
   <i type="logical" name="LMP2LT"> F  </i>
   <i type="logical" name="LUSEW"> F  </i>
   <i name="ENCUTGW">     -2.00000000</i>
   <i name="ENCUTGWSOFT">     -2.00000000</i>
   <i name="ENCUTLF">     -1.00000000</i>
   <i type="int" name="LMAXMP2">    -1</i>
   <i name="SCISSOR">      0.00000000</i>
   <i type="int" name="NOMEGA">     0</i>
   <i type="int" name="NOMEGAR">     0</i>
   <i type="int" name="NBANDSGW">    -1</i>
   <i type="int" name="NBANDSO">    -1</i>
   <i type="int" name="NBANDSV">    -1</i>
   <i type="int" name="NELM">   300</i>
   <i type="int" name="NELMHF">     1</i>
   <i type="int" name="DIM">     3</i>
   <i type="int" name="ANTIRES">     0</i>
   <i name="OMEGAMAX">    -30.00000000</i>
   <i name="OMEGAMIN">    -30.00000000</i>
   <i name="OMEGATL">   -200.00000000</i>
   <i type="int" name="OMEGAGRID">   140</i>
   <i name="CSHIFT">     -0.10000000</i>
   <i type="logical" name="SELFENERGY"> F  </i>
   <i type="logical" name="LSPECTRAL"> F  </i>
   <i type="logical" name="LSPECTRALGW"> F  </i>
   <i type="logical" name="LSINGLES"> F  </i>
   <i type="logical" name="LFERMIGW"> F  </i>
   <i type="logical" name="ODDONLYGW"> F  </i>
   <i type="logical" name="EVENONLYGW"> F  </i>
   <i type="int" name="NKREDLFX">     1</i>
   <i type="int" name="NKREDLFY">     1</i>
   <i type="int" name="NKREDLFZ">     1</i>
   <i type="int" name="MAXMEM">  2800</i>
   <i type="int" name="TELESCOPE">     0</i>
   <i type="int" name="TAUPAR">     1</i>
   <i type="int" name="OMEGAPAR">    -1</i>
   <i name="LAMBDA">      1.00000000</i>
  </separator>
  <separator name="External order field" >
   <i name="OFIELD_KAPPA">      0.00000000</i>
   <v name="OFIELD_K">      0.00000000      0.00000000      0.00000000</v>
   <i name="OFIELD_Q6_NEAR">      0.00000000</i>
   <i name="OFIELD_Q6_FAR">      0.00000000</i>
   <i name="OFIELD_A">      0.00000000</i>
  </separator>
 </parameters>
 <atominfo>
  <atoms>       1 </atoms>
  <types>       1 </types>
  <array name="atoms" >
   <dimension dim="1">ion</dimension>
   <field type="string">element</field>
   <field type="int">atomtype</field>
   <set>
    <rc><c>In</c><c>   1</c></rc>
   </set>
  </array>
  <array name="atomtypes" >
   <dimension dim="1">type</dimension>
   <field type="int">atomspertype</field>
   <field type="string">element</field>
   <field>mass</field>
   <field>valence</field>
   <field type="string">pseudopotential</field>
   <set>
    <rc><c>   1</c><c>In</c><c>    114.82000000</c><c>     13.00000000</c><c>  PAW_PBE In_d 06Sep2000                </c></rc>
   </set>
  </array>
 </atominfo>
 <structure name="initialpos" >
  <crystal>
   <varray name="basis" >
    <v>      10.00000000       0.00000000       0.00000000 </v>
    <v>       0.00000000      10.00000000       0.00000000 </v>
    <v>       0.00000000       0.00000000      10.00000000 </v>
   </varray>
   <i name="volume">   1000.00000000 </i>
   <varray name="rec_basis" >
    <v>       0.10000000       0.00000000       0.00000000 </v>
    <v>       0.00000000       0.10000000       0.00000000 </v>
    <v>       0.00000000       0.00000000       0.10000000 </v>
   </varray>
  </crystal>
  <varray name="positions" >
   <v>       0.50000000       0.50000000       0.50000000 </v>
  </varray>
 </structure>
 <calculation>
  <scstep>
   <time name="total">    0.85    0.86</time>
   <energy>
    <i name="alphaZ">      0.91783727 </i>
    <i name="ewald">   -345.23725609 </i>
    <i name="hartreedc">  -1081.20569879 </i>
    <i name="XCdc">     40.12003762 </i>
    <i name="pawpsdc">   1380.91220152 </i>
    <i name="pawaedc">  -1371.60454291 </i>
    <i name="eentropy">     -0.00005918 </i>
    <i name="bandstr">    -98.75786534 </i>
    <i name="atom">   1576.82733816 </i>
    <i name="e_fr_energy">    101.97199226 </i>
    <i name="e_wo_entrp">    101.97205144 </i>
    <i name="e_0_energy">    101.97202185 </i>
   </energy>
  </scstep>
  <scstep>
   <time name="total">    0.38    0.38</time>
   <energy>
    <i name="e_fr_energy">     17.62897217 </i>
    <i name="e_wo_entrp">     17.65001073 </i>
    <i name="e_0_energy">     17.63949145 </i>
   </energy>
  </scstep>
  <scstep>
   <time name="total">    0.38    0.38</time>
   <energy>
    <i name="e_fr_energy">      2.80690277 </i>
    <i name="e_wo_entrp">      2.83227440 </i>
    <i name="e_0_energy">      2.81958858 </i>
   </energy>
  </scstep>
  <scstep>
   <time name="total">    0.40    0.40</time>
   <energy>
    <i name="e_fr_energy">      1.25023639 </i>
    <i name="e_wo_entrp">      1.25023639 </i>
    <i name="e_0_energy">      1.25023639 </i>
   </energy>
  </scstep>
  <scstep>
   <time name="total">    0.61    0.61</time>
   <energy>
    <i name="e_fr_energy">      0.57108523 </i>
    <i name="e_wo_entrp">      0.57108523 </i>
    <i name="e_0_energy">      0.57108523 </i>
   </energy>
  </scstep>
  <scstep>
   <time name="total">    1.00    1.00</time>
   <energy>
    <i name="e_fr_energy">      0.49091977 </i>
    <i name="e_wo_entrp">      0.49091977 </i>
    <i name="e_0_energy">      0.49091977 </i>
   </energy>
  </scstep>
  <scstep>
   <time name="total">    0.92    0.92</time>
   <energy>
    <i name="e_fr_energy">      0.06760507 </i>
    <i name="e_wo_entrp">      0.06760507 </i>
    <i name="e_0_energy">      0.06760507 </i>
   </energy>
  </scstep>
  <scstep>
   <time name="total">    0.92    0.92</time>
   <energy>
    <i name="e_fr_energy">     -0.08914143 </i>
    <i name="e_wo_entrp">     -0.08914132 </i>
    <i name="e_0_energy">     -0.08914138 </i>
   </energy>
  </scstep>
  <scstep>
   <time name="total">    0.91    0.91</time>
   <energy>
    <i name="e_fr_energy">     -0.12309379 </i>
    <i name="e_wo_entrp">     -0.12308342 </i>
    <i name="e_0_energy">     -0.12308861 </i>
   </energy>
  </scstep>
  <scstep>
   <time name="total">    0.90    0.90</time>
   <energy>
    <i name="e_fr_energy">     -0.14469664 </i>
    <i name="e_wo_entrp">     -0.14443382 </i>
    <i name="e_0_energy">     -0.14456523 </i>
   </energy>
  </scstep>
  <scstep>
   <time name="total">    0.93    0.93</time>
   <energy>
    <i name="e_fr_energy">     -0.15750769 </i>
    <i name="e_wo_entrp">     -0.15535297 </i>
    <i name="e_0_energy">     -0.15643033 </i>
   </energy>
  </scstep>
  <scstep>
   <time name="total">    0.91    0.91</time>
   <energy>
    <i name="e_fr_energy">     -0.16440803 </i>
    <i name="e_wo_entrp">     -0.15683410 </i>
    <i name="e_0_energy">     -0.16062107 </i>
   </energy>
  </scstep>
  <scstep>
   <time name="total">    0.92    0.92</time>
   <energy>
    <i name="e_fr_energy">     -0.17192169 </i>
    <i name="e_wo_entrp">     -0.15688128 </i>
    <i name="e_0_energy">     -0.16440149 </i>
   </energy>
  </scstep>
  <scstep>
   <time name="total">    0.92    0.92</time>
   <energy>
    <i name="e_fr_energy">     -0.18032289 </i>
    <i name="e_wo_entrp">     -0.15906885 </i>
    <i name="e_0_energy">     -0.16969587 </i>
   </energy>
  </scstep>
  <scstep>
   <time name="total">    0.92    0.92</time>
   <energy>
    <i name="e_fr_energy">     -0.18711301 </i>
    <i name="e_wo_entrp">     -0.16210617 </i>
    <i name="e_0_energy">     -0.17460959 </i>
   </energy>
  </scstep>
  <scstep>
   <time name="total">    0.92    0.92</time>
   <energy>
    <i name="e_fr_energy">     -0.19130122 </i>
    <i name="e_wo_entrp">     -0.16443209 </i>
    <i name="e_0_energy">     -0.17786666 </i>
   </energy>
  </scstep>
  <scstep>
   <time name="total">    0.91    0.91</time>
   <energy>
    <i name="e_fr_energy">     -0.19345576 </i>
    <i name="e_wo_entrp">     -0.16576894 </i>
    <i name="e_0_energy">     -0.17961235 </i>
   </energy>
  </scstep>
  <scstep>
   <time name="total">    0.91    0.91</time>
   <energy>
    <i name="e_fr_energy">     -0.19443874 </i>
    <i name="e_wo_entrp">     -0.16642140 </i>
    <i name="e_0_energy">     -0.18043007 </i>
   </energy>
  </scstep>
  <scstep>
   <time name="total">    0.92    0.92</time>
   <energy>
    <i name="e_fr_energy">     -0.19485322 </i>
    <i name="e_wo_entrp">     -0.16671055 </i>
    <i name="e_0_energy">     -0.18078189 </i>
   </energy>
  </scstep>
  <scstep>
   <time name="total">    0.93    0.93</time>
   <energy>
    <i name="e_fr_energy">     -0.19501897 </i>
    <i name="e_wo_entrp">     -0.16683126 </i>
    <i name="e_0_energy">     -0.18092511 </i>
   </energy>
  </scstep>
  <scstep>
   <time name="total">    0.91    0.92</time>
   <energy>
    <i name="e_fr_energy">     -0.19508269 </i>
    <i name="e_wo_entrp">     -0.16687576 </i>
    <i name="e_0_energy">     -0.18097923 </i>
   </energy>
  </scstep>
  <scstep>
   <time name="total">    0.96    0.96</time>
   <energy>
    <i name="alphaZ">      0.91783727 </i>
    <i name="ewald">   -345.23725609 </i>
    <i name="hartreedc">  -1082.26690398 </i>
    <i name="XCdc">     40.20535347 </i>
    <i name="pawpsdc">   1387.90470293 </i>
    <i name="pawaedc">  -1378.62466778 </i>
    <i name="eentropy">     -0.02825261 </i>
    <i name="bandstr">   -199.89330718 </i>
    <i name="atom">   1576.82733816 </i>
    <i name="e_fr_energy">     -0.19511014 </i>
    <i name="e_wo_entrp">     -0.16685753 </i>
    <i name="e_0_energy">     -0.18098383 </i>
   </energy>
  </scstep>
  <structure>
   <crystal>
    <varray name="basis" >
     <v>      10.00000000       0.00000000       0.00000000 </v>
     <v>       0.00000000      10.00000000       0.00000000 </v>
     <v>       0.00000000       0.00000000      10.00000000 </v>
    </varray>
    <i name="volume">   1000.00000000 </i>
    <varray name="rec_basis" >
     <v>       0.10000000       0.00000000       0.00000000 </v>
     <v>       0.00000000       0.10000000       0.00000000 </v>
     <v>       0.00000000       0.00000000       0.10000000 </v>
    </varray>
   </crystal>
   <varray name="positions" >
    <v>       0.50000000       0.50000000       0.50000000 </v>
   </varray>
  </structure>
  <varray name="forces" >
   <v>       0.00000000       0.00000000       0.00000000 </v>
  </varray>
  <varray name="stress" >
   <v>       0.04789379       0.00000000       0.00000000 </v>
   <v>       0.00000000       0.04789379       0.00000000 </v>
   <v>       0.00000000      -0.00000000       0.04789379 </v>
  </varray>
  <energy>
   <i name="e_fr_energy">     -0.19511014 </i>
   <i name="e_wo_entrp">     -0.18098383 </i>
   <i name="e_0_energy">     -0.02825261 </i>
  </energy>
  <time name="totalsc">   30.20   30.34</time>
  <eigenvalues>
   <array>
    <dimension dim="1">band</dimension>
    <dimension dim="2">kpoint</dimension>
    <dimension dim="3">spin</dimension>
    <field>eigene</field>
    <field>occ</field>
    <set>
     <set comment="spin 1">
      <set comment="kpoint 1">
       <r>  -18.2283    1.0000 </r>
       <r>  -18.2283    1.0000 </r>
       <r>  -18.2281    1.0000 </r>
       <r>  -18.2281    1.0000 </r>
       <r>  -18.2281    1.0000 </r>
       <r>   -8.0791    1.0000 </r>
       <r>   -2.4089    0.5045 </r>
       <r>   -2.4089    0.4952 </r>
       <r>   -2.4073    0.0003 </r>
       <r>   -0.5387    0.0000 </r>
       <r>    0.6866    0.0000 </r>
       <r>    0.6867    0.0000 </r>
       <r>    1.2168    0.0000 </r>
       <r>    1.2174    0.0000 </r>
       <r>    1.2301    0.0000 </r>
       <r>    1.4310    0.0000 </r>
       <r>    1.6200    0.0000 </r>
       <r>    1.6206    0.0000 </r>
       <r>    1.6219    0.0000 </r>
       <r>    2.3281    0.0000 </r>
       <r>    2.3383    0.0000 </r>
       <r>    2.3411    0.0000 </r>
       <r>    2.3642    0.0000 </r>
       <r>    2.3768    0.0000 </r>
       <r>    3.0907    0.0000 </r>
       <r>    3.1051    0.0000 </r>
       <r>    3.2351    0.0000 </r>
       <r>    3.3639    0.0000 </r>
       <r>    3.4678    0.0000 </r>
       <r>    3.4784    0.0000 </r>
       <r>    3.5467    0.0000 </r>
       <r>    3.5527    0.0000 </r>
       <r>    4.1742    0.0000 </r>
       <r>    4.2288    0.0000 </r>
       <r>    4.3936    0.0000 </r>
       <r>    4.5731    0.0000 </r>
      </set>
     </set>
     <set comment="spin 2">
      <set comment="kpoint 1">
       <r>  -18.1531    1.0000 </r>
       <r>  -18.1531    1.0000 </r>
       <r>  -18.1529    1.0000 </r>
       <r>  -18.1529    1.0000 </r>
       <r>  -18.1529    1.0000 </r>
       <r>   -7.4995    1.0000 </r>
       <r>   -1.7478    0.0000 </r>
       <r>   -1.7473    0.0000 </r>
       <r>   -1.7463    0.0000 </r>
       <r>    0.0159    0.0000 </r>
       <r>    1.2601    0.0000 </r>
       <r>    1.2603    0.0000 </r>
       <r>    1.7874    0.0000 </r>
       <r>    1.7878    0.0000 </r>
       <r>    1.7886    0.0000 </r>
       <r>    1.8186    0.0000 </r>
       <r>    2.2591    0.0000 </r>
       <r>    2.2600    0.0000 </r>
       <r>    2.2610    0.0000 </r>
       <r>    2.8331    0.0000 </r>
       <r>    2.8332    0.0000 </r>
       <r>    2.9116    0.0000 </r>
       <r>    2.9118    0.0000 </r>
       <r>    2.9155    0.0000 </r>
       <r>    3.6013    0.0000 </r>
       <r>    3.6060    0.0000 </r>
       <r>    3.7721    0.0000 </r>
       <r>    3.8445    0.0000 </r>
       <r>    3.9126    0.0000 </r>
       <r>    4.0524    0.0000 </r>
       <r>    4.0566    0.0000 </r>
       <r>    4.1100    0.0000 </r>
       <r>    4.7351    0.0000 </r>
       <r>    4.7609    0.0000 </r>
       <r>    4.7981    0.0000 </r>
       <r>    4.8928    0.0000 </r>
      </set>
     </set>
    </set>
   </array>
  </eigenvalues>
  <separator name="orbital magnetization" >
   <v name="MAGDIPOLOUT">      0.00000000      0.00000000      0.00000000</v>
  </separator>
  <dos>
   <i name="efermi">     -2.42363852 </i>
   <total>
    <array>
     <dimension dim="1">gridpoints</dimension>
     <dimension dim="2">spin</dimension>
     <field>energy</field>
     <field>total</field>
     <field>integrated</field>
     <set>
      <set comment="spin 1">
       <r>   -19.3843     0.0000     0.0000 </r>
       <r>   -19.2995     0.0000     0.0000 </r>
       <r>   -19.2148     0.0000     0.0000 </r>
       <r>   -19.1300     0.0000     0.0000 </r>
       <r>   -19.0452     0.0000     0.0000 </r>
       <r>   -18.9604     0.0000     0.0000 </r>
       <r>   -18.8757     0.0000     0.0000 </r>
       <r>   -18.7909     0.0000     0.0000 </r>
       <r>   -18.7061     0.0000     0.0000 </r>
       <r>   -18.6213     0.0000     0.0000 </r>
       <r>   -18.5366     0.0000     0.0000 </r>
       <r>   -18.4518     0.0000     0.0000 </r>
       <r>   -18.3670     0.0025     0.0002 </r>
       <r>   -18.2822     3.7239     0.3159 </r>
       <r>   -18.1974    43.9072     4.0382 </r>
       <r>   -18.1127    11.3124     4.9973 </r>
       <r>   -18.0279     0.0320     5.0000 </r>
       <r>   -17.9431     0.0000     5.0000 </r>
       <r>   -17.8583     0.0000     5.0000 </r>
       <r>   -17.7736     0.0000     5.0000 </r>
       <r>   -17.6888     0.0000     5.0000 </r>
       <r>   -17.6040     0.0000     5.0000 </r>
       <r>   -17.5192     0.0000     5.0000 </r>
       <r>   -17.4344     0.0000     5.0000 </r>
       <r>   -17.3497     0.0000     5.0000 </r>
       <r>   -17.2649     0.0000     5.0000 </r>
       <r>   -17.1801     0.0000     5.0000 </r>
       <r>   -17.0953     0.0000     5.0000 </r>
       <r>   -17.0106     0.0000     5.0000 </r>
       <r>   -16.9258     0.0000     5.0000 </r>
       <r>   -16.8410     0.0000     5.0000 </r>
       <r>   -16.7562     0.0000     5.0000 </r>
       <r>   -16.6715     0.0000     5.0000 </r>
       <r>   -16.5867     0.0000     5.0000 </r>
       <r>   -16.5019     0.0000     5.0000 </r>
       <r>   -16.4171     0.0000     5.0000 </r>
       <r>   -16.3323     0.0000     5.0000 </r>
       <r>   -16.2476     0.0000     5.0000 </r>
       <r>   -16.1628     0.0000     5.0000 </r>
       <r>   -16.0780     0.0000     5.0000 </r>
       <r>   -15.9932     0.0000     5.0000 </r>
       <r>   -15.9085     0.0000     5.0000 </r>
       <r>   -15.8237     0.0000     5.0000 </r>
       <r>   -15.7389     0.0000     5.0000 </r>
       <r>   -15.6541     0.0000     5.0000 </r>
       <r>   -15.5694     0.0000     5.0000 </r>
       <r>   -15.4846     0.0000     5.0000 </r>
       <r>   -15.3998     0.0000     5.0000 </r>
       <r>   -15.3150     0.0000     5.0000 </r>
       <r>   -15.2302     0.0000     5.0000 </r>
       <r>   -15.1455     0.0000     5.0000 </r>
       <r>   -15.0607     0.0000     5.0000 </r>
       <r>   -14.9759     0.0000     5.0000 </r>
       <r>   -14.8911     0.0000     5.0000 </r>
       <r>   -14.8064     0.0000     5.0000 </r>
       <r>   -14.7216     0.0000     5.0000 </r>
       <r>   -14.6368     0.0000     5.0000 </r>
       <r>   -14.5520     0.0000     5.0000 </r>
       <r>   -14.4672     0.0000     5.0000 </r>
       <r>   -14.3825     0.0000     5.0000 </r>
       <r>   -14.2977     0.0000     5.0000 </r>
       <r>   -14.2129     0.0000     5.0000 </r>
       <r>   -14.1281     0.0000     5.0000 </r>
       <r>   -14.0434     0.0000     5.0000 </r>
       <r>   -13.9586     0.0000     5.0000 </r>
       <r>   -13.8738     0.0000     5.0000 </r>
       <r>   -13.7890     0.0000     5.0000 </r>
       <r>   -13.7043     0.0000     5.0000 </r>
       <r>   -13.6195     0.0000     5.0000 </r>
       <r>   -13.5347     0.0000     5.0000 </r>
       <r>   -13.4499     0.0000     5.0000 </r>
       <r>   -13.3651     0.0000     5.0000 </r>
       <r>   -13.2804     0.0000     5.0000 </r>
       <r>   -13.1956     0.0000     5.0000 </r>
       <r>   -13.1108     0.0000     5.0000 </r>
       <r>   -13.0260     0.0000     5.0000 </r>
       <r>   -12.9413     0.0000     5.0000 </r>
       <r>   -12.8565     0.0000     5.0000 </r>
       <r>   -12.7717     0.0000     5.0000 </r>
       <r>   -12.6869     0.0000     5.0000 </r>
       <r>   -12.6022     0.0000     5.0000 </r>
       <r>   -12.5174     0.0000     5.0000 </r>
       <r>   -12.4326     0.0000     5.0000 </r>
       <r>   -12.3478     0.0000     5.0000 </r>
       <r>   -12.2630     0.0000     5.0000 </r>
       <r>   -12.1783     0.0000     5.0000 </r>
       <r>   -12.0935     0.0000     5.0000 </r>
       <r>   -12.0087     0.0000     5.0000 </r>
       <r>   -11.9239     0.0000     5.0000 </r>
       <r>   -11.8392     0.0000     5.0000 </r>
       <r>   -11.7544     0.0000     5.0000 </r>
       <r>   -11.6696     0.0000     5.0000 </r>
       <r>   -11.5848     0.0000     5.0000 </r>
       <r>   -11.5000     0.0000     5.0000 </r>
       <r>   -11.4153     0.0000     5.0000 </r>
       <r>   -11.3305     0.0000     5.0000 </r>
       <r>   -11.2457     0.0000     5.0000 </r>
       <r>   -11.1609     0.0000     5.0000 </r>
       <r>   -11.0762     0.0000     5.0000 </r>
       <r>   -10.9914     0.0000     5.0000 </r>
       <r>   -10.9066     0.0000     5.0000 </r>
       <r>   -10.8218     0.0000     5.0000 </r>
       <r>   -10.7371     0.0000     5.0000 </r>
       <r>   -10.6523     0.0000     5.0000 </r>
       <r>   -10.5675     0.0000     5.0000 </r>
       <r>   -10.4827     0.0000     5.0000 </r>
       <r>   -10.3979     0.0000     5.0000 </r>
       <r>   -10.3132     0.0000     5.0000 </r>
       <r>   -10.2284     0.0000     5.0000 </r>
       <r>   -10.1436     0.0000     5.0000 </r>
       <r>   -10.0588     0.0000     5.0000 </r>
       <r>    -9.9741     0.0000     5.0000 </r>
       <r>    -9.8893     0.0000     5.0000 </r>
       <r>    -9.8045     0.0000     5.0000 </r>
       <r>    -9.7197     0.0000     5.0000 </r>
       <r>    -9.6350     0.0000     5.0000 </r>
       <r>    -9.5502     0.0000     5.0000 </r>
       <r>    -9.4654     0.0000     5.0000 </r>
       <r>    -9.3806     0.0000     5.0000 </r>
       <r>    -9.2958     0.0000     5.0000 </r>
       <r>    -9.2111     0.0000     5.0000 </r>
       <r>    -9.1263     0.0000     5.0000 </r>
       <r>    -9.0415     0.0000     5.0000 </r>
       <r>    -8.9567     0.0000     5.0000 </r>
       <r>    -8.8720     0.0000     5.0000 </r>
       <r>    -8.7872     0.0000     5.0000 </r>
       <r>    -8.7024     0.0000     5.0000 </r>
       <r>    -8.6176     0.0000     5.0000 </r>
       <r>    -8.5328     0.0000     5.0000 </r>
       <r>    -8.4481     0.0000     5.0000 </r>
       <r>    -8.3633     0.0000     5.0000 </r>
       <r>    -8.2785     0.0000     5.0000 </r>
       <r>    -8.1937     0.0070     5.0006 </r>
       <r>    -8.1090     2.3426     5.1992 </r>
       <r>    -8.0242     8.7363     5.9398 </r>
       <r>    -7.9394     0.7093     6.0000 </r>
       <r>    -7.8546     0.0005     6.0000 </r>
       <r>    -7.7699     0.0000     6.0000 </r>
       <r>    -7.6851     0.0000     6.0000 </r>
       <r>    -7.6003     0.0000     6.0000 </r>
       <r>    -7.5155     0.0000     6.0000 </r>
       <r>    -7.4307     0.0000     6.0000 </r>
       <r>    -7.3460     0.0000     6.0000 </r>
       <r>    -7.2612     0.0000     6.0000 </r>
       <r>    -7.1764     0.0000     6.0000 </r>
       <r>    -7.0916     0.0000     6.0000 </r>
       <r>    -7.0069     0.0000     6.0000 </r>
       <r>    -6.9221     0.0000     6.0000 </r>
       <r>    -6.8373     0.0000     6.0000 </r>
       <r>    -6.7525     0.0000     6.0000 </r>
       <r>    -6.6678     0.0000     6.0000 </r>
       <r>    -6.5830     0.0000     6.0000 </r>
       <r>    -6.4982     0.0000     6.0000 </r>
       <r>    -6.4134     0.0000     6.0000 </r>
       <r>    -6.3286     0.0000     6.0000 </r>
       <r>    -6.2439     0.0000     6.0000 </r>
       <r>    -6.1591     0.0000     6.0000 </r>
       <r>    -6.0743     0.0000     6.0000 </r>
       <r>    -5.9895     0.0000     6.0000 </r>
       <r>    -5.9048     0.0000     6.0000 </r>
       <r>    -5.8200     0.0000     6.0000 </r>
       <r>    -5.7352     0.0000     6.0000 </r>
       <r>    -5.6504     0.0000     6.0000 </r>
       <r>    -5.5656     0.0000     6.0000 </r>
       <r>    -5.4809     0.0000     6.0000 </r>
       <r>    -5.3961     0.0000     6.0000 </r>
       <r>    -5.3113     0.0000     6.0000 </r>
       <r>    -5.2265     0.0000     6.0000 </r>
       <r>    -5.1418     0.0000     6.0000 </r>
       <r>    -5.0570     0.0000     6.0000 </r>
       <r>    -4.9722     0.0000     6.0000 </r>
       <r>    -4.8874     0.0000     6.0000 </r>
       <r>    -4.8027     0.0000     6.0000 </r>
       <r>    -4.7179     0.0000     6.0000 </r>
       <r>    -4.6331     0.0000     6.0000 </r>
       <r>    -4.5483     0.0000     6.0000 </r>
       <r>    -4.4635     0.0000     6.0000 </r>
       <r>    -4.3788     0.0000     6.0000 </r>
       <r>    -4.2940     0.0000     6.0000 </r>
       <r>    -4.2092     0.0000     6.0000 </r>
       <r>    -4.1244     0.0000     6.0000 </r>
       <r>    -4.0397     0.0000     6.0000 </r>
       <r>    -3.9549     0.0000     6.0000 </r>
       <r>    -3.8701     0.0000     6.0000 </r>
       <r>    -3.7853     0.0000     6.0000 </r>
       <r>    -3.7006     0.0000     6.0000 </r>
       <r>    -3.6158     0.0000     6.0000 </r>
       <r>    -3.5310     0.0000     6.0000 </r>
       <r>    -3.4462     0.0000     6.0000 </r>
       <r>    -3.3614     0.0000     6.0000 </r>
       <r>    -3.2767     0.0000     6.0000 </r>
       <r>    -3.1919     0.0000     6.0000 </r>
       <r>    -3.1071     0.0000     6.0000 </r>
       <r>    -3.0223     0.0000     6.0000 </r>
       <r>    -2.9376     0.0000     6.0000 </r>
       <r>    -2.8528     0.0000     6.0000 </r>
       <r>    -2.7680     0.0000     6.0000 </r>
       <r>    -2.6832     0.0000     6.0000 </r>
       <r>    -2.5984     0.0000     6.0000 </r>
       <r>    -2.5137     0.0516     6.0044 </r>
       <r>    -2.4289     9.8987     6.8436 </r>
       <r>    -2.3441    24.2147     8.8964 </r>
       <r>    -2.2593     1.2216     9.0000 </r>
       <r>    -2.1746     0.0004     9.0000 </r>
       <r>    -2.0898     0.0000     9.0000 </r>
       <r>    -2.0050     0.0000     9.0000 </r>
       <r>    -1.9202     0.0000     9.0000 </r>
       <r>    -1.8355     0.0000     9.0000 </r>
       <r>    -1.7507     0.0000     9.0000 </r>
       <r>    -1.6659     0.0000     9.0000 </r>
       <r>    -1.5811     0.0000     9.0000 </r>
       <r>    -1.4963     0.0000     9.0000 </r>
       <r>    -1.4116     0.0000     9.0000 </r>
       <r>    -1.3268     0.0000     9.0000 </r>
       <r>    -1.2420     0.0000     9.0000 </r>
       <r>    -1.1572     0.0000     9.0000 </r>
       <r>    -1.0725     0.0000     9.0000 </r>
       <r>    -0.9877     0.0000     9.0000 </r>
       <r>    -0.9029     0.0000     9.0000 </r>
       <r>    -0.8181     0.0000     9.0000 </r>
       <r>    -0.7334     0.0000     9.0000 </r>
       <r>    -0.6486     0.0111     9.0009 </r>
       <r>    -0.5638     2.8041     9.2387 </r>
       <r>    -0.4790     8.4405     9.9542 </r>
       <r>    -0.3942     0.5397    10.0000 </r>
       <r>    -0.3095     0.0003    10.0000 </r>
       <r>    -0.2247     0.0000    10.0000 </r>
       <r>    -0.1399     0.0000    10.0000 </r>
       <r>    -0.0551     0.0000    10.0000 </r>
       <r>     0.0296     0.0000    10.0000 </r>
       <r>     0.1144     0.0000    10.0000 </r>
       <r>     0.1992     0.0000    10.0000 </r>
       <r>     0.2840     0.0000    10.0000 </r>
       <r>     0.3688     0.0000    10.0000 </r>
       <r>     0.4535     0.0000    10.0000 </r>
       <r>     0.5383     0.0003    10.0000 </r>
       <r>     0.6231     0.8525    10.0723 </r>
       <r>     0.7079    16.2735    11.4519 </r>
       <r>     0.7926     6.4329    11.9973 </r>
       <r>     0.8774     0.0320    12.0000 </r>
       <r>     0.9622     0.0000    12.0000 </r>
       <r>     1.0470     0.0000    12.0000 </r>
       <r>     1.1317     0.2183    12.0185 </r>
       <r>     1.2165    15.5692    13.3384 </r>
       <r>     1.3013    19.1389    14.9610 </r>
       <r>     1.3861     1.6602    15.1017 </r>
       <r>     1.4709     9.0620    15.8700 </r>
       <r>     1.5556     2.6851    16.0976 </r>
       <r>     1.6404    23.9735    18.1300 </r>
       <r>     1.7252    10.2060    18.9952 </r>
       <r>     1.8100     0.0561    19.0000 </r>
       <r>     1.8947     0.0000    19.0000 </r>
       <r>     1.9795     0.0000    19.0000 </r>
       <r>     2.0643     0.0000    19.0000 </r>
       <r>     2.1491     0.0000    19.0000 </r>
       <r>     2.2338     0.0797    19.0068 </r>
       <r>     2.3186    12.8279    20.0943 </r>
       <r>     2.4034    40.7856    23.5520 </r>
       <r>     2.4882     5.2723    23.9989 </r>
       <r>     2.5730     0.0127    24.0000 </r>
       <r>     2.6577     0.0000    24.0000 </r>
       <r>     2.7425     0.0000    24.0000 </r>
       <r>     2.8273     0.0000    24.0000 </r>
       <r>     2.9121     0.0000    24.0000 </r>
       <r>     2.9968     0.0599    24.0051 </r>
       <r>     3.0816     7.6357    24.6524 </r>
       <r>     3.1664    15.5243    25.9685 </r>
       <r>     3.2512     8.3482    26.6763 </r>
       <r>     3.3360     6.3272    27.2127 </r>
       <r>     3.4207    10.3411    28.0893 </r>
       <r>     3.5055    20.7520    29.8486 </r>
       <r>     3.5903    22.3869    31.7465 </r>
       <r>     3.6751     2.9849    31.9996 </r>
       <r>     3.7598     0.0048    32.0000 </r>
       <r>     3.8446     0.0000    32.0000 </r>
       <r>     3.9294     0.0000    32.0000 </r>
       <r>     4.0142     0.0000    32.0000 </r>
       <r>     4.0989     0.1976    32.0168 </r>
       <r>     4.1837     8.1434    32.7071 </r>
       <r>     4.2685    13.6641    33.8655 </r>
       <r>     4.3533     3.0823    34.1268 </r>
       <r>     4.4381     9.0700    34.8958 </r>
       <r>     4.5228     2.1426    35.0774 </r>
       <r>     4.6076     8.9419    35.8355 </r>
       <r>     4.6924     1.9363    35.9996 </r>
       <r>     4.7772     0.0044    36.0000 </r>
       <r>     4.8619     0.0000    36.0000 </r>
       <r>     4.9467     0.0000    36.0000 </r>
       <r>     5.0315     0.0000    36.0000 </r>
       <r>     5.1163     0.0000    36.0000 </r>
       <r>     5.2010     0.0000    36.0000 </r>
       <r>     5.2858     0.0000    36.0000 </r>
       <r>     5.3706     0.0000    36.0000 </r>
       <r>     5.4554     0.0000    36.0000 </r>
       <r>     5.5402     0.0000    36.0000 </r>
       <r>     5.6249     0.0000    36.0000 </r>
       <r>     5.7097     0.0000    36.0000 </r>
       <r>     5.7945     0.0000    36.0000 </r>
       <r>     5.8793     0.0000    36.0000 </r>
       <r>     5.9640     0.0000    36.0000 </r>
       <r>     6.0488     0.0000    36.0000 </r>
      </set>
      <set comment="spin 2">
       <r>   -19.3843     0.0000     0.0000 </r>
       <r>   -19.2995     0.0000     0.0000 </r>
       <r>   -19.2148     0.0000     0.0000 </r>
       <r>   -19.1300     0.0000     0.0000 </r>
       <r>   -19.0452     0.0000     0.0000 </r>
       <r>   -18.9604     0.0000     0.0000 </r>
       <r>   -18.8757     0.0000     0.0000 </r>
       <r>   -18.7909     0.0000     0.0000 </r>
       <r>   -18.7061     0.0000     0.0000 </r>
       <r>   -18.6213     0.0000     0.0000 </r>
       <r>   -18.5366     0.0000     0.0000 </r>
       <r>   -18.4518     0.0000     0.0000 </r>
       <r>   -18.3670     0.0000     0.0000 </r>
       <r>   -18.2822     0.0076     0.0006 </r>
       <r>   -18.1974     6.1421     0.5213 </r>
       <r>   -18.1127    45.3330     4.3646 </r>
       <r>   -18.0279     7.4836     4.9990 </r>
       <r>   -17.9431     0.0119     5.0000 </r>
       <r>   -17.8583     0.0000     5.0000 </r>
       <r>   -17.7736     0.0000     5.0000 </r>
       <r>   -17.6888     0.0000     5.0000 </r>
       <r>   -17.6040     0.0000     5.0000 </r>
       <r>   -17.5192     0.0000     5.0000 </r>
       <r>   -17.4344     0.0000     5.0000 </r>
       <r>   -17.3497     0.0000     5.0000 </r>
       <r>   -17.2649     0.0000     5.0000 </r>
       <r>   -17.1801     0.0000     5.0000 </r>
       <r>   -17.0953     0.0000     5.0000 </r>
       <r>   -17.0106     0.0000     5.0000 </r>
       <r>   -16.9258     0.0000     5.0000 </r>
       <r>   -16.8410     0.0000     5.0000 </r>
       <r>   -16.7562     0.0000     5.0000 </r>
       <r>   -16.6715     0.0000     5.0000 </r>
       <r>   -16.5867     0.0000     5.0000 </r>
       <r>   -16.5019     0.0000     5.0000 </r>
       <r>   -16.4171     0.0000     5.0000 </r>
       <r>   -16.3323     0.0000     5.0000 </r>
       <r>   -16.2476     0.0000     5.0000 </r>
       <r>   -16.1628     0.0000     5.0000 </r>
       <r>   -16.0780     0.0000     5.0000 </r>
       <r>   -15.9932     0.0000     5.0000 </r>
       <r>   -15.9085     0.0000     5.0000 </r>
       <r>   -15.8237     0.0000     5.0000 </r>
       <r>   -15.7389     0.0000     5.0000 </r>
       <r>   -15.6541     0.0000     5.0000 </r>
       <r>   -15.5694     0.0000     5.0000 </r>
       <r>   -15.4846     0.0000     5.0000 </r>
       <r>   -15.3998     0.0000     5.0000 </r>
       <r>   -15.3150     0.0000     5.0000 </r>
       <r>   -15.2302     0.0000     5.0000 </r>
       <r>   -15.1455     0.0000     5.0000 </r>
       <r>   -15.0607     0.0000     5.0000 </r>
       <r>   -14.9759     0.0000     5.0000 </r>
       <r>   -14.8911     0.0000     5.0000 </r>
       <r>   -14.8064     0.0000     5.0000 </r>
       <r>   -14.7216     0.0000     5.0000 </r>
       <r>   -14.6368     0.0000     5.0000 </r>
       <r>   -14.5520     0.0000     5.0000 </r>
       <r>   -14.4672     0.0000     5.0000 </r>
       <r>   -14.3825     0.0000     5.0000 </r>
       <r>   -14.2977     0.0000     5.0000 </r>
       <r>   -14.2129     0.0000     5.0000 </r>
       <r>   -14.1281     0.0000     5.0000 </r>
       <r>   -14.0434     0.0000     5.0000 </r>
       <r>   -13.9586     0.0000     5.0000 </r>
       <r>   -13.8738     0.0000     5.0000 </r>
       <r>   -13.7890     0.0000     5.0000 </r>
       <r>   -13.7043     0.0000     5.0000 </r>
       <r>   -13.6195     0.0000     5.0000 </r>
       <r>   -13.5347     0.0000     5.0000 </r>
       <r>   -13.4499     0.0000     5.0000 </r>
       <r>   -13.3651     0.0000     5.0000 </r>
       <r>   -13.2804     0.0000     5.0000 </r>
       <r>   -13.1956     0.0000     5.0000 </r>
       <r>   -13.1108     0.0000     5.0000 </r>
       <r>   -13.0260     0.0000     5.0000 </r>
       <r>   -12.9413     0.0000     5.0000 </r>
       <r>   -12.8565     0.0000     5.0000 </r>
       <r>   -12.7717     0.0000     5.0000 </r>
       <r>   -12.6869     0.0000     5.0000 </r>
       <r>   -12.6022     0.0000     5.0000 </r>
       <r>   -12.5174     0.0000     5.0000 </r>
       <r>   -12.4326     0.0000     5.0000 </r>
       <r>   -12.3478     0.0000     5.0000 </r>
       <r>   -12.2630     0.0000     5.0000 </r>
       <r>   -12.1783     0.0000     5.0000 </r>
       <r>   -12.0935     0.0000     5.0000 </r>
       <r>   -12.0087     0.0000     5.0000 </r>
       <r>   -11.9239     0.0000     5.0000 </r>
       <r>   -11.8392     0.0000     5.0000 </r>
       <r>   -11.7544     0.0000     5.0000 </r>
       <r>   -11.6696     0.0000     5.0000 </r>
       <r>   -11.5848     0.0000     5.0000 </r>
       <r>   -11.5000     0.0000     5.0000 </r>
       <r>   -11.4153     0.0000     5.0000 </r>
       <r>   -11.3305     0.0000     5.0000 </r>
       <r>   -11.2457     0.0000     5.0000 </r>
       <r>   -11.1609     0.0000     5.0000 </r>
       <r>   -11.0762     0.0000     5.0000 </r>
       <r>   -10.9914     0.0000     5.0000 </r>
       <r>   -10.9066     0.0000     5.0000 </r>
       <r>   -10.8218     0.0000     5.0000 </r>
       <r>   -10.7371     0.0000     5.0000 </r>
       <r>   -10.6523     0.0000     5.0000 </r>
       <r>   -10.5675     0.0000     5.0000 </r>
       <r>   -10.4827     0.0000     5.0000 </r>
       <r>   -10.3979     0.0000     5.0000 </r>
       <r>   -10.3132     0.0000     5.0000 </r>
       <r>   -10.2284     0.0000     5.0000 </r>
       <r>   -10.1436     0.0000     5.0000 </r>
       <r>   -10.0588     0.0000     5.0000 </r>
       <r>    -9.9741     0.0000     5.0000 </r>
       <r>    -9.8893     0.0000     5.0000 </r>
       <r>    -9.8045     0.0000     5.0000 </r>
       <r>    -9.7197     0.0000     5.0000 </r>
       <r>    -9.6350     0.0000     5.0000 </r>
       <r>    -9.5502     0.0000     5.0000 </r>
       <r>    -9.4654     0.0000     5.0000 </r>
       <r>    -9.3806     0.0000     5.0000 </r>
       <r>    -9.2958     0.0000     5.0000 </r>
       <r>    -9.2111     0.0000     5.0000 </r>
       <r>    -9.1263     0.0000     5.0000 </r>
       <r>    -9.0415     0.0000     5.0000 </r>
       <r>    -8.9567     0.0000     5.0000 </r>
       <r>    -8.8720     0.0000     5.0000 </r>
       <r>    -8.7872     0.0000     5.0000 </r>
       <r>    -8.7024     0.0000     5.0000 </r>
       <r>    -8.6176     0.0000     5.0000 </r>
       <r>    -8.5328     0.0000     5.0000 </r>
       <r>    -8.4481     0.0000     5.0000 </r>
       <r>    -8.3633     0.0000     5.0000 </r>
       <r>    -8.2785     0.0000     5.0000 </r>
       <r>    -8.1937     0.0000     5.0000 </r>
       <r>    -8.1090     0.0000     5.0000 </r>
       <r>    -8.0242     0.0000     5.0000 </r>
       <r>    -7.9394     0.0000     5.0000 </r>
       <r>    -7.8546     0.0000     5.0000 </r>
       <r>    -7.7699     0.0000     5.0000 </r>
       <r>    -7.6851     0.0000     5.0000 </r>
       <r>    -7.6003     0.0257     5.0022 </r>
       <r>    -7.5155     3.8088     5.3251 </r>
       <r>    -7.4307     7.6553     5.9741 </r>
       <r>    -7.3460     0.3058     6.0000 </r>
       <r>    -7.2612     0.0001     6.0000 </r>
       <r>    -7.1764     0.0000     6.0000 </r>
       <r>    -7.0916     0.0000     6.0000 </r>
       <r>    -7.0069     0.0000     6.0000 </r>
       <r>    -6.9221     0.0000     6.0000 </r>
       <r>    -6.8373     0.0000     6.0000 </r>
       <r>    -6.7525     0.0000     6.0000 </r>
       <r>    -6.6678     0.0000     6.0000 </r>
       <r>    -6.5830     0.0000     6.0000 </r>
       <r>    -6.4982     0.0000     6.0000 </r>
       <r>    -6.4134     0.0000     6.0000 </r>
       <r>    -6.3286     0.0000     6.0000 </r>
       <r>    -6.2439     0.0000     6.0000 </r>
       <r>    -6.1591     0.0000     6.0000 </r>
       <r>    -6.0743     0.0000     6.0000 </r>
       <r>    -5.9895     0.0000     6.0000 </r>
       <r>    -5.9048     0.0000     6.0000 </r>
       <r>    -5.8200     0.0000     6.0000 </r>
       <r>    -5.7352     0.0000     6.0000 </r>
       <r>    -5.6504     0.0000     6.0000 </r>
       <r>    -5.5656     0.0000     6.0000 </r>
       <r>    -5.4809     0.0000     6.0000 </r>
       <r>    -5.3961     0.0000     6.0000 </r>
       <r>    -5.3113     0.0000     6.0000 </r>
       <r>    -5.2265     0.0000     6.0000 </r>
       <r>    -5.1418     0.0000     6.0000 </r>
       <r>    -5.0570     0.0000     6.0000 </r>
       <r>    -4.9722     0.0000     6.0000 </r>
       <r>    -4.8874     0.0000     6.0000 </r>
       <r>    -4.8027     0.0000     6.0000 </r>
       <r>    -4.7179     0.0000     6.0000 </r>
       <r>    -4.6331     0.0000     6.0000 </r>
       <r>    -4.5483     0.0000     6.0000 </r>
       <r>    -4.4635     0.0000     6.0000 </r>
       <r>    -4.3788     0.0000     6.0000 </r>
       <r>    -4.2940     0.0000     6.0000 </r>
       <r>    -4.2092     0.0000     6.0000 </r>
       <r>    -4.1244     0.0000     6.0000 </r>
       <r>    -4.0397     0.0000     6.0000 </r>
       <r>    -3.9549     0.0000     6.0000 </r>
       <r>    -3.8701     0.0000     6.0000 </r>
       <r>    -3.7853     0.0000     6.0000 </r>
       <r>    -3.7006     0.0000     6.0000 </r>
       <r>    -3.6158     0.0000     6.0000 </r>
       <r>    -3.5310     0.0000     6.0000 </r>
       <r>    -3.4462     0.0000     6.0000 </r>
       <r>    -3.3614     0.0000     6.0000 </r>
       <r>    -3.2767     0.0000     6.0000 </r>
       <r>    -3.1919     0.0000     6.0000 </r>
       <r>    -3.1071     0.0000     6.0000 </r>
       <r>    -3.0223     0.0000     6.0000 </r>
       <r>    -2.9376     0.0000     6.0000 </r>
       <r>    -2.8528     0.0000     6.0000 </r>
       <r>    -2.7680     0.0000     6.0000 </r>
       <r>    -2.6832     0.0000     6.0000 </r>
       <r>    -2.5984     0.0000     6.0000 </r>
       <r>    -2.5137     0.0000     6.0000 </r>
       <r>    -2.4289     0.0000     6.0000 </r>
       <r>    -2.3441     0.0000     6.0000 </r>
       <r>    -2.2593     0.0000     6.0000 </r>
       <r>    -2.1746     0.0000     6.0000 </r>
       <r>    -2.0898     0.0000     6.0000 </r>
       <r>    -2.0050     0.0000     6.0000 </r>
       <r>    -1.9202     0.0000     6.0000 </r>
       <r>    -1.8355     0.2213     6.0188 </r>
       <r>    -1.7507    16.0631     7.3805 </r>
       <r>    -1.6659    18.7205     8.9676 </r>
       <r>    -1.5811     0.3819     9.0000 </r>
       <r>    -1.4963     0.0000     9.0000 </r>
       <r>    -1.4116     0.0000     9.0000 </r>
       <r>    -1.3268     0.0000     9.0000 </r>
       <r>    -1.2420     0.0000     9.0000 </r>
       <r>    -1.1572     0.0000     9.0000 </r>
       <r>    -1.0725     0.0000     9.0000 </r>
       <r>    -0.9877     0.0000     9.0000 </r>
       <r>    -0.9029     0.0000     9.0000 </r>
       <r>    -0.8181     0.0000     9.0000 </r>
       <r>    -0.7334     0.0000     9.0000 </r>
       <r>    -0.6486     0.0000     9.0000 </r>
       <r>    -0.5638     0.0000     9.0000 </r>
       <r>    -0.4790     0.0000     9.0000 </r>
       <r>    -0.3942     0.0000     9.0000 </r>
       <r>    -0.3095     0.0000     9.0000 </r>
       <r>    -0.2247     0.0000     9.0000 </r>
       <r>    -0.1399     0.0001     9.0000 </r>
       <r>    -0.0551     0.2631     9.0223 </r>
       <r>     0.0296     7.4226     9.6516 </r>
       <r>     0.1144     4.0786     9.9973 </r>
       <r>     0.1992     0.0313    10.0000 </r>
       <r>     0.2840     0.0000    10.0000 </r>
       <r>     0.3688     0.0000    10.0000 </r>
       <r>     0.4535     0.0000    10.0000 </r>
       <r>     0.5383     0.0000    10.0000 </r>
       <r>     0.6231     0.0000    10.0000 </r>
       <r>     0.7079     0.0000    10.0000 </r>
       <r>     0.7926     0.0000    10.0000 </r>
       <r>     0.8774     0.0000    10.0000 </r>
       <r>     0.9622     0.0000    10.0000 </r>
       <r>     1.0470     0.0000    10.0000 </r>
       <r>     1.1317     0.0033    10.0003 </r>
       <r>     1.2165     2.5541    10.2168 </r>
       <r>     1.3013    18.1449    11.7551 </r>
       <r>     1.3861     2.8845    11.9996 </r>
       <r>     1.4709     0.0044    12.0000 </r>
       <r>     1.5556     0.0000    12.0000 </r>
       <r>     1.6404     0.0005    12.0000 </r>
       <r>     1.7252     1.3930    12.1181 </r>
       <r>     1.8100    29.3204    14.6038 </r>
       <r>     1.8947    16.2395    15.9806 </r>
       <r>     1.9795     0.2291    16.0000 </r>
       <r>     2.0643     0.0000    16.0000 </r>
       <r>     2.1491     0.0302    16.0026 </r>
       <r>     2.2338     8.0987    16.6891 </r>
       <r>     2.3186    25.5341    18.8539 </r>
       <r>     2.4034     1.7229    18.9999 </r>
       <r>     2.4882     0.0009    19.0000 </r>
       <r>     2.5730     0.0000    19.0000 </r>
       <r>     2.6577     0.0000    19.0000 </r>
       <r>     2.7425     0.1222    19.0104 </r>
       <r>     2.8273    10.3951    19.8916 </r>
       <r>     2.9121    30.1017    22.4436 </r>
       <r>     2.9968    18.0434    23.9732 </r>
       <r>     3.0816     0.3157    24.0000 </r>
       <r>     3.1664     0.0000    24.0000 </r>
       <r>     3.2512     0.0000    24.0000 </r>
       <r>     3.3360     0.0000    24.0000 </r>
       <r>     3.4207     0.0000    24.0000 </r>
       <r>     3.5055     0.0662    24.0056 </r>
       <r>     3.5903     8.2650    24.7063 </r>
       <r>     3.6751    14.7790    25.9592 </r>
       <r>     3.7598     4.8773    26.3727 </r>
       <r>     3.8446    13.3935    27.5082 </r>
       <r>     3.9294    13.7567    28.6744 </r>
       <r>     4.0142     6.8607    29.2560 </r>
       <r>     4.0989    22.5508    31.1678 </r>
       <r>     4.1837     9.5945    31.9812 </r>
       <r>     4.2685     0.2214    32.0000 </r>
       <r>     4.3533     0.0000    32.0000 </r>
       <r>     4.4381     0.0000    32.0000 </r>
       <r>     4.5228     0.0000    32.0000 </r>
       <r>     4.6076     0.0019    32.0002 </r>
       <r>     4.6924     1.6654    32.1414 </r>
       <r>     4.7772    20.0093    33.8377 </r>
       <r>     4.8619    15.5240    35.1538 </r>
       <r>     4.9467     9.2325    35.9365 </r>
       <r>     5.0315     0.7489    36.0000 </r>
       <r>     5.1163     0.0005    36.0000 </r>
       <r>     5.2010     0.0000    36.0000 </r>
       <r>     5.2858     0.0000    36.0000 </r>
       <r>     5.3706     0.0000    36.0000 </r>
       <r>     5.4554     0.0000    36.0000 </r>
       <r>     5.5402     0.0000    36.0000 </r>
       <r>     5.6249     0.0000    36.0000 </r>
       <r>     5.7097     0.0000    36.0000 </r>
       <r>     5.7945     0.0000    36.0000 </r>
       <r>     5.8793     0.0000    36.0000 </r>
       <r>     5.9640     0.0000    36.0000 </r>
       <r>     6.0488     0.0000    36.0000 </r>
      </set>
     </set>
    </array>
   </total>
   <partial>
    <array>
     <dimension dim="1">gridpoints</dimension>
     <dimension dim="2">spin</dimension>
     <dimension dim="3">ion</dimension>
     <field>energy</field>
     <field>    s</field>
     <field>   py</field>
     <field>   pz</field>
     <field>   px</field>
     <field>  dxy</field>
     <field>  dyz</field>
     <field>  dz2</field>
     <field>  dxz</field>
     <field>x2-y2</field>
     <set>
      <set comment="ion 1">
       <set comment="spin 1">
        <r>   -19.3843     0.0000     0.0000     0.0000     0.0000     0.0000     0.0000     0.0000     0.0000     0.0000 </r>
        <r>   -19.2995     0.0000     0.0000     0.0000     0.0000     0.0000     0.0000     0.0000     0.0000     0.0000 </r>
        <r>   -19.2148     0.0000     0.0000     0.0000     0.0000     0.0000     0.0000     0.0000     0.0000     0.0000 </r>
        <r>   -19.1300     0.0000     0.0000     0.0000     0.0000     0.0000     0.0000     0.0000     0.0000     0.0000 </r>
        <r>   -19.0452     0.0000     0.0000     0.0000     0.0000     0.0000     0.0000     0.0000     0.0000     0.0000 </r>
        <r>   -18.9604     0.0000     0.0000     0.0000     0.0000     0.0000     0.0000     0.0000     0.0000     0.0000 </r>
        <r>   -18.8757     0.0000     0.0000     0.0000     0.0000     0.0000     0.0000     0.0000     0.0000     0.0000 </r>
        <r>   -18.7909     0.0000     0.0000     0.0000     0.0000     0.0000     0.0000     0.0000     0.0000     0.0000 </r>
        <r>   -18.7061     0.0000     0.0000     0.0000     0.0000     0.0000     0.0000     0.0000     0.0000     0.0000 </r>
        <r>   -18.6213     0.0000     0.0000     0.0000     0.0000     0.0000     0.0000     0.0000     0.0000     0.0000 </r>
        <r>   -18.5366     0.0000     0.0000     0.0000     0.0000     0.0000     0.0000     0.0000     0.0000     0.0000 </r>
        <r>   -18.4518     0.0000     0.0000     0.0000     0.0000     0.0000     0.0000     0.0000     0.0000     0.0000 </r>
        <r>   -18.3670     0.0000     0.0000     0.0000     0.0000     0.0005     0.0005     0.0005     0.0005     0.0005 </r>
        <r>   -18.2822     0.0000     0.0000     0.0000     0.0000     0.7291     0.7291     0.7355     0.7291     0.7355 </r>
        <r>   -18.1974     0.0000     0.0000     0.0000     0.0000     8.6232     8.6232     8.6310     8.6232     8.6310 </r>
        <r>   -18.1127     0.0000     0.0000     0.0000     0.0000     2.2281     2.2281     2.2141     2.2281     2.2141 </r>
        <r>   -18.0279     0.0000     0.0000     0.0000     0.0000     0.0063     0.0063     0.0062     0.0063     0.0062 </r>
        <r>   -17.9431     0.0000     0.0000     0.0000     0.0000     0.0000     0.0000     0.0000     0.0000     0.0000 </r>
        <r>   -17.8583     0.0000     0.0000     0.0000     0.0000     0.0000     0.0000     0.0000     0.0000     0.0000 </r>
        <r>   -17.7736     0.0000     0.0000     0.0000     0.0000     0.0000     0.0000     0.0000     0.0000     0.0000 </r>
        <r>   -17.6888     0.0000     0.0000     0.0000     0.0000     0.0000     0.0000     0.0000     0.0000     0.0000 </r>
        <r>   -17.6040     0.0000     0.0000     0.0000     0.0000     0.0000     0.0000     0.0000     0.0000     0.0000 </r>
        <r>   -17.5192     0.0000     0.0000     0.0000     0.0000     0.0000     0.0000     0.0000     0.0000     0.0000 </r>
        <r>   -17.4344     0.0000     0.0000     0.0000     0.0000     0.0000     0.0000     0.0000     0.0000     0.0000 </r>
        <r>   -17.3497     0.0000     0.0000     0.0000     0.0000     0.0000     0.0000     0.0000     0.0000     0.0000 </r>
        <r>   -17.2649     0.0000     0.0000     0.0000     0.0000     0.0000     0.0000     0.0000     0.0000     0.0000 </r>
        <r>   -17.1801     0.0000     0.0000     0.0000     0.0000     0.0000     0.0000     0.0000     0.0000     0.0000 </r>
        <r>   -17.0953     0.0000     0.0000     0.0000     0.0000     0.0000     0.0000     0.0000     0.0000     0.0000 </r>
        <r>   -17.0106     0.0000     0.0000     0.0000     0.0000     0.0000     0.0000     0.0000     0.0000     0.0000 </r>
        <r>   -16.9258     0.0000     0.0000     0.0000     0.0000     0.0000     0.0000     0.0000     0.0000     0.0000 </r>
        <r>   -16.8410     0.0000     0.0000     0.0000     0.0000     0.0000     0.0000     0.0000     0.0000     0.0000 </r>
        <r>   -16.7562     0.0000     0.0000     0.0000     0.0000     0.0000     0.0000     0.0000     0.0000     0.0000 </r>
        <r>   -16.6715     0.0000     0.0000     0.0000     0.0000     0.0000     0.0000     0.0000     0.0000     0.0000 </r>
        <r>   -16.5867     0.0000     0.0000     0.0000     0.0000     0.0000     0.0000     0.0000     0.0000     0.0000 </r>
        <r>   -16.5019     0.0000     0.0000     0.0000     0.0000     0.0000     0.0000     0.0000     0.0000     0.0000 </r>
        <r>   -16.4171     0.0000     0.0000     0.0000     0.0000     0.0000     0.0000     0.0000     0.0000     0.0000 </r>
        <r>   -16.3323     0.0000     0.0000     0.0000     0.0000     0.0000     0.0000     0.0000     0.0000     0.0000 </r>
        <r>   -16.2476     0.0000     0.0000     0.0000     0.0000     0.0000     0.0000     0.0000     0.0000     0.0000 </r>
        <r>   -16.1628     0.0000     0.0000     0.0000     0.0000     0.0000     0.0000     0.0000     0.0000     0.0000 </r>
        <r>   -16.0780     0.0000     0.0000     0.0000     0.0000     0.0000     0.0000     0.0000     0.0000     0.0000 </r>
        <r>   -15.9932     0.0000     0.0000     0.0000     0.0000     0.0000     0.0000     0.0000     0.0000     0.0000 </r>
        <r>   -15.9085     0.0000     0.0000     0.0000     0.0000     0.0000     0.0000     0.0000     0.0000     0.0000 </r>
        <r>   -15.8237     0.0000     0.0000     0.0000     0.0000     0.0000     0.0000     0.0000     0.0000     0.0000 </r>
        <r>   -15.7389     0.0000     0.0000     0.0000     0.0000     0.0000     0.0000     0.0000     0.0000     0.0000 </r>
        <r>   -15.6541     0.0000     0.0000     0.0000     0.0000     0.0000     0.0000     0.0000     0.0000     0.0000 </r>
        <r>   -15.5694     0.0000     0.0000     0.0000     0.0000     0.0000     0.0000     0.0000     0.0000     0.0000 </r>
        <r>   -15.4846     0.0000     0.0000     0.0000     0.0000     0.0000     0.0000     0.0000     0.0000     0.0000 </r>
        <r>   -15.3998     0.0000     0.0000     0.0000     0.0000     0.0000     0.0000     0.0000     0.0000     0.0000 </r>
        <r>   -15.3150     0.0000     0.0000     0.0000     0.0000     0.0000     0.0000     0.0000     0.0000     0.0000 </r>
        <r>   -15.2302     0.0000     0.0000     0.0000     0.0000     0.0000     0.0000     0.0000     0.0000     0.0000 </r>
        <r>   -15.1455     0.0000     0.0000     0.0000     0.0000     0.0000     0.0000     0.0000     0.0000     0.0000 </r>
        <r>   -15.0607     0.0000     0.0000     0.0000     0.0000     0.0000     0.0000     0.0000     0.0000     0.0000 </r>
        <r>   -14.9759     0.0000     0.0000     0.0000     0.0000     0.0000     0.0000     0.0000     0.0000     0.0000 </r>
        <r>   -14.8911     0.0000     0.0000     0.0000     0.0000     0.0000     0.0000     0.0000     0.0000     0.0000 </r>
        <r>   -14.8064     0.0000     0.0000     0.0000     0.0000     0.0000     0.0000     0.0000     0.0000     0.0000 </r>
        <r>   -14.7216     0.0000     0.0000     0.0000     0.0000     0.0000     0.0000     0.0000     0.0000     0.0000 </r>
        <r>   -14.6368     0.0000     0.0000     0.0000     0.0000     0.0000     0.0000     0.0000     0.0000     0.0000 </r>
        <r>   -14.5520     0.0000     0.0000     0.0000     0.0000     0.0000     0.0000     0.0000     0.0000     0.0000 </r>
        <r>   -14.4672     0.0000     0.0000     0.0000     0.0000     0.0000     0.0000     0.0000     0.0000     0.0000 </r>
        <r>   -14.3825     0.0000     0.0000     0.0000     0.0000     0.0000     0.0000     0.0000     0.0000     0.0000 </r>
        <r>   -14.2977     0.0000     0.0000     0.0000     0.0000     0.0000     0.0000     0.0000     0.0000     0.0000 </r>
        <r>   -14.2129     0.0000     0.0000     0.0000     0.0000     0.0000     0.0000     0.0000     0.0000     0.0000 </r>
        <r>   -14.1281     0.0000     0.0000     0.0000     0.0000     0.0000     0.0000     0.0000     0.0000     0.0000 </r>
        <r>   -14.0434     0.0000     0.0000     0.0000     0.0000     0.0000     0.0000     0.0000     0.0000     0.0000 </r>
        <r>   -13.9586     0.0000     0.0000     0.0000     0.0000     0.0000     0.0000     0.0000     0.0000     0.0000 </r>
        <r>   -13.8738     0.0000     0.0000     0.0000     0.0000     0.0000     0.0000     0.0000     0.0000     0.0000 </r>
        <r>   -13.7890     0.0000     0.0000     0.0000     0.0000     0.0000     0.0000     0.0000     0.0000     0.0000 </r>
        <r>   -13.7043     0.0000     0.0000     0.0000     0.0000     0.0000     0.0000     0.0000     0.0000     0.0000 </r>
        <r>   -13.6195     0.0000     0.0000     0.0000     0.0000     0.0000     0.0000     0.0000     0.0000     0.0000 </r>
        <r>   -13.5347     0.0000     0.0000     0.0000     0.0000     0.0000     0.0000     0.0000     0.0000     0.0000 </r>
        <r>   -13.4499     0.0000     0.0000     0.0000     0.0000     0.0000     0.0000     0.0000     0.0000     0.0000 </r>
        <r>   -13.3651     0.0000     0.0000     0.0000     0.0000     0.0000     0.0000     0.0000     0.0000     0.0000 </r>
        <r>   -13.2804     0.0000     0.0000     0.0000     0.0000     0.0000     0.0000     0.0000     0.0000     0.0000 </r>
        <r>   -13.1956     0.0000     0.0000     0.0000     0.0000     0.0000     0.0000     0.0000     0.0000     0.0000 </r>
        <r>   -13.1108     0.0000     0.0000     0.0000     0.0000     0.0000     0.0000     0.0000     0.0000     0.0000 </r>
        <r>   -13.0260     0.0000     0.0000     0.0000     0.0000     0.0000     0.0000     0.0000     0.0000     0.0000 </r>
        <r>   -12.9413     0.0000     0.0000     0.0000     0.0000     0.0000     0.0000     0.0000     0.0000     0.0000 </r>
        <r>   -12.8565     0.0000     0.0000     0.0000     0.0000     0.0000     0.0000     0.0000     0.0000     0.0000 </r>
        <r>   -12.7717     0.0000     0.0000     0.0000     0.0000     0.0000     0.0000     0.0000     0.0000     0.0000 </r>
        <r>   -12.6869     0.0000     0.0000     0.0000     0.0000     0.0000     0.0000     0.0000     0.0000     0.0000 </r>
        <r>   -12.6022     0.0000     0.0000     0.0000     0.0000     0.0000     0.0000     0.0000     0.0000     0.0000 </r>
        <r>   -12.5174     0.0000     0.0000     0.0000     0.0000     0.0000     0.0000     0.0000     0.0000     0.0000 </r>
        <r>   -12.4326     0.0000     0.0000     0.0000     0.0000     0.0000     0.0000     0.0000     0.0000     0.0000 </r>
        <r>   -12.3478     0.0000     0.0000     0.0000     0.0000     0.0000     0.0000     0.0000     0.0000     0.0000 </r>
        <r>   -12.2630     0.0000     0.0000     0.0000     0.0000     0.0000     0.0000     0.0000     0.0000     0.0000 </r>
        <r>   -12.1783     0.0000     0.0000     0.0000     0.0000     0.0000     0.0000     0.0000     0.0000     0.0000 </r>
        <r>   -12.0935     0.0000     0.0000     0.0000     0.0000     0.0000     0.0000     0.0000     0.0000     0.0000 </r>
        <r>   -12.0087     0.0000     0.0000     0.0000     0.0000     0.0000     0.0000     0.0000     0.0000     0.0000 </r>
        <r>   -11.9239     0.0000     0.0000     0.0000     0.0000     0.0000     0.0000     0.0000     0.0000     0.0000 </r>
        <r>   -11.8392     0.0000     0.0000     0.0000     0.0000     0.0000     0.0000     0.0000     0.0000     0.0000 </r>
        <r>   -11.7544     0.0000     0.0000     0.0000     0.0000     0.0000     0.0000     0.0000     0.0000     0.0000 </r>
        <r>   -11.6696     0.0000     0.0000     0.0000     0.0000     0.0000     0.0000     0.0000     0.0000     0.0000 </r>
        <r>   -11.5848     0.0000     0.0000     0.0000     0.0000     0.0000     0.0000     0.0000     0.0000     0.0000 </r>
        <r>   -11.5000     0.0000     0.0000     0.0000     0.0000     0.0000     0.0000     0.0000     0.0000     0.0000 </r>
        <r>   -11.4153     0.0000     0.0000     0.0000     0.0000     0.0000     0.0000     0.0000     0.0000     0.0000 </r>
        <r>   -11.3305     0.0000     0.0000     0.0000     0.0000     0.0000     0.0000     0.0000     0.0000     0.0000 </r>
        <r>   -11.2457     0.0000     0.0000     0.0000     0.0000     0.0000     0.0000     0.0000     0.0000     0.0000 </r>
        <r>   -11.1609     0.0000     0.0000     0.0000     0.0000     0.0000     0.0000     0.0000     0.0000     0.0000 </r>
        <r>   -11.0762     0.0000     0.0000     0.0000     0.0000     0.0000     0.0000     0.0000     0.0000     0.0000 </r>
        <r>   -10.9914     0.0000     0.0000     0.0000     0.0000     0.0000     0.0000     0.0000     0.0000     0.0000 </r>
        <r>   -10.9066     0.0000     0.0000     0.0000     0.0000     0.0000     0.0000     0.0000     0.0000     0.0000 </r>
        <r>   -10.8218     0.0000     0.0000     0.0000     0.0000     0.0000     0.0000     0.0000     0.0000     0.0000 </r>
        <r>   -10.7371     0.0000     0.0000     0.0000     0.0000     0.0000     0.0000     0.0000     0.0000     0.0000 </r>
        <r>   -10.6523     0.0000     0.0000     0.0000     0.0000     0.0000     0.0000     0.0000     0.0000     0.0000 </r>
        <r>   -10.5675     0.0000     0.0000     0.0000     0.0000     0.0000     0.0000     0.0000     0.0000     0.0000 </r>
        <r>   -10.4827     0.0000     0.0000     0.0000     0.0000     0.0000     0.0000     0.0000     0.0000     0.0000 </r>
        <r>   -10.3979     0.0000     0.0000     0.0000     0.0000     0.0000     0.0000     0.0000     0.0000     0.0000 </r>
        <r>   -10.3132     0.0000     0.0000     0.0000     0.0000     0.0000     0.0000     0.0000     0.0000     0.0000 </r>
        <r>   -10.2284     0.0000     0.0000     0.0000     0.0000     0.0000     0.0000     0.0000     0.0000     0.0000 </r>
        <r>   -10.1436     0.0000     0.0000     0.0000     0.0000     0.0000     0.0000     0.0000     0.0000     0.0000 </r>
        <r>   -10.0588     0.0000     0.0000     0.0000     0.0000     0.0000     0.0000     0.0000     0.0000     0.0000 </r>
        <r>    -9.9741     0.0000     0.0000     0.0000     0.0000     0.0000     0.0000     0.0000     0.0000     0.0000 </r>
        <r>    -9.8893     0.0000     0.0000     0.0000     0.0000     0.0000     0.0000     0.0000     0.0000     0.0000 </r>
        <r>    -9.8045     0.0000     0.0000     0.0000     0.0000     0.0000     0.0000     0.0000     0.0000     0.0000 </r>
        <r>    -9.7197     0.0000     0.0000     0.0000     0.0000     0.0000     0.0000     0.0000     0.0000     0.0000 </r>
        <r>    -9.6350     0.0000     0.0000     0.0000     0.0000     0.0000     0.0000     0.0000     0.0000     0.0000 </r>
        <r>    -9.5502     0.0000     0.0000     0.0000     0.0000     0.0000     0.0000     0.0000     0.0000     0.0000 </r>
        <r>    -9.4654     0.0000     0.0000     0.0000     0.0000     0.0000     0.0000     0.0000     0.0000     0.0000 </r>
        <r>    -9.3806     0.0000     0.0000     0.0000     0.0000     0.0000     0.0000     0.0000     0.0000     0.0000 </r>
        <r>    -9.2958     0.0000     0.0000     0.0000     0.0000     0.0000     0.0000     0.0000     0.0000     0.0000 </r>
        <r>    -9.2111     0.0000     0.0000     0.0000     0.0000     0.0000     0.0000     0.0000     0.0000     0.0000 </r>
        <r>    -9.1263     0.0000     0.0000     0.0000     0.0000     0.0000     0.0000     0.0000     0.0000     0.0000 </r>
        <r>    -9.0415     0.0000     0.0000     0.0000     0.0000     0.0000     0.0000     0.0000     0.0000     0.0000 </r>
        <r>    -8.9567     0.0000     0.0000     0.0000     0.0000     0.0000     0.0000     0.0000     0.0000     0.0000 </r>
        <r>    -8.8720     0.0000     0.0000     0.0000     0.0000     0.0000     0.0000     0.0000     0.0000     0.0000 </r>
        <r>    -8.7872     0.0000     0.0000     0.0000     0.0000     0.0000     0.0000     0.0000     0.0000     0.0000 </r>
        <r>    -8.7024     0.0000     0.0000     0.0000     0.0000     0.0000     0.0000     0.0000     0.0000     0.0000 </r>
        <r>    -8.6176     0.0000     0.0000     0.0000     0.0000     0.0000     0.0000     0.0000     0.0000     0.0000 </r>
        <r>    -8.5328     0.0000     0.0000     0.0000     0.0000     0.0000     0.0000     0.0000     0.0000     0.0000 </r>
        <r>    -8.4481     0.0000     0.0000     0.0000     0.0000     0.0000     0.0000     0.0000     0.0000     0.0000 </r>
        <r>    -8.3633     0.0000     0.0000     0.0000     0.0000     0.0000     0.0000     0.0000     0.0000     0.0000 </r>
        <r>    -8.2785     0.0000     0.0000     0.0000     0.0000     0.0000     0.0000     0.0000     0.0000     0.0000 </r>
        <r>    -8.1937     0.0039     0.0000     0.0000     0.0000     0.0000     0.0000     0.0000     0.0000     0.0000 </r>
        <r>    -8.1090     1.3224     0.0000     0.0000     0.0000     0.0000     0.0000     0.0000     0.0000     0.0000 </r>
        <r>    -8.0242     4.9318     0.0000     0.0000     0.0000     0.0000     0.0000     0.0000     0.0000     0.0000 </r>
        <r>    -7.9394     0.4004     0.0000     0.0000     0.0000     0.0000     0.0000     0.0000     0.0000     0.0000 </r>
        <r>    -7.8546     0.0003     0.0000     0.0000     0.0000     0.0000     0.0000     0.0000     0.0000     0.0000 </r>
        <r>    -7.7699     0.0000     0.0000     0.0000     0.0000     0.0000     0.0000     0.0000     0.0000     0.0000 </r>
        <r>    -7.6851     0.0000     0.0000     0.0000     0.0000     0.0000     0.0000     0.0000     0.0000     0.0000 </r>
        <r>    -7.6003     0.0000     0.0000     0.0000     0.0000     0.0000     0.0000     0.0000     0.0000     0.0000 </r>
        <r>    -7.5155     0.0000     0.0000     0.0000     0.0000     0.0000     0.0000     0.0000     0.0000     0.0000 </r>
        <r>    -7.4307     0.0000     0.0000     0.0000     0.0000     0.0000     0.0000     0.0000     0.0000     0.0000 </r>
        <r>    -7.3460     0.0000     0.0000     0.0000     0.0000     0.0000     0.0000     0.0000     0.0000     0.0000 </r>
        <r>    -7.2612     0.0000     0.0000     0.0000     0.0000     0.0000     0.0000     0.0000     0.0000     0.0000 </r>
        <r>    -7.1764     0.0000     0.0000     0.0000     0.0000     0.0000     0.0000     0.0000     0.0000     0.0000 </r>
        <r>    -7.0916     0.0000     0.0000     0.0000     0.0000     0.0000     0.0000     0.0000     0.0000     0.0000 </r>
        <r>    -7.0069     0.0000     0.0000     0.0000     0.0000     0.0000     0.0000     0.0000     0.0000     0.0000 </r>
        <r>    -6.9221     0.0000     0.0000     0.0000     0.0000     0.0000     0.0000     0.0000     0.0000     0.0000 </r>
        <r>    -6.8373     0.0000     0.0000     0.0000     0.0000     0.0000     0.0000     0.0000     0.0000     0.0000 </r>
        <r>    -6.7525     0.0000     0.0000     0.0000     0.0000     0.0000     0.0000     0.0000     0.0000     0.0000 </r>
        <r>    -6.6678     0.0000     0.0000     0.0000     0.0000     0.0000     0.0000     0.0000     0.0000     0.0000 </r>
        <r>    -6.5830     0.0000     0.0000     0.0000     0.0000     0.0000     0.0000     0.0000     0.0000     0.0000 </r>
        <r>    -6.4982     0.0000     0.0000     0.0000     0.0000     0.0000     0.0000     0.0000     0.0000     0.0000 </r>
        <r>    -6.4134     0.0000     0.0000     0.0000     0.0000     0.0000     0.0000     0.0000     0.0000     0.0000 </r>
        <r>    -6.3286     0.0000     0.0000     0.0000     0.0000     0.0000     0.0000     0.0000     0.0000     0.0000 </r>
        <r>    -6.2439     0.0000     0.0000     0.0000     0.0000     0.0000     0.0000     0.0000     0.0000     0.0000 </r>
        <r>    -6.1591     0.0000     0.0000     0.0000     0.0000     0.0000     0.0000     0.0000     0.0000     0.0000 </r>
        <r>    -6.0743     0.0000     0.0000     0.0000     0.0000     0.0000     0.0000     0.0000     0.0000     0.0000 </r>
        <r>    -5.9895     0.0000     0.0000     0.0000     0.0000     0.0000     0.0000     0.0000     0.0000     0.0000 </r>
        <r>    -5.9048     0.0000     0.0000     0.0000     0.0000     0.0000     0.0000     0.0000     0.0000     0.0000 </r>
        <r>    -5.8200     0.0000     0.0000     0.0000     0.0000     0.0000     0.0000     0.0000     0.0000     0.0000 </r>
        <r>    -5.7352     0.0000     0.0000     0.0000     0.0000     0.0000     0.0000     0.0000     0.0000     0.0000 </r>
        <r>    -5.6504     0.0000     0.0000     0.0000     0.0000     0.0000     0.0000     0.0000     0.0000     0.0000 </r>
        <r>    -5.5656     0.0000     0.0000     0.0000     0.0000     0.0000     0.0000     0.0000     0.0000     0.0000 </r>
        <r>    -5.4809     0.0000     0.0000     0.0000     0.0000     0.0000     0.0000     0.0000     0.0000     0.0000 </r>
        <r>    -5.3961     0.0000     0.0000     0.0000     0.0000     0.0000     0.0000     0.0000     0.0000     0.0000 </r>
        <r>    -5.3113     0.0000     0.0000     0.0000     0.0000     0.0000     0.0000     0.0000     0.0000     0.0000 </r>
        <r>    -5.2265     0.0000     0.0000     0.0000     0.0000     0.0000     0.0000     0.0000     0.0000     0.0000 </r>
        <r>    -5.1418     0.0000     0.0000     0.0000     0.0000     0.0000     0.0000     0.0000     0.0000     0.0000 </r>
        <r>    -5.0570     0.0000     0.0000     0.0000     0.0000     0.0000     0.0000     0.0000     0.0000     0.0000 </r>
        <r>    -4.9722     0.0000     0.0000     0.0000     0.0000     0.0000     0.0000     0.0000     0.0000     0.0000 </r>
        <r>    -4.8874     0.0000     0.0000     0.0000     0.0000     0.0000     0.0000     0.0000     0.0000     0.0000 </r>
        <r>    -4.8027     0.0000     0.0000     0.0000     0.0000     0.0000     0.0000     0.0000     0.0000     0.0000 </r>
        <r>    -4.7179     0.0000     0.0000     0.0000     0.0000     0.0000     0.0000     0.0000     0.0000     0.0000 </r>
        <r>    -4.6331     0.0000     0.0000     0.0000     0.0000     0.0000     0.0000     0.0000     0.0000     0.0000 </r>
        <r>    -4.5483     0.0000     0.0000     0.0000     0.0000     0.0000     0.0000     0.0000     0.0000     0.0000 </r>
        <r>    -4.4635     0.0000     0.0000     0.0000     0.0000     0.0000     0.0000     0.0000     0.0000     0.0000 </r>
        <r>    -4.3788     0.0000     0.0000     0.0000     0.0000     0.0000     0.0000     0.0000     0.0000     0.0000 </r>
[...]
        <r>     2.2338     0.0000     0.0002     0.0001     0.0001     0.0353     0.0369     0.0000     0.0361     0.0000 </r>
        <r>     2.3186     0.0000     0.0007     0.0005     0.0004     0.1149     0.1128     0.0000     0.1139     0.0000 </r>
        <r>     2.4034     0.0000     0.0000     0.0000     0.0000     0.0080     0.0073     0.0000     0.0077     0.0000 </r>
        <r>     2.4882     0.0000     0.0000     0.0000     0.0000     0.0000     0.0000     0.0000     0.0000     0.0000 </r>
        <r>     2.5730     0.0000     0.0000     0.0000     0.0000     0.0000     0.0000     0.0000     0.0000     0.0000 </r>
        <r>     2.6577     0.0000     0.0000     0.0000     0.0000     0.0000     0.0000     0.0000     0.0000     0.0000 </r>
        <r>     2.7425     0.0000     0.0000     0.0000     0.0000     0.0000     0.0000     0.0003     0.0000     0.0003 </r>
        <r>     2.8273     0.0000     0.0003     0.0000     0.0002     0.0000     0.0000     0.0255     0.0000     0.0253 </r>
        <r>     2.9121     0.0001     0.0010     0.0006     0.0002     0.0004     0.0002     0.0329     0.0001     0.0329 </r>
        <r>     2.9968     0.0001     0.0007     0.0006     0.0000     0.0004     0.0002     0.0008     0.0001     0.0010 </r>
        <r>     3.0816     0.0000     0.0000     0.0000     0.0000     0.0000     0.0000     0.0000     0.0000     0.0000 </r>
        <r>     3.1664     0.0000     0.0000     0.0000     0.0000     0.0000     0.0000     0.0000     0.0000     0.0000 </r>
        <r>     3.2512     0.0000     0.0000     0.0000     0.0000     0.0000     0.0000     0.0000     0.0000     0.0000 </r>
        <r>     3.3360     0.0000     0.0000     0.0000     0.0000     0.0000     0.0000     0.0000     0.0000     0.0000 </r>
        <r>     3.4207     0.0000     0.0000     0.0000     0.0000     0.0000     0.0000     0.0000     0.0000     0.0000 </r>
        <r>     3.5055     0.0000     0.0013     0.0005     0.0022     0.0000     0.0000     0.0000     0.0000     0.0000 </r>
        <r>     3.5903     0.0012     0.1847     0.0615     0.2506     0.0002     0.0014     0.0009     0.0009     0.0004 </r>
        <r>     3.6751     0.0036     0.3655     0.1134     0.4058     0.0004     0.0027     0.0014     0.0016     0.0007 </r>
        <r>     3.7598     0.1514     0.0186     0.0076     0.0131     0.0002     0.0002     0.0001     0.0001     0.0000 </r>
        <r>     3.8446     0.2578     0.0178     0.1764     0.0047     0.0122     0.0098     0.0007     0.0041     0.0011 </r>
        <r>     3.9294     0.0091     0.0765     0.2562     0.0278     0.0129     0.0448     0.0008     0.0048     0.0037 </r>
        <r>     4.0142     0.0004     0.0356     0.0535     0.0137     0.0090     0.0208     0.0001     0.0122     0.0015 </r>
        <r>     4.0989     0.0003     0.0300     0.0694     0.0125     0.0556     0.0177     0.0001     0.0673     0.0048 </r>
        <r>     4.1837     0.0001     0.0281     0.0239     0.0073     0.0083     0.0023     0.0000     0.0086     0.0067 </r>
        <r>     4.2685     0.0000     0.0008     0.0005     0.0002     0.0000     0.0000     0.0000     0.0000     0.0002 </r>
        <r>     4.3533     0.0000     0.0000     0.0000     0.0000     0.0000     0.0000     0.0000     0.0000     0.0000 </r>
        <r>     4.4381     0.0000     0.0000     0.0000     0.0000     0.0000     0.0000     0.0000     0.0000     0.0000 </r>
        <r>     4.5228     0.0000     0.0000     0.0000     0.0000     0.0000     0.0000     0.0000     0.0000     0.0000 </r>
        <r>     4.6076     0.0000     0.0000     0.0000     0.0000     0.0000     0.0000     0.0000     0.0000     0.0000 </r>
        <r>     4.6924     0.0006     0.0044     0.0003     0.0008     0.0000     0.0000     0.0344     0.0000     0.0121 </r>
        <r>     4.7772     0.0169     0.0448     0.0163     0.0098     0.0001     0.0045     0.2510     0.0026     0.2449 </r>
        <r>     4.8619     0.0548     0.0443     0.0389     0.0186     0.0000     0.0112     0.0610     0.0064     0.1199 </r>
        <r>     4.9467     0.1569     0.0196     0.0089     0.0269     0.0000     0.0006     0.0011     0.0003     0.0251 </r>
        <r>     5.0315     0.0133     0.0015     0.0006     0.0022     0.0000     0.0000     0.0000     0.0000     0.0021 </r>
        <r>     5.1163     0.0000     0.0000     0.0000     0.0000     0.0000     0.0000     0.0000     0.0000     0.0000 </r>
        <r>     5.2010     0.0000     0.0000     0.0000     0.0000     0.0000     0.0000     0.0000     0.0000     0.0000 </r>
        <r>     5.2858     0.0000     0.0000     0.0000     0.0000     0.0000     0.0000     0.0000     0.0000     0.0000 </r>
        <r>     5.3706     0.0000     0.0000     0.0000     0.0000     0.0000     0.0000     0.0000     0.0000     0.0000 </r>
        <r>     5.4554     0.0000     0.0000     0.0000     0.0000     0.0000     0.0000     0.0000     0.0000     0.0000 </r>
        <r>     5.5402     0.0000     0.0000     0.0000     0.0000     0.0000     0.0000     0.0000     0.0000     0.0000 </r>
        <r>     5.6249     0.0000     0.0000     0.0000     0.0000     0.0000     0.0000     0.0000     0.0000     0.0000 </r>
        <r>     5.7097     0.0000     0.0000     0.0000     0.0000     0.0000     0.0000     0.0000     0.0000     0.0000 </r>
        <r>     5.7945     0.0000     0.0000     0.0000     0.0000     0.0000     0.0000     0.0000     0.0000     0.0000 </r>
        <r>     5.8793     0.0000     0.0000     0.0000     0.0000     0.0000     0.0000     0.0000     0.0000     0.0000 </r>
        <r>     5.9640     0.0000     0.0000     0.0000     0.0000     0.0000     0.0000     0.0000     0.0000     0.0000 </r>
        <r>     6.0488     0.0000     0.0000     0.0000     0.0000     0.0000     0.0000     0.0000     0.0000     0.0000 </r>
       </set>
      </set>
     </set>
    </array>
   </partial>
  </dos>
  <projected>
   <eigenvalues>
    <array>
     <dimension dim="1">band</dimension>
     <dimension dim="2">kpoint</dimension>
     <dimension dim="3">spin</dimension>
     <field>eigene</field>
     <field>occ</field>
     <set>
      <set comment="spin 1">
       <set comment="kpoint 1">
        <r>  -18.2283    1.0000 </r>
        <r>  -18.2283    1.0000 </r>
        <r>  -18.2281    1.0000 </r>
        <r>  -18.2281    1.0000 </r>
        <r>  -18.2281    1.0000 </r>
        <r>   -8.0791    1.0000 </r>
        <r>   -2.4089    0.3388 </r>
        <r>   -2.4089    0.3388 </r>
        <r>   -2.4073    0.3225 </r>
        <r>   -0.5387    0.0000 </r>
        <r>    0.6866    0.0000 </r>
        <r>    0.6867    0.0000 </r>
        <r>    1.2168    0.0000 </r>
        <r>    1.2174    0.0000 </r>
        <r>    1.2301    0.0000 </r>
        <r>    1.4310    0.0000 </r>
        <r>    1.6200    0.0000 </r>
        <r>    1.6206    0.0000 </r>
        <r>    1.6219    0.0000 </r>
        <r>    2.3281    0.0000 </r>
        <r>    2.3383    0.0000 </r>
        <r>    2.3411    0.0000 </r>
        <r>    2.3642    0.0000 </r>
        <r>    2.3768    0.0000 </r>
        <r>    3.0907    0.0000 </r>
        <r>    3.1051    0.0000 </r>
        <r>    3.2351    0.0000 </r>
        <r>    3.3639    0.0000 </r>
        <r>    3.4678    0.0000 </r>
        <r>    3.4784    0.0000 </r>
        <r>    3.5467    0.0000 </r>
        <r>    3.5527    0.0000 </r>
        <r>    4.1742    0.0000 </r>
        <r>    4.2288    0.0000 </r>
        <r>    4.3936    0.0000 </r>
        <r>    4.5731    0.0000 </r>
       </set>
      </set>
      <set comment="spin 2">
       <set comment="kpoint 1">
        <r>  -18.1531    1.0000 </r>
        <r>  -18.1531    1.0000 </r>
        <r>  -18.1529    1.0000 </r>
        <r>  -18.1529    1.0000 </r>
        <r>  -18.1529    1.0000 </r>
        <r>   -7.4995    1.0000 </r>
        <r>   -1.7478    0.0000 </r>
        <r>   -1.7473    0.0000 </r>
        <r>   -1.7463    0.0000 </r>
        <r>    0.0159    0.0000 </r>
        <r>    1.2601    0.0000 </r>
        <r>    1.2603    0.0000 </r>
        <r>    1.7874    0.0000 </r>
        <r>    1.7878    0.0000 </r>
        <r>    1.7886    0.0000 </r>
        <r>    1.8186    0.0000 </r>
        <r>    2.2591    0.0000 </r>
        <r>    2.2600    0.0000 </r>
        <r>    2.2610    0.0000 </r>
        <r>    2.8331    0.0000 </r>
        <r>    2.8332    0.0000 </r>
        <r>    2.9116    0.0000 </r>
        <r>    2.9118    0.0000 </r>
        <r>    2.9155    0.0000 </r>
        <r>    3.6013    0.0000 </r>
        <r>    3.6060    0.0000 </r>
        <r>    3.7721    0.0000 </r>
        <r>    3.8445    0.0000 </r>
        <r>    3.9126    0.0000 </r>
        <r>    4.0524    0.0000 </r>
        <r>    4.0566    0.0000 </r>
        <r>    4.1100    0.0000 </r>
        <r>    4.7351    0.0000 </r>
        <r>    4.7609    0.0000 </r>
        <r>    4.7981    0.0000 </r>
        <r>    4.8928    0.0000 </r>
       </set>
      </set>
     </set>
    </array>
   </eigenvalues>
   <array>
    <dimension dim="1">ion</dimension>
    <dimension dim="2">band</dimension>
    <dimension dim="3">kpoint</dimension>
    <dimension dim="4">spin</dimension>
    <field>    s</field>
    <field>   py</field>
    <field>   pz</field>
    <field>   px</field>
    <field>  dxy</field>
    <field>  dyz</field>
    <field>  dz2</field>
    <field>  dxz</field>
    <field>x2-y2</field>
    <set>
     <set comment="spin1">
      <set comment="kpoint 1">
       <set comment="band 1">
        <r>  0.0000  0.0000  0.0000  0.0000  0.0000  0.0000  0.0559  0.0000  0.9265 </r>
       </set>
       <set comment="band 2">
        <r>  0.0000  0.0000  0.0000  0.0000  0.0000  0.0000  0.9265  0.0000  0.0559 </r>
       </set>
       <set comment="band 3">
        <r>  0.0000  0.0000  0.0000  0.0000  0.0121  0.6973  0.0000  0.2729  0.0000 </r>
       </set>
       <set comment="band 4">
        <r>  0.0000  0.0000  0.0000  0.0000  0.1926  0.1841  0.0000  0.6056  0.0000 </r>
       </set>
       <set comment="band 5">
        <r>  0.0000  0.0000  0.0000  0.0000  0.7777  0.1009  0.0000  0.1038  0.0000 </r>
       </set>
       <set comment="band 6">
        <r>  0.5645  0.0000  0.0000  0.0000  0.0000  0.0000  0.0000  0.0000  0.0000 </r>
       </set>
       <set comment="band 7">
        <r>  0.0000  0.2027  0.0493  0.0105  0.0000  0.0000  0.0000  0.0000  0.0000 </r>
       </set>
       <set comment="band 8">
        <r>  0.0000  0.0361  0.2050  0.0213  0.0000  0.0000  0.0000  0.0000  0.0000 </r>
       </set>
       <set comment="band 9">
        <r>  0.0000  0.0231  0.0079  0.2271  0.0000  0.0000  0.0000  0.0000  0.0000 </r>
       </set>
       <set comment="band 10">
        <r>  0.0257  0.0000  0.0000  0.0000  0.0000  0.0000  0.0000  0.0000  0.0000 </r>
       </set>
       <set comment="band 11">
        <r>  0.0000  0.0000  0.0000  0.0000  0.0000  0.0000  0.0029  0.0000  0.0016 </r>
       </set>
       <set comment="band 12">
        <r>  0.0000  0.0000  0.0000  0.0000  0.0000  0.0000  0.0016  0.0000  0.0029 </r>
       </set>
       <set comment="band 13">
        <r>  0.0000  0.0111  0.0157  0.0119  0.0000  0.0000  0.0000  0.0000  0.0000 </r>
       </set>
       <set comment="band 14">
        <r>  0.0000  0.0229  0.0149  0.0000  0.0000  0.0000  0.0000  0.0000  0.0000 </r>
       </set>
       <set comment="band 15">
        <r>  0.0009  0.0049  0.0076  0.0279  0.0001  0.0000  0.0000  0.0000  0.0000 </r>
       </set>
       <set comment="band 16">
        <r>  0.0294  0.0001  0.0003  0.0008  0.0000  0.0000  0.0000  0.0000  0.0000 </r>
       </set>
       <set comment="band 17">
        <r>  0.0000  0.0001  0.0000  0.0002  0.0102  0.0020  0.0000  0.0011  0.0000 </r>
       </set>
       <set comment="band 18">
        <r>  0.0000  0.0000  0.0000  0.0003  0.0025  0.0105  0.0000  0.0002  0.0000 </r>
       </set>
       <set comment="band 19">
        <r>  0.0000  0.0000  0.0000  0.0000  0.0006  0.0008  0.0000  0.0121  0.0000 </r>
       </set>
       <set comment="band 20">
        <r>  0.0000  0.0002  0.0004  0.0003  0.0000  0.0000  0.0002  0.0000  0.0000 </r>
       </set>
       <set comment="band 21">
        <r>  0.0000  0.0005  0.0001  0.0006  0.0000  0.0000  0.0000  0.0000  0.0000 </r>
       </set>
       <set comment="band 22">
        <r>  0.0000  0.0000  0.0000  0.0002  0.0000  0.0000  0.0013  0.0000  0.0001 </r>
       </set>
       <set comment="band 23">
        <r>  0.0000  0.0000  0.0000  0.0000  0.0000  0.0000  0.0036  0.0000  0.0001 </r>
       </set>
       <set comment="band 24">
        <r>  0.0000  0.0000  0.0000  0.0000  0.0000  0.0000  0.0000  0.0000  0.0050 </r>
       </set>
       <set comment="band 25">
        <r>  0.0007  0.0116  0.0194  0.0252  0.0000  0.0000  0.0000  0.0001  0.0003 </r>
       </set>
       <set comment="band 26">
        <r>  0.0024  0.0001  0.0270  0.0288  0.0000  0.0000  0.0001  0.0000  0.0000 </r>
       </set>
       <set comment="band 27">
        <r>  0.0041  0.0324  0.0033  0.0025  0.0003  0.0015  0.0001  0.0002  0.0002 </r>
       </set>
       <set comment="band 28">
        <r>  0.0301  0.0039  0.0050  0.0000  0.0000  0.0000  0.0001  0.0000  0.0000 </r>
       </set>
       <set comment="band 29">
        <r>  0.0000  0.0020  0.0001  0.0006  0.0000  0.0001  0.0007  0.0001  0.0000 </r>
       </set>
       <set comment="band 30">
        <r>  0.0014  0.0073  0.0008  0.0014  0.0037  0.0020  0.0000  0.0015  0.0000 </r>
       </set>
       <set comment="band 31">
        <r>  0.0003  0.0010  0.0002  0.0003  0.0049  0.0028  0.0000  0.0009  0.0000 </r>
       </set>
       <set comment="band 32">
        <r>  0.0002  0.0004  0.0002  0.0001  0.0000  0.0025  0.0000  0.0062  0.0000 </r>
       </set>
       <set comment="band 33">
        <r>  0.0001  0.0022  0.0001  0.0007  0.0000  0.0000  0.0324  0.0000  0.0010 </r>
       </set>
       <set comment="band 34">
        <r>  0.0027  0.0001  0.0006  0.0000  0.0000  0.0000  0.0006  0.0000  0.0308 </r>
       </set>
       <set comment="band 35">
        <r>  0.0176  0.0003  0.0026  0.0000  0.0002  0.0002  0.0023  0.0001  0.0026 </r>
       </set>
       <set comment="band 36">
        <r>  0.0015  0.0027  0.0089  0.0033  0.0007  0.0013  0.0002  0.0039  0.0001 </r>
       </set>
      </set>
     </set>
     <set comment="spin2">
      <set comment="kpoint 1">
       <set comment="band 1">
        <r>  0.0000  0.0000  0.0000  0.0000  0.0000  0.0000  0.9525  0.0000  0.0307 </r>
       </set>
       <set comment="band 2">
        <r>  0.0000  0.0000  0.0000  0.0000  0.0000  0.0000  0.0307  0.0000  0.9525 </r>
       </set>
       <set comment="band 3">
        <r>  0.0000  0.0000  0.0000  0.0000  0.0131  0.0470  0.0000  0.9231  0.0000 </r>
       </set>
       <set comment="band 4">
        <r>  0.0000  0.0000  0.0000  0.0000  0.9467  0.0306  0.0000  0.0059  0.0000 </r>
       </set>
       <set comment="band 5">
        <r>  0.0000  0.0000  0.0000  0.0000  0.0233  0.9056  0.0000  0.0542  0.0000 </r>
       </set>
       <set comment="band 6">
        <r>  0.5735  0.0000  0.0000  0.0000  0.0000  0.0000  0.0000  0.0000  0.0000 </r>
       </set>
       <set comment="band 7">
        <r>  0.0000  0.0007  0.2363  0.0253  0.0000  0.0000  0.0000  0.0000  0.0000 </r>
       </set>
       <set comment="band 8">
        <r>  0.0000  0.1444  0.0158  0.1007  0.0000  0.0000  0.0000  0.0000  0.0000 </r>
       </set>
       <set comment="band 9">
        <r>  0.0000  0.1147  0.0104  0.1343  0.0000  0.0000  0.0000  0.0000  0.0000 </r>
       </set>
       <set comment="band 10">
        <r>  0.0242  0.0000  0.0000  0.0000  0.0000  0.0000  0.0000  0.0000  0.0000 </r>
       </set>
       <set comment="band 11">
        <r>  0.0000  0.0000  0.0000  0.0000  0.0000  0.0000  0.0019  0.0000  0.0022 </r>
       </set>
       <set comment="band 12">
        <r>  0.0000  0.0000  0.0000  0.0000  0.0000  0.0000  0.0022  0.0000  0.0019 </r>
       </set>
       <set comment="band 13">
        <r>  0.0010  0.0005  0.0305  0.0053  0.0000  0.0000  0.0000  0.0000  0.0000 </r>
       </set>
       <set comment="band 14">
        <r>  0.0003  0.0160  0.0050  0.0155  0.0000  0.0000  0.0000  0.0000  0.0000 </r>
       </set>
       <set comment="band 15">
        <r>  0.0001  0.0216  0.0010  0.0164  0.0000  0.0000  0.0000  0.0000  0.0000 </r>
       </set>
       <set comment="band 16">
        <r>  0.0290  0.0002  0.0005  0.0011  0.0000  0.0000  0.0000  0.0000  0.0000 </r>
       </set>
       <set comment="band 17">
        <r>  0.0000  0.0001  0.0000  0.0000  0.0013  0.0101  0.0000  0.0020  0.0000 </r>
       </set>
       <set comment="band 18">
        <r>  0.0000  0.0000  0.0000  0.0000  0.0012  0.0030  0.0000  0.0092  0.0000 </r>
       </set>
       <set comment="band 19">
        <r>  0.0000  0.0000  0.0000  0.0000  0.0109  0.0002  0.0000  0.0022  0.0000 </r>
       </set>
       <set comment="band 20">
        <r>  0.0000  0.0000  0.0000  0.0000  0.0000  0.0000  0.0050  0.0000  0.0000 </r>
       </set>
       <set comment="band 21">
        <r>  0.0000  0.0000  0.0000  0.0000  0.0000  0.0000  0.0000  0.0000  0.0050 </r>
       </set>
       <set comment="band 22">
        <r>  0.0000  0.0000  0.0000  0.0000  0.0000  0.0000  0.0000  0.0000  0.0000 </r>
       </set>
       <set comment="band 23">
        <r>  0.0000  0.0001  0.0000  0.0000  0.0000  0.0000  0.0000  0.0000  0.0000 </r>
       </set>
       <set comment="band 24">
        <r>  0.0000  0.0000  0.0001  0.0000  0.0001  0.0000  0.0000  0.0000  0.0000 </r>
       </set>
       <set comment="band 25">
        <r>  0.0001  0.0000  0.0051  0.0559  0.0000  0.0001  0.0002  0.0001  0.0000 </r>
       </set>
       <set comment="band 26">
        <r>  0.0003  0.0480  0.0101  0.0010  0.0000  0.0003  0.0000  0.0001  0.0001 </r>
       </set>
       <set comment="band 27">
        <r>  0.0355  0.0010  0.0001  0.0001  0.0000  0.0000  0.0000  0.0000  0.0000 </r>
       </set>
       <set comment="band 28">
        <r>  0.0000  0.0014  0.0296  0.0005  0.0021  0.0014  0.0001  0.0007  0.0002 </r>
       </set>
       <set comment="band 29">
        <r>  0.0001  0.0088  0.0110  0.0033  0.0001  0.0047  0.0000  0.0001  0.0004 </r>
       </set>
       <set comment="band 30">
        <r>  0.0000  0.0014  0.0026  0.0008  0.0005  0.0014  0.0000  0.0059  0.0001 </r>
       </set>
       <set comment="band 31">
        <r>  0.0000  0.0001  0.0039  0.0001  0.0057  0.0006  0.0000  0.0016  0.0000 </r>
       </set>
       <set comment="band 32">
        <r>  0.0000  0.0037  0.0022  0.0009  0.0000  0.0000  0.0000  0.0000  0.0009 </r>
       </set>
       <set comment="band 33">
        <r>  0.0000  0.0032  0.0002  0.0006  0.0000  0.0000  0.0252  0.0000  0.0022 </r>
       </set>
       <set comment="band 34">
        <r>  0.0017  0.0002  0.0000  0.0000  0.0000  0.0000  0.0019  0.0000  0.0293 </r>
       </set>
       <set comment="band 35">
        <r>  0.0010  0.0042  0.0045  0.0014  0.0000  0.0014  0.0024  0.0008  0.0000 </r>
       </set>
       <set comment="band 36">
        <r>  0.0178  0.0020  0.0008  0.0030  0.0000  0.0000  0.0000  0.0000  0.0028 </r>
       </set>
      </set>
     </set>
    </set>
   </array>
  </projected>
 </calculation>
 <structure name="finalpos" >
  <crystal>
   <varray name="basis" >
    <v>      10.00000000       0.00000000       0.00000000 </v>
    <v>       0.00000000      10.00000000       0.00000000 </v>
    <v>       0.00000000       0.00000000      10.00000000 </v>
   </varray>
   <i name="volume">   1000.00000000 </i>
   <varray name="rec_basis" >
    <v>       0.10000000       0.00000000       0.00000000 </v>
    <v>       0.00000000       0.10000000       0.00000000 </v>
    <v>       0.00000000       0.00000000       0.10000000 </v>
   </varray>
  </crystal>
  <varray name="positions" >
   <v>       0.50000000       0.50000000       0.50000000 </v>
  </varray>
 </structure>
</modeling>
