       N       E                     dE             d eps       ncg     rms          ort
DAV:   1     0.118699752986E+03    0.11870E+03   -0.43248E+03    36   0.259E+02
DAV:   2     0.226956250592E+02   -0.96004E+02   -0.96004E+02    36   0.695E+01
DAV:   3     0.343046059323E+01   -0.19265E+02   -0.19233E+02    36   0.356E+01
DAV:   4     0.217648691659E+00   -0.32128E+01   -0.30177E+01    36   0.178E+01
DAV:   5    -0.616039767077E+00   -0.83369E+00   -0.82744E+00    36   0.566E+00
SDA:   6    -0.963820336021E+00   -0.34778E+00   -0.28062E+01    36   0.702E+01 0.000E+00
DMP:   7    -0.303840226506E+01   -0.20746E+01   -0.39628E+01    36   0.125E+02-0.683E+01
DMP:   8    -0.371803408668E+01   -0.67963E+00   -0.25280E+01    36   0.897E+01-0.693E+01
DMP:   9    -0.421864157927E+01   -0.50061E+00   -0.99501E+00    36   0.392E+01-0.374E+01
DMP:  10    -0.450887977436E+01   -0.29024E+00   -0.16988E+00    36   0.822E+00-0.104E+01
DMP:  11    -0.458274888887E+01   -0.73869E-01   -0.49258E-01    36   0.144E+00-0.552E-01
DMP:  12    -0.458968671295E+01   -0.69378E-02   -0.40323E-01    36   0.134E+00-0.879E-01
DMP:  13    -0.460510914249E+01   -0.15422E-01   -0.52099E-02    36   0.220E-01-0.235E-01
DMP:  14    -0.460705731332E+01   -0.19482E-02   -0.47854E-02    36   0.132E-01-0.324E-02
DMP:  15    -0.460869953783E+01   -0.16422E-02   -0.88726E-03    36   0.366E-02-0.377E-02
DMP:  16    -0.460912098325E+01   -0.42145E-03   -0.62892E-03    36   0.162E-02-0.112E-03
DMP:  17    -0.460935973474E+01   -0.23875E-03   -0.12682E-03    36   0.459E-03-0.373E-03
DMP:  18    -0.460941868074E+01   -0.58946E-04   -0.90052E-04    36   0.234E-03-0.233E-04
DMP:  19    -0.460945999808E+01   -0.41317E-04   -0.18160E-04    36   0.534E-04-0.208E-04
   1 F= -.46094600E+01 E0= -.46094600E+01  d E =-.460946E+01  mag=     6.0000
