<?xml version="1.0" encoding="ISO-8859-1"?>
<modeling>
 <generator>
  <i name="program" type="string">vasp </i>
  <i name="version" type="string">5.4.4.18Apr17-6-g9f103f2a35  </i>
  <i name="subversion" type="string">(build Nov 08 2019 15:19:53) gamma-only         parallel </i>
  <i name="platform" type="string">LinuxIFC </i>
  <i name="date" type="string">2020 11 30 </i>
  <i name="time" type="string">09:30:45 </i>
 </generator>
 <incar>
  <i type="string" name="PREC">accurate</i>
  <i type="string" name="ALGO"> D</i>
  <i type="int" name="ISPIN">     2</i>
  <i type="int" name="NELM">   300</i>
  <i type="int" name="IBRION">     2</i>
  <i name="EDIFF">      0.00005000</i>
  <i type="int" name="NSW">    99</i>
  <i type="int" name="ISIF">     2</i>
  <i name="ENCUT">    520.00000000</i>
  <v name="MAGMOM">      0.60000000</v>
  <i type="string" name="LREAL"> Auto</i>
  <i type="int" name="ISMEAR">     0</i>
  <i name="SIGMA">      0.05000000</i>
  <i type="logical" name="LWAVE"> F  </i>
  <i type="int" name="LORBIT">    11</i>
  <i type="logical" name="LASPH"> T  </i>
  <v type="int" name="KPOINT_BSE">    -1     0     0     0</v>
  <i type="int" name="NELM">   300</i>
  <i type="logical" name="LASPH"> T  </i>
 </incar>
 <structure name="primitive_cell" >
  <crystal>
   <varray name="basis" >
    <v>      10.00000000       0.00000000       0.00000000 </v>
    <v>       0.00000000      10.00000000       0.00000000 </v>
    <v>       0.00000000       0.00000000      10.00000000 </v>
   </varray>
   <i name="volume">   1000.00000000 </i>
   <varray name="rec_basis" >
    <v>       0.10000000       0.00000000       0.00000000 </v>
    <v>       0.00000000       0.10000000       0.00000000 </v>
    <v>       0.00000000       0.00000000       0.10000000 </v>
   </varray>
  </crystal>
  <varray name="positions" >
   <v>      -0.50000000      -0.50000000      -0.50000000 </v>
  </varray>
 </structure>
 <varray name="primitive_index" >
  <v type="int" >        1 </v>
 </varray>
 <kpoints>
  <generation param="Gamma">
   <v type="int" name="divisions">       1        1        1 </v>
   <v name="usershift">      0.00000000       0.00000000       0.00000000 </v>
   <v name="genvec1">      1.00000000       0.00000000       0.00000000 </v>
   <v name="genvec2">      0.00000000       1.00000000       0.00000000 </v>
   <v name="genvec3">      0.00000000       0.00000000       1.00000000 </v>
   <v name="shift">      0.00000000       0.00000000       0.00000000 </v>
  </generation>
  <varray name="kpointlist" >
   <v>       0.00000000       0.00000000       0.00000000 </v>
  </varray>
  <varray name="weights" >
   <v>       1.00000000 </v>
  </varray>
 </kpoints>
 <parameters>
  <separator name="general" >
   <i type="string" name="SYSTEM">unknown system</i>
   <i type="logical" name="LCOMPAT"> F  </i>
  </separator>
  <separator name="electronic" >
   <i type="string" name="PREC">accura</i>
   <i name="ENMAX">    520.00000000</i>
   <i name="ENAUG">    392.42700000</i>
   <i name="EDIFF">      0.00005000</i>
   <i type="int" name="IALGO">    53</i>
   <i type="int" name="IWAVPR">    11</i>
   <i type="int" name="NBANDS">    36</i>
   <i name="NELECT">     12.00000000</i>
   <i type="int" name="TURBO">     0</i>
   <i type="int" name="IRESTART">     0</i>
   <i type="int" name="NREBOOT">     0</i>
   <i type="int" name="NMIN">     0</i>
   <i name="EREF">      0.00000000</i>
   <separator name="electronic smearing" >
    <i type="int" name="ISMEAR">     0</i>
    <i name="SIGMA">      0.05000000</i>
    <i name="KSPACING">      0.50000000</i>
    <i type="logical" name="KGAMMA"> T  </i>
   </separator>
   <separator name="electronic projectors" >
    <i type="logical" name="LREAL"> T  </i>
    <v name="ROPT">     -0.00025000</v>
    <i type="int" name="LMAXPAW">  -100</i>
    <i type="int" name="LMAXMIX">     2</i>
    <i type="logical" name="NLSPLINE"> F  </i>
   </separator>
   <separator name="electronic startup" >
    <i type="int" name="ISTART">     0</i>
    <i type="int" name="ICHARG">     2</i>
    <i type="int" name="INIWAV">     1</i>
   </separator>
   <separator name="electronic spin" >
    <i type="int" name="ISPIN">     2</i>
    <i type="logical" name="LNONCOLLINEAR"> F  </i>
    <v name="MAGMOM">      0.60000000</v>
    <i name="NUPDOWN">     -1.00000000</i>
    <i type="logical" name="LSORBIT"> F  </i>
    <v name="SAXIS">      0.00000000      0.00000000      1.00000000</v>
    <i type="logical" name="LSPIRAL"> F  </i>
    <v name="QSPIRAL">      0.00000000      0.00000000      0.00000000</v>
    <i type="logical" name="LZEROZ"> F  </i>
   </separator>
   <separator name="electronic exchange-correlation" >
    <i type="logical" name="LASPH"> T  </i>
    <i type="logical" name="LMETAGGA"> F  </i>
   </separator>
   <separator name="electronic convergence" >
    <i type="int" name="NELM">   300</i>
    <i type="int" name="NELMDL">    -5</i>
    <i type="int" name="NELMIN">     2</i>
    <i name="ENINI">    520.00000000</i>
    <separator name="electronic convergence detail" >
     <i type="logical" name="LDIAG"> T  </i>
     <i type="logical" name="LSUBROT"> F  </i>
     <i name="WEIMIN">      0.00100000</i>
     <i name="EBREAK">      0.00000035</i>
     <i name="DEPER">      0.30000000</i>
     <i type="int" name="NRMM">     4</i>
     <i name="TIME">      0.40000000</i>
    </separator>
   </separator>
   <separator name="electronic mixer" >
    <i name="AMIX">      0.40000000</i>
    <i name="BMIX">      1.00000000</i>
    <i name="AMIN">      0.10000000</i>
    <i name="AMIX_MAG">      1.60000000</i>
    <i name="BMIX_MAG">      1.00000000</i>
    <separator name="electronic mixer details" >
     <i type="int" name="IMIX">     4</i>
     <i type="logical" name="MIXFIRST"> F  </i>
     <i type="int" name="MAXMIX">   -45</i>
     <i name="WC">    100.00000000</i>
     <i type="int" name="INIMIX">     1</i>
     <i type="int" name="MIXPRE">     1</i>
     <i type="int" name="MREMOVE">     5</i>
    </separator>
   </separator>
   <separator name="electronic dipolcorrection" >
    <i type="logical" name="LDIPOL"> F  </i>
    <i type="logical" name="LMONO"> F  </i>
    <i type="int" name="IDIPOL">     0</i>
    <i name="EPSILON">      1.00000000</i>
    <v name="DIPOL">   -100.00000000   -100.00000000   -100.00000000</v>
    <i name="EFIELD">      0.00000000</i>
   </separator>
  </separator>
  <separator name="grids" >
   <i type="int" name="NGX">    80</i>
   <i type="int" name="NGY">    80</i>
   <i type="int" name="NGZ">    80</i>
   <i type="int" name="NGXF">   160</i>
   <i type="int" name="NGYF">   160</i>
   <i type="int" name="NGZF">   160</i>
   <i type="logical" name="ADDGRID"> F  </i>
  </separator>
  <separator name="ionic" >
   <i type="int" name="NSW">    99</i>
   <i type="int" name="IBRION">     2</i>
   <i type="int" name="MDALGO">     0</i>
   <i type="int" name="ISIF">     2</i>
   <i name="PSTRESS">      0.00000000</i>
   <i name="EDIFFG">      0.00050000</i>
   <i type="int" name="NFREE">     1</i>
   <i name="POTIM">      0.50000000</i>
   <i name="SMASS">     -3.00000000</i>
   <i name="SCALEE">      1.00000000</i>
  </separator>
  <separator name="ionic md" >
   <i name="TEBEG">      0.00010000</i>
   <i name="TEEND">      0.00010000</i>
   <i type="int" name="NBLOCK">     1</i>
   <i type="int" name="KBLOCK">    99</i>
   <i type="int" name="NPACO">   256</i>
   <i name="APACO">     16.00000000</i>
  </separator>
  <separator name="symmetry" >
   <i type="int" name="ISYM">     2</i>
   <i name="SYMPREC">      0.00001000</i>
  </separator>
  <separator name="dos" >
   <i type="int" name="LORBIT">    11</i>
   <v name="RWIGS">     -1.00000000</v>
   <i type="int" name="NEDOS">   301</i>
   <i name="EMIN">     10.00000000</i>
   <i name="EMAX">    -10.00000000</i>
   <i name="EFERMI">      0.00000000</i>
  </separator>
  <separator name="writing" >
   <i type="int" name="NWRITE">     2</i>
   <i type="logical" name="LWAVE"> F  </i>
   <i type="logical" name="LDOWNSAMPLE"> F  </i>
   <i type="logical" name="LCHARG"> T  </i>
   <i type="logical" name="LPARD"> F  </i>
   <i type="logical" name="LVTOT"> F  </i>
   <i type="logical" name="LVHAR"> F  </i>
   <i type="logical" name="LELF"> F  </i>
   <i type="logical" name="LOPTICS"> F  </i>
   <v name="STM">      0.00000000      0.00000000      0.00000000      0.00000000      0.00000000      0.00000000      0.00000000</v>
  </separator>
  <separator name="performance" >
   <i type="int" name="NPAR">    36</i>
   <i type="int" name="NSIM">     4</i>
   <i type="int" name="NBLK">    -1</i>
   <i type="logical" name="LPLANE"> T  </i>
   <i type="logical" name="LSCALAPACK"> T  </i>
   <i type="logical" name="LSCAAWARE"> F  </i>
   <i type="logical" name="LSCALU"> F  </i>
   <i type="logical" name="LASYNC"> F  </i>
   <i type="logical" name="LORBITALREAL"> F  </i>
  </separator>
  <separator name="miscellaneous" >
   <i type="int" name="IDIOT">     3</i>
   <i type="int" name="ISPECIAL">     0</i>
   <i type="logical" name="LMUSIC"> F  </i>
   <v name="POMASS">     95.94000000</v>
   <v name="DARWINR">      0.00000000</v>
   <v name="DARWINV">      1.00000000</v>
   <i type="logical" name="LCORR"> T  </i>
  </separator>
  <i type="logical" name="GGA_COMPAT"> T  </i>
  <i type="logical" name="LBERRY"> F  </i>
  <i type="int" name="ICORELEVEL">     0</i>
  <i type="logical" name="LDAU"> F  </i>
  <i type="int" name="I_CONSTRAINED_M">     0</i>
  <separator name="electronic exchange-correlation" >
   <i type="string" name="GGA">--</i>
   <i type="int" name="VOSKOWN">     0</i>
   <i type="logical" name="LHFCALC"> F  </i>
   <i type="string" name="PRECFOCK"></i>
   <i type="logical" name="LSYMGRAD"> F  </i>
   <i type="logical" name="LHFONE"> F  </i>
   <i type="logical" name="LRHFCALC"> F  </i>
   <i type="logical" name="LTHOMAS"> F  </i>
   <i type="logical" name="LMODELHF"> F  </i>
   <i name="ENCUT4O">     -1.00000000</i>
   <i type="int" name="EXXOEP">     0</i>
   <i type="int" name="FOURORBIT">     0</i>
   <i name="AEXX">      0.00000000</i>
   <i name="HFALPHA">      0.00000000</i>
   <i name="MCALPHA">      0.00000000</i>
   <i name="ALDAX">      1.00000000</i>
   <i name="AGGAX">      1.00000000</i>
   <i name="ALDAC">      1.00000000</i>
   <i name="AGGAC">      1.00000000</i>
   <i type="int" name="NKREDX">     1</i>
   <i type="int" name="NKREDY">     1</i>
   <i type="int" name="NKREDZ">     1</i>
   <i type="logical" name="SHIFTRED"> F  </i>
   <i type="logical" name="ODDONLY"> F  </i>
   <i type="logical" name="EVENONLY"> F  </i>
   <i type="int" name="LMAXFOCK">     0</i>
   <i type="int" name="NMAXFOCKAE">     0</i>
   <i type="logical" name="LFOCKAEDFT"> F  </i>
   <i name="HFSCREEN">      0.00000000</i>
   <i name="HFSCREENC">      0.00000000</i>
   <i type="int" name="NBANDSGWLOW">     0</i>
  </separator>
  <separator name="vdW DFT" >
   <i type="logical" name="LUSE_VDW"> F  </i>
   <i name="Zab_VDW">     -0.84910000</i>
   <i name="PARAM1">      0.12340000</i>
   <i name="PARAM2">      1.00000000</i>
   <i name="PARAM3">      0.00000000</i>
  </separator>
  <separator name="model GW" >
   <i type="int" name="MODEL_GW">     0</i>
   <i name="MODEL_EPS0">    600.00000000</i>
   <i name="MODEL_ALPHA">      1.00000000</i>
  </separator>
  <separator name="linear response parameters" >
   <i type="logical" name="LEPSILON"> F  </i>
   <i type="logical" name="LRPA"> F  </i>
   <i type="logical" name="LNABLA"> F  </i>
   <i type="logical" name="LVEL"> F  </i>
   <i type="int" name="KINTER">     0</i>
   <i name="CSHIFT">      0.10000000</i>
   <i name="OMEGAMAX">     -1.00000000</i>
   <i name="DEG_THRESHOLD">      0.00200000</i>
   <i name="RTIME">     -0.10000000</i>
   <i name="WPLASMAI">      0.00000000</i>
   <v name="DFIELD">      0.00000000      0.00000000      0.00000000</v>
   <v name="WPLASMA">      0.00000000      0.00000000      0.00000000      0.00000000      0.00000000      0.00000000      0.00000000      0.00000000      0.00000000</v>
  </separator>
  <separator name="orbital magnetization" >
   <i type="logical" name="NUCIND"> F  </i>
   <v name="MAGPOS">      0.00000000      0.00000000      0.00000000</v>
   <i type="logical" name="LNICSALL"> T  </i>
   <i type="logical" name="ORBITALMAG"> F  </i>
   <i type="logical" name="LMAGBLOCH"> F  </i>
   <i type="logical" name="LCHIMAG"> F  </i>
   <i type="logical" name="LGAUGE"> T  </i>
   <i type="int" name="MAGATOM">     0</i>
   <v name="MAGDIPOL">      0.00000000      0.00000000      0.00000000</v>
   <v name="AVECCONST">      0.00000000      0.00000000      0.00000000</v>
  </separator>
  <separator name="response functions" >
   <i type="logical" name="LADDER"> F  </i>
   <i type="logical" name="LRPAFORCE"> F  </i>
   <i type="logical" name="LFXC"> F  </i>
   <i type="logical" name="LHARTREE"> T  </i>
   <i type="int" name="IBSE">     0</i>
   <v type="int" name="KPOINT">    -1     0     0     0</v>
   <i type="logical" name="LTCTE"> F  </i>
   <i type="logical" name="LTETE"> F  </i>
   <i type="logical" name="LTRIPLET"> F  </i>
   <i type="logical" name="LFXCEPS"> F  </i>
   <i type="logical" name="LFXHEG"> F  </i>
   <i type="int" name="NATURALO">     2</i>
   <i type="logical" name="L2ORDER"> F  </i>
   <i type="logical" name="LMP2LT"> F  </i>
   <i type="logical" name="LUSEW"> F  </i>
   <i name="ENCUTGW">     -2.00000000</i>
   <i name="ENCUTGWSOFT">     -2.00000000</i>
   <i name="ENCUTLF">     -1.00000000</i>
   <i type="int" name="LMAXMP2">    -1</i>
   <i name="SCISSOR">      0.00000000</i>
   <i type="int" name="NOMEGA">     0</i>
   <i type="int" name="NOMEGAR">     0</i>
   <i type="int" name="NBANDSGW">    -1</i>
   <i type="int" name="NBANDSO">    -1</i>
   <i type="int" name="NBANDSV">    -1</i>
   <i type="int" name="NELM">   300</i>
   <i type="int" name="NELMHF">     1</i>
   <i type="int" name="DIM">     3</i>
   <i type="int" name="ANTIRES">     0</i>
   <i name="OMEGAMAX">    -30.00000000</i>
   <i name="OMEGAMIN">    -30.00000000</i>
   <i name="OMEGATL">   -200.00000000</i>
   <i type="int" name="OMEGAGRID">   140</i>
   <i name="CSHIFT">     -0.10000000</i>
   <i type="logical" name="SELFENERGY"> F  </i>
   <i type="logical" name="LSPECTRAL"> F  </i>
   <i type="logical" name="LSPECTRALGW"> F  </i>
   <i type="logical" name="LSINGLES"> F  </i>
   <i type="logical" name="LFERMIGW"> F  </i>
   <i type="logical" name="ODDONLYGW"> F  </i>
   <i type="logical" name="EVENONLYGW"> F  </i>
   <i type="int" name="NKREDLFX">     1</i>
   <i type="int" name="NKREDLFY">     1</i>
   <i type="int" name="NKREDLFZ">     1</i>
   <i type="int" name="MAXMEM">  2800</i>
   <i type="int" name="TELESCOPE">     0</i>
   <i type="int" name="TAUPAR">     1</i>
   <i type="int" name="OMEGAPAR">    -1</i>
   <i name="LAMBDA">      1.00000000</i>
  </separator>
  <separator name="External order field" >
   <i name="OFIELD_KAPPA">      0.00000000</i>
   <v name="OFIELD_K">      0.00000000      0.00000000      0.00000000</v>
   <i name="OFIELD_Q6_NEAR">      0.00000000</i>
   <i name="OFIELD_Q6_FAR">      0.00000000</i>
   <i name="OFIELD_A">      0.00000000</i>
  </separator>
 </parameters>
 <atominfo>
  <atoms>       1 </atoms>
  <types>       1 </types>
  <array name="atoms" >
   <dimension dim="1">ion</dimension>
   <field type="string">element</field>
   <field type="int">atomtype</field>
   <set>
    <rc><c>Mo</c><c>   1</c></rc>
   </set>
  </array>
  <array name="atomtypes" >
   <dimension dim="1">type</dimension>
   <field type="int">atomspertype</field>
   <field type="string">element</field>
   <field>mass</field>
   <field>valence</field>
   <field type="string">pseudopotential</field>
   <set>
    <rc><c>   1</c><c>Mo</c><c>     95.94000000</c><c>     12.00000000</c><c>  PAW_PBE Mo_pv 04Feb2005               </c></rc>
   </set>
  </array>
 </atominfo>
 <structure name="initialpos" >
  <crystal>
   <varray name="basis" >
    <v>      10.00000000       0.00000000       0.00000000 </v>
    <v>       0.00000000      10.00000000       0.00000000 </v>
    <v>       0.00000000       0.00000000      10.00000000 </v>
   </varray>
   <i name="volume">   1000.00000000 </i>
   <varray name="rec_basis" >
    <v>       0.10000000       0.00000000       0.00000000 </v>
    <v>       0.00000000       0.10000000       0.00000000 </v>
    <v>       0.00000000       0.00000000       0.10000000 </v>
   </varray>
  </crystal>
  <varray name="positions" >
   <v>       0.50000000       0.50000000       0.50000000 </v>
  </varray>
 </structure>
 <calculation>
  <scstep>
   <time name="total">    0.91    0.92</time>
   <energy>
    <i name="alphaZ">      1.39348740 </i>
    <i name="ewald">   -294.16665608 </i>
    <i name="hartreedc">   -794.62902964 </i>
    <i name="XCdc">     34.08998165 </i>
    <i name="pawpsdc">   1049.09683281 </i>
    <i name="pawaedc">  -1030.05393677 </i>
    <i name="eentropy">     -0.00133379 </i>
    <i name="bandstr">   -131.32847988 </i>
    <i name="atom">   1284.29888730 </i>
    <i name="e_fr_energy">    118.69975299 </i>
    <i name="e_wo_entrp">    118.70108678 </i>
    <i name="e_0_energy">    118.70041988 </i>
   </energy>
  </scstep>
  <scstep>
   <time name="total">    0.26    0.27</time>
   <energy>
    <i name="e_fr_energy">     22.69562506 </i>
    <i name="e_wo_entrp">     22.69587237 </i>
    <i name="e_0_energy">     22.69574872 </i>
   </energy>
  </scstep>
  <scstep>
   <time name="total">    0.34    0.34</time>
   <energy>
    <i name="e_fr_energy">      3.43046059 </i>
    <i name="e_wo_entrp">      3.45856427 </i>
    <i name="e_0_energy">      3.44451243 </i>
   </energy>
  </scstep>
  <scstep>
   <time name="total">    0.36    0.36</time>
   <energy>
    <i name="e_fr_energy">      0.21764869 </i>
    <i name="e_wo_entrp">      0.23711044 </i>
    <i name="e_0_energy">      0.22737956 </i>
   </energy>
  </scstep>
  <scstep>
   <time name="total">    0.58    0.58</time>
   <energy>
    <i name="e_fr_energy">     -0.61603977 </i>
    <i name="e_wo_entrp">     -0.58172027 </i>
    <i name="e_0_energy">     -0.59888002 </i>
   </energy>
  </scstep>
  <scstep>
   <time name="total">    0.96    0.97</time>
   <energy>
    <i name="e_fr_energy">     -0.96382034 </i>
    <i name="e_wo_entrp">     -0.96381556 </i>
    <i name="e_0_energy">     -0.96381795 </i>
   </energy>
  </scstep>
  <scstep>
   <time name="total">    0.88    0.88</time>
   <energy>
    <i name="e_fr_energy">     -3.03840227 </i>
    <i name="e_wo_entrp">     -3.03840226 </i>
    <i name="e_0_energy">     -3.03840226 </i>
   </energy>
  </scstep>
  <scstep>
   <time name="total">    0.88    0.88</time>
   <energy>
    <i name="e_fr_energy">     -3.71803409 </i>
    <i name="e_wo_entrp">     -3.71803409 </i>
    <i name="e_0_energy">     -3.71803409 </i>
   </energy>
  </scstep>
  <scstep>
   <time name="total">    0.89    0.89</time>
   <energy>
    <i name="e_fr_energy">     -4.21864158 </i>
    <i name="e_wo_entrp">     -4.21864158 </i>
    <i name="e_0_energy">     -4.21864158 </i>
   </energy>
  </scstep>
  <scstep>
   <time name="total">    0.88    0.88</time>
   <energy>
    <i name="e_fr_energy">     -4.50887977 </i>
    <i name="e_wo_entrp">     -4.50887977 </i>
    <i name="e_0_energy">     -4.50887977 </i>
   </energy>
  </scstep>
  <scstep>
   <time name="total">    0.89    0.89</time>
   <energy>
    <i name="e_fr_energy">     -4.58274889 </i>
    <i name="e_wo_entrp">     -4.58274889 </i>
    <i name="e_0_energy">     -4.58274889 </i>
   </energy>
  </scstep>
  <scstep>
   <time name="total">    0.88    0.88</time>
   <energy>
    <i name="e_fr_energy">     -4.58968671 </i>
    <i name="e_wo_entrp">     -4.58968671 </i>
    <i name="e_0_energy">     -4.58968671 </i>
   </energy>
  </scstep>
  <scstep>
   <time name="total">    0.89    0.90</time>
   <energy>
    <i name="e_fr_energy">     -4.60510914 </i>
    <i name="e_wo_entrp">     -4.60510914 </i>
    <i name="e_0_energy">     -4.60510914 </i>
   </energy>
  </scstep>
  <scstep>
   <time name="total">    0.89    0.89</time>
   <energy>
    <i name="e_fr_energy">     -4.60705731 </i>
    <i name="e_wo_entrp">     -4.60705731 </i>
    <i name="e_0_energy">     -4.60705731 </i>
   </energy>
  </scstep>
  <scstep>
   <time name="total">    0.88    0.88</time>
   <energy>
    <i name="e_fr_energy">     -4.60869954 </i>
    <i name="e_wo_entrp">     -4.60869954 </i>
    <i name="e_0_energy">     -4.60869954 </i>
   </energy>
  </scstep>
  <scstep>
   <time name="total">    0.91    0.91</time>
   <energy>
    <i name="e_fr_energy">     -4.60912098 </i>
    <i name="e_wo_entrp">     -4.60912098 </i>
    <i name="e_0_energy">     -4.60912098 </i>
   </energy>
  </scstep>
  <scstep>
   <time name="total">    0.89    0.89</time>
   <energy>
    <i name="e_fr_energy">     -4.60935973 </i>
    <i name="e_wo_entrp">     -4.60935973 </i>
    <i name="e_0_energy">     -4.60935973 </i>
   </energy>
  </scstep>
  <scstep>
   <time name="total">    0.87    0.87</time>
   <energy>
    <i name="e_fr_energy">     -4.60941868 </i>
    <i name="e_wo_entrp">     -4.60941868 </i>
    <i name="e_0_energy">     -4.60941868 </i>
   </energy>
  </scstep>
  <scstep>
   <time name="total">    0.94    0.94</time>
   <energy>
    <i name="alphaZ">      1.39348740 </i>
    <i name="ewald">   -294.16665608 </i>
    <i name="hartreedc">   -801.84374708 </i>
    <i name="XCdc">     36.34593087 </i>
    <i name="pawpsdc">   1060.05731932 </i>
    <i name="pawaedc">  -1041.09757364 </i>
    <i name="eentropy">     -0.00000000 </i>
    <i name="bandstr">   -249.59710810 </i>
    <i name="atom">   1284.29888730 </i>
    <i name="e_fr_energy">     -4.60946000 </i>
    <i name="e_wo_entrp">     -4.60946000 </i>
    <i name="e_0_energy">     -4.60946000 </i>
   </energy>
  </scstep>
  <structure>
   <crystal>
    <varray name="basis" >
     <v>      10.00000000       0.00000000       0.00000000 </v>
     <v>       0.00000000      10.00000000       0.00000000 </v>
     <v>       0.00000000       0.00000000      10.00000000 </v>
    </varray>
    <i name="volume">   1000.00000000 </i>
    <varray name="rec_basis" >
     <v>       0.10000000       0.00000000       0.00000000 </v>
     <v>       0.00000000       0.10000000       0.00000000 </v>
     <v>       0.00000000       0.00000000       0.10000000 </v>
    </varray>
   </crystal>
   <varray name="positions" >
    <v>       0.50000000       0.50000000       0.50000000 </v>
   </varray>
  </structure>
  <varray name="forces" >
   <v>       0.00000000       0.00000000       0.00000000 </v>
  </varray>
  <varray name="stress" >
   <v>      -0.01788673       0.00000000       0.00000000 </v>
   <v>       0.00000000      -0.01788673       0.00000000 </v>
   <v>      -0.00000000      -0.00000000      -0.01788673 </v>
  </varray>
  <energy>
   <i name="e_fr_energy">     -4.60946000 </i>
   <i name="e_wo_entrp">     -4.60946000 </i>
   <i name="e_0_energy">     -0.00000000 </i>
  </energy>
  <time name="totalsc">   21.72   21.87</time>
  <eigenvalues>
   <array>
    <dimension dim="1">band</dimension>
    <dimension dim="2">kpoint</dimension>
    <dimension dim="3">spin</dimension>
    <field>eigene</field>
    <field>occ</field>
    <set>
     <set comment="spin 1">
      <set comment="kpoint 1">
       <r>  -38.7969    1.0000 </r>
       <r>  -38.7969    1.0000 </r>
       <r>  -38.7969    1.0000 </r>
       <r>   -4.3437    1.0000 </r>
       <r>   -4.2891    1.0000 </r>
       <r>   -4.2891    1.0000 </r>
       <r>   -4.2885    1.0000 </r>
       <r>   -4.2885    1.0000 </r>
       <r>   -4.2885    1.0000 </r>
       <r>   -0.9538    0.0000 </r>
       <r>   -0.9522    0.0000 </r>
       <r>   -0.9489    0.0000 </r>
       <r>   -0.2228    0.0000 </r>
       <r>    0.7884    0.0000 </r>
       <r>    0.7885    0.0000 </r>
       <r>    1.5746    0.0000 </r>
       <r>    1.6193    0.0000 </r>
       <r>    1.6489    0.0000 </r>
       <r>    1.7117    0.0000 </r>
       <r>    1.9327    0.0000 </r>
       <r>    1.9557    0.0000 </r>
       <r>    1.9606    0.0000 </r>
       <r>    2.3200    0.0000 </r>
       <r>    2.3208    0.0000 </r>
       <r>    2.3255    0.0000 </r>
       <r>    2.4559    0.0000 </r>
       <r>    2.4601    0.0000 </r>
       <r>    3.5388    0.0000 </r>
       <r>    3.5887    0.0000 </r>
       <r>    3.7243    0.0000 </r>
       <r>    3.7485    0.0000 </r>
       <r>    3.7568    0.0000 </r>
       <r>    3.7834    0.0000 </r>
       <r>    3.8619    0.0000 </r>
       <r>    4.4036    0.0000 </r>
       <r>    4.7032    0.0000 </r>
      </set>
     </set>
     <set comment="spin 2">
      <set comment="kpoint 1">
       <r>  -35.8063    1.0000 </r>
       <r>  -35.8063    1.0000 </r>
       <r>  -35.8063    1.0000 </r>
       <r>   -1.4082    0.0000 </r>
       <r>   -0.9086    0.0000 </r>
       <r>   -0.9079    0.0000 </r>
       <r>   -0.9073    0.0000 </r>
       <r>   -0.9067    0.0000 </r>
       <r>   -0.9062    0.0000 </r>
       <r>    0.6471    0.0000 </r>
       <r>    1.3846    0.0000 </r>
       <r>    1.3849    0.0000 </r>
       <r>    1.3855    0.0000 </r>
       <r>    1.8354    0.0000 </r>
       <r>    1.8354    0.0000 </r>
       <r>    2.5824    0.0000 </r>
       <r>    2.6045    0.0000 </r>
       <r>    2.6073    0.0000 </r>
       <r>    2.6133    0.0000 </r>
       <r>    3.3022    0.0000 </r>
       <r>    3.3024    0.0000 </r>
       <r>    3.3081    0.0000 </r>
       <r>    3.3302    0.0000 </r>
       <r>    3.3305    0.0000 </r>
       <r>    3.3324    0.0000 </r>
       <r>    3.3343    0.0000 </r>
       <r>    3.3346    0.0000 </r>
       <r>    4.4676    0.0000 </r>
       <r>    4.4930    0.0000 </r>
       <r>    4.5252    0.0000 </r>
       <r>    4.7427    0.0000 </r>
       <r>    4.7457    0.0000 </r>
       <r>    4.7609    0.0000 </r>
       <r>    4.8066    0.0000 </r>
       <r>    4.8322    0.0000 </r>
       <r>    6.1857    0.0000 </r>
      </set>
     </set>
    </set>
   </array>
  </eigenvalues>
  <separator name="orbital magnetization" >
   <v name="MAGDIPOLOUT">      0.00000000      0.00000000      0.00000000</v>
  </separator>
  <dos>
   <i name="efermi">     -3.91477288 </i>
   <total>
    <array>
     <dimension dim="1">gridpoints</dimension>
     <dimension dim="2">spin</dimension>
     <field>energy</field>
     <field>total</field>
     <field>integrated</field>
     <set>
      <set comment="spin 1">
       <r>   -41.0460     0.0000     0.0000 </r>
       <r>   -40.8811     0.0000     0.0000 </r>
       <r>   -40.7162     0.0000     0.0000 </r>
       <r>   -40.5512     0.0000     0.0000 </r>
       <r>   -40.3863     0.0000     0.0000 </r>
       <r>   -40.2214     0.0000     0.0000 </r>
       <r>   -40.0564     0.0000     0.0000 </r>
       <r>   -39.8915     0.0000     0.0000 </r>
       <r>   -39.7265     0.0000     0.0000 </r>
       <r>   -39.5616     0.0000     0.0000 </r>
       <r>   -39.3967     0.0000     0.0000 </r>
       <r>   -39.2317     0.0000     0.0000 </r>
       <r>   -39.0668     0.0000     0.0000 </r>
       <r>   -38.9019     0.0272     0.0045 </r>
       <r>   -38.7369    17.3449     2.8653 </r>
       <r>   -38.5720     0.8168     3.0000 </r>
       <r>   -38.4071     0.0000     3.0000 </r>
       <r>   -38.2421     0.0000     3.0000 </r>
       <r>   -38.0772     0.0000     3.0000 </r>
       <r>   -37.9122     0.0000     3.0000 </r>
       <r>   -37.7473     0.0000     3.0000 </r>
       <r>   -37.5824     0.0000     3.0000 </r>
       <r>   -37.4174     0.0000     3.0000 </r>
       <r>   -37.2525     0.0000     3.0000 </r>
       <r>   -37.0876     0.0000     3.0000 </r>
       <r>   -36.9226     0.0000     3.0000 </r>
       <r>   -36.7577     0.0000     3.0000 </r>
       <r>   -36.5928     0.0000     3.0000 </r>
       <r>   -36.4278     0.0000     3.0000 </r>
       <r>   -36.2629     0.0000     3.0000 </r>
       <r>   -36.0979     0.0000     3.0000 </r>
       <r>   -35.9330     0.0000     3.0000 </r>
       <r>   -35.7681     0.0000     3.0000 </r>
       <r>   -35.6031     0.0000     3.0000 </r>
       <r>   -35.4382     0.0000     3.0000 </r>
       <r>   -35.2733     0.0000     3.0000 </r>
       <r>   -35.1083     0.0000     3.0000 </r>
       <r>   -34.9434     0.0000     3.0000 </r>
       <r>   -34.7785     0.0000     3.0000 </r>
       <r>   -34.6135     0.0000     3.0000 </r>
       <r>   -34.4486     0.0000     3.0000 </r>
       <r>   -34.2836     0.0000     3.0000 </r>
       <r>   -34.1187     0.0000     3.0000 </r>
       <r>   -33.9538     0.0000     3.0000 </r>
       <r>   -33.7888     0.0000     3.0000 </r>
       <r>   -33.6239     0.0000     3.0000 </r>
       <r>   -33.4590     0.0000     3.0000 </r>
       <r>   -33.2940     0.0000     3.0000 </r>
       <r>   -33.1291     0.0000     3.0000 </r>
       <r>   -32.9642     0.0000     3.0000 </r>
       <r>   -32.7992     0.0000     3.0000 </r>
       <r>   -32.6343     0.0000     3.0000 </r>
       <r>   -32.4693     0.0000     3.0000 </r>
       <r>   -32.3044     0.0000     3.0000 </r>
       <r>   -32.1395     0.0000     3.0000 </r>
       <r>   -31.9745     0.0000     3.0000 </r>
       <r>   -31.8096     0.0000     3.0000 </r>
       <r>   -31.6447     0.0000     3.0000 </r>
       <r>   -31.4797     0.0000     3.0000 </r>
       <r>   -31.3148     0.0000     3.0000 </r>
       <r>   -31.1499     0.0000     3.0000 </r>
       <r>   -30.9849     0.0000     3.0000 </r>
       <r>   -30.8200     0.0000     3.0000 </r>
       <r>   -30.6551     0.0000     3.0000 </r>
       <r>   -30.4901     0.0000     3.0000 </r>
       <r>   -30.3252     0.0000     3.0000 </r>
       <r>   -30.1602     0.0000     3.0000 </r>
       <r>   -29.9953     0.0000     3.0000 </r>
       <r>   -29.8304     0.0000     3.0000 </r>
       <r>   -29.6654     0.0000     3.0000 </r>
       <r>   -29.5005     0.0000     3.0000 </r>
       <r>   -29.3356     0.0000     3.0000 </r>
       <r>   -29.1706     0.0000     3.0000 </r>
       <r>   -29.0057     0.0000     3.0000 </r>
       <r>   -28.8408     0.0000     3.0000 </r>
       <r>   -28.6758     0.0000     3.0000 </r>
       <r>   -28.5109     0.0000     3.0000 </r>
       <r>   -28.3459     0.0000     3.0000 </r>
       <r>   -28.1810     0.0000     3.0000 </r>
       <r>   -28.0161     0.0000     3.0000 </r>
       <r>   -27.8511     0.0000     3.0000 </r>
       <r>   -27.6862     0.0000     3.0000 </r>
       <r>   -27.5213     0.0000     3.0000 </r>
       <r>   -27.3563     0.0000     3.0000 </r>
       <r>   -27.1914     0.0000     3.0000 </r>
       <r>   -27.0265     0.0000     3.0000 </r>
       <r>   -26.8615     0.0000     3.0000 </r>
       <r>   -26.6966     0.0000     3.0000 </r>
       <r>   -26.5316     0.0000     3.0000 </r>
       <r>   -26.3667     0.0000     3.0000 </r>
       <r>   -26.2018     0.0000     3.0000 </r>
       <r>   -26.0368     0.0000     3.0000 </r>
       <r>   -25.8719     0.0000     3.0000 </r>
       <r>   -25.7070     0.0000     3.0000 </r>
       <r>   -25.5420     0.0000     3.0000 </r>
       <r>   -25.3771     0.0000     3.0000 </r>
       <r>   -25.2122     0.0000     3.0000 </r>
       <r>   -25.0472     0.0000     3.0000 </r>
       <r>   -24.8823     0.0000     3.0000 </r>
       <r>   -24.7173     0.0000     3.0000 </r>
       <r>   -24.5524     0.0000     3.0000 </r>
       <r>   -24.3875     0.0000     3.0000 </r>
       <r>   -24.2225     0.0000     3.0000 </r>
       <r>   -24.0576     0.0000     3.0000 </r>
       <r>   -23.8927     0.0000     3.0000 </r>
       <r>   -23.7277     0.0000     3.0000 </r>
       <r>   -23.5628     0.0000     3.0000 </r>
       <r>   -23.3979     0.0000     3.0000 </r>
       <r>   -23.2329     0.0000     3.0000 </r>
       <r>   -23.0680     0.0000     3.0000 </r>
       <r>   -22.9031     0.0000     3.0000 </r>
       <r>   -22.7381     0.0000     3.0000 </r>
       <r>   -22.5732     0.0000     3.0000 </r>
       <r>   -22.4082     0.0000     3.0000 </r>
       <r>   -22.2433     0.0000     3.0000 </r>
       <r>   -22.0784     0.0000     3.0000 </r>
       <r>   -21.9134     0.0000     3.0000 </r>
       <r>   -21.7485     0.0000     3.0000 </r>
       <r>   -21.5836     0.0000     3.0000 </r>
       <r>   -21.4186     0.0000     3.0000 </r>
       <r>   -21.2537     0.0000     3.0000 </r>
       <r>   -21.0888     0.0000     3.0000 </r>
       <r>   -20.9238     0.0000     3.0000 </r>
       <r>   -20.7589     0.0000     3.0000 </r>
       <r>   -20.5939     0.0000     3.0000 </r>
       <r>   -20.4290     0.0000     3.0000 </r>
       <r>   -20.2641     0.0000     3.0000 </r>
       <r>   -20.0991     0.0000     3.0000 </r>
       <r>   -19.9342     0.0000     3.0000 </r>
       <r>   -19.7693     0.0000     3.0000 </r>
       <r>   -19.6043     0.0000     3.0000 </r>
       <r>   -19.4394     0.0000     3.0000 </r>
       <r>   -19.2745     0.0000     3.0000 </r>
       <r>   -19.1095     0.0000     3.0000 </r>
       <r>   -18.9446     0.0000     3.0000 </r>
       <r>   -18.7796     0.0000     3.0000 </r>
       <r>   -18.6147     0.0000     3.0000 </r>
       <r>   -18.4498     0.0000     3.0000 </r>
       <r>   -18.2848     0.0000     3.0000 </r>
       <r>   -18.1199     0.0000     3.0000 </r>
       <r>   -17.9550     0.0000     3.0000 </r>
       <r>   -17.7900     0.0000     3.0000 </r>
       <r>   -17.6251     0.0000     3.0000 </r>
       <r>   -17.4602     0.0000     3.0000 </r>
       <r>   -17.2952     0.0000     3.0000 </r>
       <r>   -17.1303     0.0000     3.0000 </r>
       <r>   -16.9653     0.0000     3.0000 </r>
       <r>   -16.8004     0.0000     3.0000 </r>
       <r>   -16.6355     0.0000     3.0000 </r>
       <r>   -16.4705     0.0000     3.0000 </r>
       <r>   -16.3056     0.0000     3.0000 </r>
       <r>   -16.1407     0.0000     3.0000 </r>
       <r>   -15.9757     0.0000     3.0000 </r>
       <r>   -15.8108     0.0000     3.0000 </r>
       <r>   -15.6459     0.0000     3.0000 </r>
       <r>   -15.4809     0.0000     3.0000 </r>
       <r>   -15.3160     0.0000     3.0000 </r>
       <r>   -15.1511     0.0000     3.0000 </r>
       <r>   -14.9861     0.0000     3.0000 </r>
       <r>   -14.8212     0.0000     3.0000 </r>
       <r>   -14.6562     0.0000     3.0000 </r>
       <r>   -14.4913     0.0000     3.0000 </r>
       <r>   -14.3264     0.0000     3.0000 </r>
       <r>   -14.1614     0.0000     3.0000 </r>
       <r>   -13.9965     0.0000     3.0000 </r>
       <r>   -13.8316     0.0000     3.0000 </r>
       <r>   -13.6666     0.0000     3.0000 </r>
       <r>   -13.5017     0.0000     3.0000 </r>
       <r>   -13.3368     0.0000     3.0000 </r>
       <r>   -13.1718     0.0000     3.0000 </r>
       <r>   -13.0069     0.0000     3.0000 </r>
       <r>   -12.8419     0.0000     3.0000 </r>
       <r>   -12.6770     0.0000     3.0000 </r>
       <r>   -12.5121     0.0000     3.0000 </r>
       <r>   -12.3471     0.0000     3.0000 </r>
       <r>   -12.1822     0.0000     3.0000 </r>
       <r>   -12.0173     0.0000     3.0000 </r>
       <r>   -11.8523     0.0000     3.0000 </r>
       <r>   -11.6874     0.0000     3.0000 </r>
       <r>   -11.5225     0.0000     3.0000 </r>
       <r>   -11.3575     0.0000     3.0000 </r>
       <r>   -11.1926     0.0000     3.0000 </r>
       <r>   -11.0276     0.0000     3.0000 </r>
       <r>   -10.8627     0.0000     3.0000 </r>
       <r>   -10.6978     0.0000     3.0000 </r>
       <r>   -10.5328     0.0000     3.0000 </r>
       <r>   -10.3679     0.0000     3.0000 </r>
       <r>   -10.2030     0.0000     3.0000 </r>
       <r>   -10.0380     0.0000     3.0000 </r>
       <r>    -9.8731     0.0000     3.0000 </r>
       <r>    -9.7082     0.0000     3.0000 </r>
       <r>    -9.5432     0.0000     3.0000 </r>
       <r>    -9.3783     0.0000     3.0000 </r>
       <r>    -9.2133     0.0000     3.0000 </r>
       <r>    -9.0484     0.0000     3.0000 </r>
       <r>    -8.8835     0.0000     3.0000 </r>
       <r>    -8.7185     0.0000     3.0000 </r>
       <r>    -8.5536     0.0000     3.0000 </r>
       <r>    -8.3887     0.0000     3.0000 </r>
       <r>    -8.2237     0.0000     3.0000 </r>
       <r>    -8.0588     0.0000     3.0000 </r>
       <r>    -7.8939     0.0000     3.0000 </r>
       <r>    -7.7289     0.0000     3.0000 </r>
       <r>    -7.5640     0.0000     3.0000 </r>
       <r>    -7.3990     0.0000     3.0000 </r>
       <r>    -7.2341     0.0000     3.0000 </r>
       <r>    -7.0692     0.0000     3.0000 </r>
       <r>    -6.9042     0.0000     3.0000 </r>
       <r>    -6.7393     0.0000     3.0000 </r>
       <r>    -6.5744     0.0000     3.0000 </r>
       <r>    -6.4094     0.0000     3.0000 </r>
       <r>    -6.2445     0.0000     3.0000 </r>
       <r>    -6.0796     0.0000     3.0000 </r>
       <r>    -5.9146     0.0000     3.0000 </r>
       <r>    -5.7497     0.0000     3.0000 </r>
       <r>    -5.5848     0.0000     3.0000 </r>
       <r>    -5.4198     0.0000     3.0000 </r>
       <r>    -5.2549     0.0000     3.0000 </r>
       <r>    -5.0899     0.0000     3.0000 </r>
       <r>    -4.9250     0.0000     3.0000 </r>
       <r>    -4.7601     0.0000     3.0000 </r>
       <r>    -4.5951     0.0000     3.0000 </r>
       <r>    -4.4302     0.0446     3.0074 </r>
       <r>    -4.2653    28.5718     7.7199 </r>
       <r>    -4.1003     7.7612     9.0000 </r>
       <r>    -3.9354     0.0000     9.0000 </r>
       <r>    -3.7705     0.0000     9.0000 </r>
       <r>    -3.6055     0.0000     9.0000 </r>
       <r>    -3.4406     0.0000     9.0000 </r>
       <r>    -3.2756     0.0000     9.0000 </r>
       <r>    -3.1107     0.0000     9.0000 </r>
       <r>    -2.9458     0.0000     9.0000 </r>
       <r>    -2.7808     0.0000     9.0000 </r>
       <r>    -2.6159     0.0000     9.0000 </r>
       <r>    -2.4510     0.0000     9.0000 </r>
       <r>    -2.2860     0.0000     9.0000 </r>
       <r>    -2.1211     0.0000     9.0000 </r>
       <r>    -1.9562     0.0000     9.0000 </r>
       <r>    -1.7912     0.0000     9.0000 </r>
       <r>    -1.6263     0.0000     9.0000 </r>
       <r>    -1.4613     0.0000     9.0000 </r>
       <r>    -1.2964     0.0000     9.0000 </r>
       <r>    -1.1315     0.0000     9.0000 </r>
       <r>    -0.9665     6.1282    10.0108 </r>
       <r>    -0.8016    12.0604    12.0000 </r>
       <r>    -0.6367     0.0002    12.0000 </r>
       <r>    -0.4717     0.0000    12.0000 </r>
       <r>    -0.3068     0.0529    12.0087 </r>
       <r>    -0.1419     5.9429    12.9889 </r>
       <r>     0.0231     0.0671    13.0000 </r>
       <r>     0.1880     0.0000    13.0000 </r>
       <r>     0.3530     0.0000    13.0000 </r>
       <r>     0.5179     0.0000    13.0000 </r>
       <r>     0.6828     0.0170    13.0028 </r>
       <r>     0.8478    11.5420    14.9065 </r>
       <r>     1.0127     0.5669    15.0000 </r>
       <r>     1.1776     0.0000    15.0000 </r>
       <r>     1.3426     0.0000    15.0000 </r>
       <r>     1.5075     0.1801    15.0297 </r>
       <r>     1.6724    16.8643    17.8112 </r>
       <r>     1.8374     7.2315    19.0040 </r>
       <r>     2.0023    16.7272    21.7629 </r>
       <r>     2.1672     1.4377    22.0000 </r>
       <r>     2.3322    11.1266    23.8352 </r>
       <r>     2.4971    17.5541    26.7305 </r>
       <r>     2.6621     1.6340    27.0000 </r>
       <r>     2.8270     0.0000    27.0000 </r>
       <r>     2.9919     0.0000    27.0000 </r>
       <r>     3.1569     0.0000    27.0000 </r>
       <r>     3.3218     0.0000    27.0000 </r>
       <r>     3.4867     0.4398    27.0725 </r>
       <r>     3.6517    11.6040    28.9865 </r>
       <r>     3.8166    23.4222    32.8496 </r>
       <r>     3.9815     6.9725    33.9996 </r>
       <r>     4.1465     0.0022    34.0000 </r>
       <r>     4.3114     0.0276    34.0045 </r>
       <r>     4.4764     5.9150    34.9801 </r>
       <r>     4.6413     0.3634    35.0401 </r>
       <r>     4.8062     5.8091    35.9982 </r>
       <r>     4.9712     0.0108    36.0000 </r>
       <r>     5.1361     0.0000    36.0000 </r>
       <r>     5.3010     0.0000    36.0000 </r>
       <r>     5.4660     0.0000    36.0000 </r>
       <r>     5.6309     0.0000    36.0000 </r>
       <r>     5.7958     0.0000    36.0000 </r>
       <r>     5.9608     0.0000    36.0000 </r>
       <r>     6.1257     0.0000    36.0000 </r>
       <r>     6.2907     0.0000    36.0000 </r>
       <r>     6.4556     0.0000    36.0000 </r>
       <r>     6.6205     0.0000    36.0000 </r>
       <r>     6.7855     0.0000    36.0000 </r>
       <r>     6.9504     0.0000    36.0000 </r>
       <r>     7.1153     0.0000    36.0000 </r>
       <r>     7.2803     0.0000    36.0000 </r>
       <r>     7.4452     0.0000    36.0000 </r>
       <r>     7.6101     0.0000    36.0000 </r>
       <r>     7.7751     0.0000    36.0000 </r>
       <r>     7.9400     0.0000    36.0000 </r>
       <r>     8.1050     0.0000    36.0000 </r>
       <r>     8.2699     0.0000    36.0000 </r>
       <r>     8.4348     0.0000    36.0000 </r>
      </set>
      <set comment="spin 2">
       <r>   -41.0460     0.0000     0.0000 </r>
       <r>   -40.8811     0.0000     0.0000 </r>
       <r>   -40.7162     0.0000     0.0000 </r>
       <r>   -40.5512     0.0000     0.0000 </r>
       <r>   -40.3863     0.0000     0.0000 </r>
       <r>   -40.2214     0.0000     0.0000 </r>
       <r>   -40.0564     0.0000     0.0000 </r>
       <r>   -39.8915     0.0000     0.0000 </r>
       <r>   -39.7265     0.0000     0.0000 </r>
       <r>   -39.5616     0.0000     0.0000 </r>
       <r>   -39.3967     0.0000     0.0000 </r>
       <r>   -39.2317     0.0000     0.0000 </r>
       <r>   -39.0668     0.0000     0.0000 </r>
       <r>   -38.9019     0.0000     0.0000 </r>
       <r>   -38.7369     0.0000     0.0000 </r>
       <r>   -38.5720     0.0000     0.0000 </r>
       <r>   -38.4071     0.0000     0.0000 </r>
       <r>   -38.2421     0.0000     0.0000 </r>
       <r>   -38.0772     0.0000     0.0000 </r>
       <r>   -37.9122     0.0000     0.0000 </r>
       <r>   -37.7473     0.0000     0.0000 </r>
       <r>   -37.5824     0.0000     0.0000 </r>
       <r>   -37.4174     0.0000     0.0000 </r>
       <r>   -37.2525     0.0000     0.0000 </r>
       <r>   -37.0876     0.0000     0.0000 </r>
       <r>   -36.9226     0.0000     0.0000 </r>
       <r>   -36.7577     0.0000     0.0000 </r>
       <r>   -36.5928     0.0000     0.0000 </r>
       <r>   -36.4278     0.0000     0.0000 </r>
       <r>   -36.2629     0.0000     0.0000 </r>
       <r>   -36.0979     0.0000     0.0000 </r>
       <r>   -35.9330     0.0031     0.0005 </r>
       <r>   -35.7681    15.6482     2.5815 </r>
       <r>   -35.6031     2.5375     3.0000 </r>
       <r>   -35.4382     0.0000     3.0000 </r>
       <r>   -35.2733     0.0000     3.0000 </r>
       <r>   -35.1083     0.0000     3.0000 </r>
       <r>   -34.9434     0.0000     3.0000 </r>
       <r>   -34.7785     0.0000     3.0000 </r>
       <r>   -34.6135     0.0000     3.0000 </r>
       <r>   -34.4486     0.0000     3.0000 </r>
       <r>   -34.2836     0.0000     3.0000 </r>
       <r>   -34.1187     0.0000     3.0000 </r>
       <r>   -33.9538     0.0000     3.0000 </r>
       <r>   -33.7888     0.0000     3.0000 </r>
       <r>   -33.6239     0.0000     3.0000 </r>
       <r>   -33.4590     0.0000     3.0000 </r>
       <r>   -33.2940     0.0000     3.0000 </r>
       <r>   -33.1291     0.0000     3.0000 </r>
       <r>   -32.9642     0.0000     3.0000 </r>
       <r>   -32.7992     0.0000     3.0000 </r>
       <r>   -32.6343     0.0000     3.0000 </r>
       <r>   -32.4693     0.0000     3.0000 </r>
       <r>   -32.3044     0.0000     3.0000 </r>
       <r>   -32.1395     0.0000     3.0000 </r>
       <r>   -31.9745     0.0000     3.0000 </r>
       <r>   -31.8096     0.0000     3.0000 </r>
       <r>   -31.6447     0.0000     3.0000 </r>
       <r>   -31.4797     0.0000     3.0000 </r>
       <r>   -31.3148     0.0000     3.0000 </r>
       <r>   -31.1499     0.0000     3.0000 </r>
       <r>   -30.9849     0.0000     3.0000 </r>
       <r>   -30.8200     0.0000     3.0000 </r>
       <r>   -30.6551     0.0000     3.0000 </r>
       <r>   -30.4901     0.0000     3.0000 </r>
       <r>   -30.3252     0.0000     3.0000 </r>
       <r>   -30.1602     0.0000     3.0000 </r>
       <r>   -29.9953     0.0000     3.0000 </r>
       <r>   -29.8304     0.0000     3.0000 </r>
       <r>   -29.6654     0.0000     3.0000 </r>
       <r>   -29.5005     0.0000     3.0000 </r>
       <r>   -29.3356     0.0000     3.0000 </r>
       <r>   -29.1706     0.0000     3.0000 </r>
       <r>   -29.0057     0.0000     3.0000 </r>
       <r>   -28.8408     0.0000     3.0000 </r>
       <r>   -28.6758     0.0000     3.0000 </r>
       <r>   -28.5109     0.0000     3.0000 </r>
       <r>   -28.3459     0.0000     3.0000 </r>
       <r>   -28.1810     0.0000     3.0000 </r>
       <r>   -28.0161     0.0000     3.0000 </r>
       <r>   -27.8511     0.0000     3.0000 </r>
       <r>   -27.6862     0.0000     3.0000 </r>
       <r>   -27.5213     0.0000     3.0000 </r>
       <r>   -27.3563     0.0000     3.0000 </r>
       <r>   -27.1914     0.0000     3.0000 </r>
       <r>   -27.0265     0.0000     3.0000 </r>
       <r>   -26.8615     0.0000     3.0000 </r>
       <r>   -26.6966     0.0000     3.0000 </r>
       <r>   -26.5316     0.0000     3.0000 </r>
       <r>   -26.3667     0.0000     3.0000 </r>
       <r>   -26.2018     0.0000     3.0000 </r>
       <r>   -26.0368     0.0000     3.0000 </r>
       <r>   -25.8719     0.0000     3.0000 </r>
       <r>   -25.7070     0.0000     3.0000 </r>
       <r>   -25.5420     0.0000     3.0000 </r>
       <r>   -25.3771     0.0000     3.0000 </r>
       <r>   -25.2122     0.0000     3.0000 </r>
       <r>   -25.0472     0.0000     3.0000 </r>
       <r>   -24.8823     0.0000     3.0000 </r>
       <r>   -24.7173     0.0000     3.0000 </r>
       <r>   -24.5524     0.0000     3.0000 </r>
       <r>   -24.3875     0.0000     3.0000 </r>
       <r>   -24.2225     0.0000     3.0000 </r>
       <r>   -24.0576     0.0000     3.0000 </r>
       <r>   -23.8927     0.0000     3.0000 </r>
       <r>   -23.7277     0.0000     3.0000 </r>
       <r>   -23.5628     0.0000     3.0000 </r>
       <r>   -23.3979     0.0000     3.0000 </r>
       <r>   -23.2329     0.0000     3.0000 </r>
       <r>   -23.0680     0.0000     3.0000 </r>
       <r>   -22.9031     0.0000     3.0000 </r>
       <r>   -22.7381     0.0000     3.0000 </r>
       <r>   -22.5732     0.0000     3.0000 </r>
       <r>   -22.4082     0.0000     3.0000 </r>
       <r>   -22.2433     0.0000     3.0000 </r>
       <r>   -22.0784     0.0000     3.0000 </r>
       <r>   -21.9134     0.0000     3.0000 </r>
       <r>   -21.7485     0.0000     3.0000 </r>
       <r>   -21.5836     0.0000     3.0000 </r>
       <r>   -21.4186     0.0000     3.0000 </r>
       <r>   -21.2537     0.0000     3.0000 </r>
       <r>   -21.0888     0.0000     3.0000 </r>
       <r>   -20.9238     0.0000     3.0000 </r>
       <r>   -20.7589     0.0000     3.0000 </r>
       <r>   -20.5939     0.0000     3.0000 </r>
       <r>   -20.4290     0.0000     3.0000 </r>
       <r>   -20.2641     0.0000     3.0000 </r>
       <r>   -20.0991     0.0000     3.0000 </r>
       <r>   -19.9342     0.0000     3.0000 </r>
       <r>   -19.7693     0.0000     3.0000 </r>
       <r>   -19.6043     0.0000     3.0000 </r>
       <r>   -19.4394     0.0000     3.0000 </r>
       <r>   -19.2745     0.0000     3.0000 </r>
       <r>   -19.1095     0.0000     3.0000 </r>
       <r>   -18.9446     0.0000     3.0000 </r>
       <r>   -18.7796     0.0000     3.0000 </r>
       <r>   -18.6147     0.0000     3.0000 </r>
       <r>   -18.4498     0.0000     3.0000 </r>
       <r>   -18.2848     0.0000     3.0000 </r>
       <r>   -18.1199     0.0000     3.0000 </r>
       <r>   -17.9550     0.0000     3.0000 </r>
       <r>   -17.7900     0.0000     3.0000 </r>
       <r>   -17.6251     0.0000     3.0000 </r>
       <r>   -17.4602     0.0000     3.0000 </r>
       <r>   -17.2952     0.0000     3.0000 </r>
       <r>   -17.1303     0.0000     3.0000 </r>
       <r>   -16.9653     0.0000     3.0000 </r>
       <r>   -16.8004     0.0000     3.0000 </r>
       <r>   -16.6355     0.0000     3.0000 </r>
       <r>   -16.4705     0.0000     3.0000 </r>
       <r>   -16.3056     0.0000     3.0000 </r>
       <r>   -16.1407     0.0000     3.0000 </r>
       <r>   -15.9757     0.0000     3.0000 </r>
       <r>   -15.8108     0.0000     3.0000 </r>
       <r>   -15.6459     0.0000     3.0000 </r>
       <r>   -15.4809     0.0000     3.0000 </r>
       <r>   -15.3160     0.0000     3.0000 </r>
       <r>   -15.1511     0.0000     3.0000 </r>
       <r>   -14.9861     0.0000     3.0000 </r>
       <r>   -14.8212     0.0000     3.0000 </r>
       <r>   -14.6562     0.0000     3.0000 </r>
       <r>   -14.4913     0.0000     3.0000 </r>
       <r>   -14.3264     0.0000     3.0000 </r>
       <r>   -14.1614     0.0000     3.0000 </r>
       <r>   -13.9965     0.0000     3.0000 </r>
       <r>   -13.8316     0.0000     3.0000 </r>
       <r>   -13.6666     0.0000     3.0000 </r>
       <r>   -13.5017     0.0000     3.0000 </r>
       <r>   -13.3368     0.0000     3.0000 </r>
       <r>   -13.1718     0.0000     3.0000 </r>
       <r>   -13.0069     0.0000     3.0000 </r>
       <r>   -12.8419     0.0000     3.0000 </r>
       <r>   -12.6770     0.0000     3.0000 </r>
       <r>   -12.5121     0.0000     3.0000 </r>
       <r>   -12.3471     0.0000     3.0000 </r>
       <r>   -12.1822     0.0000     3.0000 </r>
       <r>   -12.0173     0.0000     3.0000 </r>
       <r>   -11.8523     0.0000     3.0000 </r>
       <r>   -11.6874     0.0000     3.0000 </r>
       <r>   -11.5225     0.0000     3.0000 </r>
       <r>   -11.3575     0.0000     3.0000 </r>
       <r>   -11.1926     0.0000     3.0000 </r>
       <r>   -11.0276     0.0000     3.0000 </r>
       <r>   -10.8627     0.0000     3.0000 </r>
       <r>   -10.6978     0.0000     3.0000 </r>
       <r>   -10.5328     0.0000     3.0000 </r>
       <r>   -10.3679     0.0000     3.0000 </r>
       <r>   -10.2030     0.0000     3.0000 </r>
       <r>   -10.0380     0.0000     3.0000 </r>
       <r>    -9.8731     0.0000     3.0000 </r>
       <r>    -9.7082     0.0000     3.0000 </r>
       <r>    -9.5432     0.0000     3.0000 </r>
       <r>    -9.3783     0.0000     3.0000 </r>
       <r>    -9.2133     0.0000     3.0000 </r>
       <r>    -9.0484     0.0000     3.0000 </r>
       <r>    -8.8835     0.0000     3.0000 </r>
       <r>    -8.7185     0.0000     3.0000 </r>
       <r>    -8.5536     0.0000     3.0000 </r>
       <r>    -8.3887     0.0000     3.0000 </r>
       <r>    -8.2237     0.0000     3.0000 </r>
       <r>    -8.0588     0.0000     3.0000 </r>
       <r>    -7.8939     0.0000     3.0000 </r>
       <r>    -7.7289     0.0000     3.0000 </r>
       <r>    -7.5640     0.0000     3.0000 </r>
       <r>    -7.3990     0.0000     3.0000 </r>
       <r>    -7.2341     0.0000     3.0000 </r>
       <r>    -7.0692     0.0000     3.0000 </r>
       <r>    -6.9042     0.0000     3.0000 </r>
       <r>    -6.7393     0.0000     3.0000 </r>
       <r>    -6.5744     0.0000     3.0000 </r>
       <r>    -6.4094     0.0000     3.0000 </r>
       <r>    -6.2445     0.0000     3.0000 </r>
       <r>    -6.0796     0.0000     3.0000 </r>
       <r>    -5.9146     0.0000     3.0000 </r>
       <r>    -5.7497     0.0000     3.0000 </r>
       <r>    -5.5848     0.0000     3.0000 </r>
       <r>    -5.4198     0.0000     3.0000 </r>
       <r>    -5.2549     0.0000     3.0000 </r>
       <r>    -5.0899     0.0000     3.0000 </r>
       <r>    -4.9250     0.0000     3.0000 </r>
       <r>    -4.7601     0.0000     3.0000 </r>
       <r>    -4.5951     0.0000     3.0000 </r>
       <r>    -4.4302     0.0000     3.0000 </r>
       <r>    -4.2653     0.0000     3.0000 </r>
       <r>    -4.1003     0.0000     3.0000 </r>
       <r>    -3.9354     0.0000     3.0000 </r>
       <r>    -3.7705     0.0000     3.0000 </r>
       <r>    -3.6055     0.0000     3.0000 </r>
       <r>    -3.4406     0.0000     3.0000 </r>
       <r>    -3.2756     0.0000     3.0000 </r>
       <r>    -3.1107     0.0000     3.0000 </r>
       <r>    -2.9458     0.0000     3.0000 </r>
       <r>    -2.7808     0.0000     3.0000 </r>
       <r>    -2.6159     0.0000     3.0000 </r>
       <r>    -2.4510     0.0000     3.0000 </r>
       <r>    -2.2860     0.0000     3.0000 </r>
       <r>    -2.1211     0.0000     3.0000 </r>
       <r>    -1.9562     0.0000     3.0000 </r>
       <r>    -1.7912     0.0000     3.0000 </r>
       <r>    -1.6263     0.0000     3.0000 </r>
       <r>    -1.4613     0.4017     3.0663 </r>
       <r>    -1.2964     5.6564     3.9992 </r>
       <r>    -1.1315     0.0048     4.0000 </r>
       <r>    -0.9665     1.4280     4.2355 </r>
       <r>    -0.8016    28.8445     8.9930 </r>
       <r>    -0.6367     0.0423     9.0000 </r>
       <r>    -0.4717     0.0000     9.0000 </r>
       <r>    -0.3068     0.0000     9.0000 </r>
       <r>    -0.1419     0.0000     9.0000 </r>
       <r>     0.0231     0.0000     9.0000 </r>
       <r>     0.1880     0.0000     9.0000 </r>
       <r>     0.3530     0.0000     9.0000 </r>
       <r>     0.5179     0.0008     9.0001 </r>
       <r>     0.6828     5.1135     9.8435 </r>
       <r>     0.8478     0.9487    10.0000 </r>
       <r>     1.0127     0.0000    10.0000 </r>
       <r>     1.1776     0.0000    10.0000 </r>
       <r>     1.3426     2.0937    10.3453 </r>
       <r>     1.5075    16.0903    12.9992 </r>
       <r>     1.6724     0.0048    13.0000 </r>
       <r>     1.8374     6.3293    14.0439 </r>
       <r>     2.0023     5.7965    15.0000 </r>
       <r>     2.1672     0.0000    15.0000 </r>
       <r>     2.3322     0.0000    15.0000 </r>
       <r>     2.4971     0.0639    15.0105 </r>
       <r>     2.6621    22.9231    18.7914 </r>
       <r>     2.8270     1.2648    19.0000 </r>
       <r>     2.9919     0.0000    19.0000 </r>
       <r>     3.1569     0.0003    19.0001 </r>
       <r>     3.3218    24.1408    22.9817 </r>
       <r>     3.4867    24.3623    27.0000 </r>
       <r>     3.6517     0.0002    27.0000 </r>
       <r>     3.8166     0.0000    27.0000 </r>
       <r>     3.9815     0.0000    27.0000 </r>
       <r>     4.1465     0.0000    27.0000 </r>
       <r>     4.3114     0.0000    27.0000 </r>
       <r>     4.4764     6.0630    28.0000 </r>
       <r>     4.6413    12.1469    30.0035 </r>
       <r>     4.8062    21.4893    33.5478 </r>
       <r>     4.9712     8.8041    35.0000 </r>
       <r>     5.1361     0.0003    35.0000 </r>
       <r>     5.3010     0.0000    35.0000 </r>
       <r>     5.4660     0.0000    35.0000 </r>
       <r>     5.6309     0.0000    35.0000 </r>
       <r>     5.7958     0.0000    35.0000 </r>
       <r>     5.9608     0.0000    35.0000 </r>
       <r>     6.1257     0.2723    35.0449 </r>
       <r>     6.2907     5.7816    35.9985 </r>
       <r>     6.4556     0.0091    36.0000 </r>
       <r>     6.6205     0.0000    36.0000 </r>
       <r>     6.7855     0.0000    36.0000 </r>
       <r>     6.9504     0.0000    36.0000 </r>
       <r>     7.1153     0.0000    36.0000 </r>
       <r>     7.2803     0.0000    36.0000 </r>
       <r>     7.4452     0.0000    36.0000 </r>
       <r>     7.6101     0.0000    36.0000 </r>
       <r>     7.7751     0.0000    36.0000 </r>
       <r>     7.9400     0.0000    36.0000 </r>
       <r>     8.1050     0.0000    36.0000 </r>
       <r>     8.2699     0.0000    36.0000 </r>
       <r>     8.4348     0.0000    36.0000 </r>
      </set>
     </set>
    </array>
   </total>
   <partial>
    <array>
     <dimension dim="1">gridpoints</dimension>
     <dimension dim="2">spin</dimension>
     <dimension dim="3">ion</dimension>
     <field>energy</field>
     <field>    s</field>
     <field>   py</field>
     <field>   pz</field>
     <field>   px</field>
     <field>  dxy</field>
     <field>  dyz</field>
     <field>  dz2</field>
     <field>  dxz</field>
     <field>x2-y2</field>
     <set>
      <set comment="ion 1">
       <set comment="spin 1">
        <r>   -41.0460     0.0000     0.0000     0.0000     0.0000     0.0000     0.0000     0.0000     0.0000     0.0000 </r>
        <r>   -40.8811     0.0000     0.0000     0.0000     0.0000     0.0000     0.0000     0.0000     0.0000     0.0000 </r>
        <r>   -40.7162     0.0000     0.0000     0.0000     0.0000     0.0000     0.0000     0.0000     0.0000     0.0000 </r>
        <r>   -40.5512     0.0000     0.0000     0.0000     0.0000     0.0000     0.0000     0.0000     0.0000     0.0000 </r>
        <r>   -40.3863     0.0000     0.0000     0.0000     0.0000     0.0000     0.0000     0.0000     0.0000     0.0000 </r>
        <r>   -40.2214     0.0000     0.0000     0.0000     0.0000     0.0000     0.0000     0.0000     0.0000     0.0000 </r>
        <r>   -40.0564     0.0000     0.0000     0.0000     0.0000     0.0000     0.0000     0.0000     0.0000     0.0000 </r>
        <r>   -39.8915     0.0000     0.0000     0.0000     0.0000     0.0000     0.0000     0.0000     0.0000     0.0000 </r>
        <r>   -39.7265     0.0000     0.0000     0.0000     0.0000     0.0000     0.0000     0.0000     0.0000     0.0000 </r>
        <r>   -39.5616     0.0000     0.0000     0.0000     0.0000     0.0000     0.0000     0.0000     0.0000     0.0000 </r>
        <r>   -39.3967     0.0000     0.0000     0.0000     0.0000     0.0000     0.0000     0.0000     0.0000     0.0000 </r>
        <r>   -39.2317     0.0000     0.0000     0.0000     0.0000     0.0000     0.0000     0.0000     0.0000     0.0000 </r>
        <r>   -39.0668     0.0000     0.0000     0.0000     0.0000     0.0000     0.0000     0.0000     0.0000     0.0000 </r>
        <r>   -38.9019     0.0000     0.0090     0.0090     0.0090     0.0000     0.0000     0.0000     0.0000     0.0000 </r>
        <r>   -38.7369     0.0000     5.7591     5.7591     5.7591     0.0000     0.0000     0.0000     0.0000     0.0000 </r>
        <r>   -38.5720     0.0000     0.2712     0.2712     0.2712     0.0000     0.0000     0.0000     0.0000     0.0000 </r>
        <r>   -38.4071     0.0000     0.0000     0.0000     0.0000     0.0000     0.0000     0.0000     0.0000     0.0000 </r>
        <r>   -38.2421     0.0000     0.0000     0.0000     0.0000     0.0000     0.0000     0.0000     0.0000     0.0000 </r>
        <r>   -38.0772     0.0000     0.0000     0.0000     0.0000     0.0000     0.0000     0.0000     0.0000     0.0000 </r>
        <r>   -37.9122     0.0000     0.0000     0.0000     0.0000     0.0000     0.0000     0.0000     0.0000     0.0000 </r>
        <r>   -37.7473     0.0000     0.0000     0.0000     0.0000     0.0000     0.0000     0.0000     0.0000     0.0000 </r>
        <r>   -37.5824     0.0000     0.0000     0.0000     0.0000     0.0000     0.0000     0.0000     0.0000     0.0000 </r>
        <r>   -37.4174     0.0000     0.0000     0.0000     0.0000     0.0000     0.0000     0.0000     0.0000     0.0000 </r>
        <r>   -37.2525     0.0000     0.0000     0.0000     0.0000     0.0000     0.0000     0.0000     0.0000     0.0000 </r>
        <r>   -37.0876     0.0000     0.0000     0.0000     0.0000     0.0000     0.0000     0.0000     0.0000     0.0000 </r>
        <r>   -36.9226     0.0000     0.0000     0.0000     0.0000     0.0000     0.0000     0.0000     0.0000     0.0000 </r>
        <r>   -36.7577     0.0000     0.0000     0.0000     0.0000     0.0000     0.0000     0.0000     0.0000     0.0000 </r>
        <r>   -36.5928     0.0000     0.0000     0.0000     0.0000     0.0000     0.0000     0.0000     0.0000     0.0000 </r>
        <r>   -36.4278     0.0000     0.0000     0.0000     0.0000     0.0000     0.0000     0.0000     0.0000     0.0000 </r>
        <r>   -36.2629     0.0000     0.0000     0.0000     0.0000     0.0000     0.0000     0.0000     0.0000     0.0000 </r>
        <r>   -36.0979     0.0000     0.0000     0.0000     0.0000     0.0000     0.0000     0.0000     0.0000     0.0000 </r>
        <r>   -35.9330     0.0000     0.0000     0.0000     0.0000     0.0000     0.0000     0.0000     0.0000     0.0000 </r>
        <r>   -35.7681     0.0000     0.0000     0.0000     0.0000     0.0000     0.0000     0.0000     0.0000     0.0000 </r>
        <r>   -35.6031     0.0000     0.0000     0.0000     0.0000     0.0000     0.0000     0.0000     0.0000     0.0000 </r>
        <r>   -35.4382     0.0000     0.0000     0.0000     0.0000     0.0000     0.0000     0.0000     0.0000     0.0000 </r>
        <r>   -35.2733     0.0000     0.0000     0.0000     0.0000     0.0000     0.0000     0.0000     0.0000     0.0000 </r>
        <r>   -35.1083     0.0000     0.0000     0.0000     0.0000     0.0000     0.0000     0.0000     0.0000     0.0000 </r>
        <r>   -34.9434     0.0000     0.0000     0.0000     0.0000     0.0000     0.0000     0.0000     0.0000     0.0000 </r>
        <r>   -34.7785     0.0000     0.0000     0.0000     0.0000     0.0000     0.0000     0.0000     0.0000     0.0000 </r>
        <r>   -34.6135     0.0000     0.0000     0.0000     0.0000     0.0000     0.0000     0.0000     0.0000     0.0000 </r>
        <r>   -34.4486     0.0000     0.0000     0.0000     0.0000     0.0000     0.0000     0.0000     0.0000     0.0000 </r>
        <r>   -34.2836     0.0000     0.0000     0.0000     0.0000     0.0000     0.0000     0.0000     0.0000     0.0000 </r>
        <r>   -34.1187     0.0000     0.0000     0.0000     0.0000     0.0000     0.0000     0.0000     0.0000     0.0000 </r>
        <r>   -33.9538     0.0000     0.0000     0.0000     0.0000     0.0000     0.0000     0.0000     0.0000     0.0000 </r>
        <r>   -33.7888     0.0000     0.0000     0.0000     0.0000     0.0000     0.0000     0.0000     0.0000     0.0000 </r>
        <r>   -33.6239     0.0000     0.0000     0.0000     0.0000     0.0000     0.0000     0.0000     0.0000     0.0000 </r>
        <r>   -33.4590     0.0000     0.0000     0.0000     0.0000     0.0000     0.0000     0.0000     0.0000     0.0000 </r>
        <r>   -33.2940     0.0000     0.0000     0.0000     0.0000     0.0000     0.0000     0.0000     0.0000     0.0000 </r>
        <r>   -33.1291     0.0000     0.0000     0.0000     0.0000     0.0000     0.0000     0.0000     0.0000     0.0000 </r>
        <r>   -32.9642     0.0000     0.0000     0.0000     0.0000     0.0000     0.0000     0.0000     0.0000     0.0000 </r>
        <r>   -32.7992     0.0000     0.0000     0.0000     0.0000     0.0000     0.0000     0.0000     0.0000     0.0000 </r>
        <r>   -32.6343     0.0000     0.0000     0.0000     0.0000     0.0000     0.0000     0.0000     0.0000     0.0000 </r>
        <r>   -32.4693     0.0000     0.0000     0.0000     0.0000     0.0000     0.0000     0.0000     0.0000     0.0000 </r>
        <r>   -32.3044     0.0000     0.0000     0.0000     0.0000     0.0000     0.0000     0.0000     0.0000     0.0000 </r>
        <r>   -32.1395     0.0000     0.0000     0.0000     0.0000     0.0000     0.0000     0.0000     0.0000     0.0000 </r>
        <r>   -31.9745     0.0000     0.0000     0.0000     0.0000     0.0000     0.0000     0.0000     0.0000     0.0000 </r>
        <r>   -31.8096     0.0000     0.0000     0.0000     0.0000     0.0000     0.0000     0.0000     0.0000     0.0000 </r>
        <r>   -31.6447     0.0000     0.0000     0.0000     0.0000     0.0000     0.0000     0.0000     0.0000     0.0000 </r>
        <r>   -31.4797     0.0000     0.0000     0.0000     0.0000     0.0000     0.0000     0.0000     0.0000     0.0000 </r>
        <r>   -31.3148     0.0000     0.0000     0.0000     0.0000     0.0000     0.0000     0.0000     0.0000     0.0000 </r>
        <r>   -31.1499     0.0000     0.0000     0.0000     0.0000     0.0000     0.0000     0.0000     0.0000     0.0000 </r>
        <r>   -30.9849     0.0000     0.0000     0.0000     0.0000     0.0000     0.0000     0.0000     0.0000     0.0000 </r>
        <r>   -30.8200     0.0000     0.0000     0.0000     0.0000     0.0000     0.0000     0.0000     0.0000     0.0000 </r>
        <r>   -30.6551     0.0000     0.0000     0.0000     0.0000     0.0000     0.0000     0.0000     0.0000     0.0000 </r>
        <r>   -30.4901     0.0000     0.0000     0.0000     0.0000     0.0000     0.0000     0.0000     0.0000     0.0000 </r>
        <r>   -30.3252     0.0000     0.0000     0.0000     0.0000     0.0000     0.0000     0.0000     0.0000     0.0000 </r>
        <r>   -30.1602     0.0000     0.0000     0.0000     0.0000     0.0000     0.0000     0.0000     0.0000     0.0000 </r>
        <r>   -29.9953     0.0000     0.0000     0.0000     0.0000     0.0000     0.0000     0.0000     0.0000     0.0000 </r>
        <r>   -29.8304     0.0000     0.0000     0.0000     0.0000     0.0000     0.0000     0.0000     0.0000     0.0000 </r>
        <r>   -29.6654     0.0000     0.0000     0.0000     0.0000     0.0000     0.0000     0.0000     0.0000     0.0000 </r>
        <r>   -29.5005     0.0000     0.0000     0.0000     0.0000     0.0000     0.0000     0.0000     0.0000     0.0000 </r>
        <r>   -29.3356     0.0000     0.0000     0.0000     0.0000     0.0000     0.0000     0.0000     0.0000     0.0000 </r>
        <r>   -29.1706     0.0000     0.0000     0.0000     0.0000     0.0000     0.0000     0.0000     0.0000     0.0000 </r>
        <r>   -29.0057     0.0000     0.0000     0.0000     0.0000     0.0000     0.0000     0.0000     0.0000     0.0000 </r>
        <r>   -28.8408     0.0000     0.0000     0.0000     0.0000     0.0000     0.0000     0.0000     0.0000     0.0000 </r>
        <r>   -28.6758     0.0000     0.0000     0.0000     0.0000     0.0000     0.0000     0.0000     0.0000     0.0000 </r>
        <r>   -28.5109     0.0000     0.0000     0.0000     0.0000     0.0000     0.0000     0.0000     0.0000     0.0000 </r>
        <r>   -28.3459     0.0000     0.0000     0.0000     0.0000     0.0000     0.0000     0.0000     0.0000     0.0000 </r>
        <r>   -28.1810     0.0000     0.0000     0.0000     0.0000     0.0000     0.0000     0.0000     0.0000     0.0000 </r>
        <r>   -28.0161     0.0000     0.0000     0.0000     0.0000     0.0000     0.0000     0.0000     0.0000     0.0000 </r>
        <r>   -27.8511     0.0000     0.0000     0.0000     0.0000     0.0000     0.0000     0.0000     0.0000     0.0000 </r>
        <r>   -27.6862     0.0000     0.0000     0.0000     0.0000     0.0000     0.0000     0.0000     0.0000     0.0000 </r>
        <r>   -27.5213     0.0000     0.0000     0.0000     0.0000     0.0000     0.0000     0.0000     0.0000     0.0000 </r>
        <r>   -27.3563     0.0000     0.0000     0.0000     0.0000     0.0000     0.0000     0.0000     0.0000     0.0000 </r>
        <r>   -27.1914     0.0000     0.0000     0.0000     0.0000     0.0000     0.0000     0.0000     0.0000     0.0000 </r>
        <r>   -27.0265     0.0000     0.0000     0.0000     0.0000     0.0000     0.0000     0.0000     0.0000     0.0000 </r>
        <r>   -26.8615     0.0000     0.0000     0.0000     0.0000     0.0000     0.0000     0.0000     0.0000     0.0000 </r>
        <r>   -26.6966     0.0000     0.0000     0.0000     0.0000     0.0000     0.0000     0.0000     0.0000     0.0000 </r>
        <r>   -26.5316     0.0000     0.0000     0.0000     0.0000     0.0000     0.0000     0.0000     0.0000     0.0000 </r>
        <r>   -26.3667     0.0000     0.0000     0.0000     0.0000     0.0000     0.0000     0.0000     0.0000     0.0000 </r>
        <r>   -26.2018     0.0000     0.0000     0.0000     0.0000     0.0000     0.0000     0.0000     0.0000     0.0000 </r>
        <r>   -26.0368     0.0000     0.0000     0.0000     0.0000     0.0000     0.0000     0.0000     0.0000     0.0000 </r>
        <r>   -25.8719     0.0000     0.0000     0.0000     0.0000     0.0000     0.0000     0.0000     0.0000     0.0000 </r>
        <r>   -25.7070     0.0000     0.0000     0.0000     0.0000     0.0000     0.0000     0.0000     0.0000     0.0000 </r>
        <r>   -25.5420     0.0000     0.0000     0.0000     0.0000     0.0000     0.0000     0.0000     0.0000     0.0000 </r>
        <r>   -25.3771     0.0000     0.0000     0.0000     0.0000     0.0000     0.0000     0.0000     0.0000     0.0000 </r>
        <r>   -25.2122     0.0000     0.0000     0.0000     0.0000     0.0000     0.0000     0.0000     0.0000     0.0000 </r>
        <r>   -25.0472     0.0000     0.0000     0.0000     0.0000     0.0000     0.0000     0.0000     0.0000     0.0000 </r>
        <r>   -24.8823     0.0000     0.0000     0.0000     0.0000     0.0000     0.0000     0.0000     0.0000     0.0000 </r>
        <r>   -24.7173     0.0000     0.0000     0.0000     0.0000     0.0000     0.0000     0.0000     0.0000     0.0000 </r>
        <r>   -24.5524     0.0000     0.0000     0.0000     0.0000     0.0000     0.0000     0.0000     0.0000     0.0000 </r>
        <r>   -24.3875     0.0000     0.0000     0.0000     0.0000     0.0000     0.0000     0.0000     0.0000     0.0000 </r>
        <r>   -24.2225     0.0000     0.0000     0.0000     0.0000     0.0000     0.0000     0.0000     0.0000     0.0000 </r>
        <r>   -24.0576     0.0000     0.0000     0.0000     0.0000     0.0000     0.0000     0.0000     0.0000     0.0000 </r>
        <r>   -23.8927     0.0000     0.0000     0.0000     0.0000     0.0000     0.0000     0.0000     0.0000     0.0000 </r>
        <r>   -23.7277     0.0000     0.0000     0.0000     0.0000     0.0000     0.0000     0.0000     0.0000     0.0000 </r>
        <r>   -23.5628     0.0000     0.0000     0.0000     0.0000     0.0000     0.0000     0.0000     0.0000     0.0000 </r>
        <r>   -23.3979     0.0000     0.0000     0.0000     0.0000     0.0000     0.0000     0.0000     0.0000     0.0000 </r>
        <r>   -23.2329     0.0000     0.0000     0.0000     0.0000     0.0000     0.0000     0.0000     0.0000     0.0000 </r>
        <r>   -23.0680     0.0000     0.0000     0.0000     0.0000     0.0000     0.0000     0.0000     0.0000     0.0000 </r>
        <r>   -22.9031     0.0000     0.0000     0.0000     0.0000     0.0000     0.0000     0.0000     0.0000     0.0000 </r>
        <r>   -22.7381     0.0000     0.0000     0.0000     0.0000     0.0000     0.0000     0.0000     0.0000     0.0000 </r>
        <r>   -22.5732     0.0000     0.0000     0.0000     0.0000     0.0000     0.0000     0.0000     0.0000     0.0000 </r>
        <r>   -22.4082     0.0000     0.0000     0.0000     0.0000     0.0000     0.0000     0.0000     0.0000     0.0000 </r>
        <r>   -22.2433     0.0000     0.0000     0.0000     0.0000     0.0000     0.0000     0.0000     0.0000     0.0000 </r>
        <r>   -22.0784     0.0000     0.0000     0.0000     0.0000     0.0000     0.0000     0.0000     0.0000     0.0000 </r>
        <r>   -21.9134     0.0000     0.0000     0.0000     0.0000     0.0000     0.0000     0.0000     0.0000     0.0000 </r>
        <r>   -21.7485     0.0000     0.0000     0.0000     0.0000     0.0000     0.0000     0.0000     0.0000     0.0000 </r>
        <r>   -21.5836     0.0000     0.0000     0.0000     0.0000     0.0000     0.0000     0.0000     0.0000     0.0000 </r>
        <r>   -21.4186     0.0000     0.0000     0.0000     0.0000     0.0000     0.0000     0.0000     0.0000     0.0000 </r>
        <r>   -21.2537     0.0000     0.0000     0.0000     0.0000     0.0000     0.0000     0.0000     0.0000     0.0000 </r>
        <r>   -21.0888     0.0000     0.0000     0.0000     0.0000     0.0000     0.0000     0.0000     0.0000     0.0000 </r>
        <r>   -20.9238     0.0000     0.0000     0.0000     0.0000     0.0000     0.0000     0.0000     0.0000     0.0000 </r>
        <r>   -20.7589     0.0000     0.0000     0.0000     0.0000     0.0000     0.0000     0.0000     0.0000     0.0000 </r>
        <r>   -20.5939     0.0000     0.0000     0.0000     0.0000     0.0000     0.0000     0.0000     0.0000     0.0000 </r>
        <r>   -20.4290     0.0000     0.0000     0.0000     0.0000     0.0000     0.0000     0.0000     0.0000     0.0000 </r>
        <r>   -20.2641     0.0000     0.0000     0.0000     0.0000     0.0000     0.0000     0.0000     0.0000     0.0000 </r>
        <r>   -20.0991     0.0000     0.0000     0.0000     0.0000     0.0000     0.0000     0.0000     0.0000     0.0000 </r>
        <r>   -19.9342     0.0000     0.0000     0.0000     0.0000     0.0000     0.0000     0.0000     0.0000     0.0000 </r>
        <r>   -19.7693     0.0000     0.0000     0.0000     0.0000     0.0000     0.0000     0.0000     0.0000     0.0000 </r>
        <r>   -19.6043     0.0000     0.0000     0.0000     0.0000     0.0000     0.0000     0.0000     0.0000     0.0000 </r>
        <r>   -19.4394     0.0000     0.0000     0.0000     0.0000     0.0000     0.0000     0.0000     0.0000     0.0000 </r>
        <r>   -19.2745     0.0000     0.0000     0.0000     0.0000     0.0000     0.0000     0.0000     0.0000     0.0000 </r>
        <r>   -19.1095     0.0000     0.0000     0.0000     0.0000     0.0000     0.0000     0.0000     0.0000     0.0000 </r>
        <r>   -18.9446     0.0000     0.0000     0.0000     0.0000     0.0000     0.0000     0.0000     0.0000     0.0000 </r>
        <r>   -18.7796     0.0000     0.0000     0.0000     0.0000     0.0000     0.0000     0.0000     0.0000     0.0000 </r>
        <r>   -18.6147     0.0000     0.0000     0.0000     0.0000     0.0000     0.0000     0.0000     0.0000     0.0000 </r>
        <r>   -18.4498     0.0000     0.0000     0.0000     0.0000     0.0000     0.0000     0.0000     0.0000     0.0000 </r>
        <r>   -18.2848     0.0000     0.0000     0.0000     0.0000     0.0000     0.0000     0.0000     0.0000     0.0000 </r>
        <r>   -18.1199     0.0000     0.0000     0.0000     0.0000     0.0000     0.0000     0.0000     0.0000     0.0000 </r>
        <r>   -17.9550     0.0000     0.0000     0.0000     0.0000     0.0000     0.0000     0.0000     0.0000     0.0000 </r>
        <r>   -17.7900     0.0000     0.0000     0.0000     0.0000     0.0000     0.0000     0.0000     0.0000     0.0000 </r>
        <r>   -17.6251     0.0000     0.0000     0.0000     0.0000     0.0000     0.0000     0.0000     0.0000     0.0000 </r>
        <r>   -17.4602     0.0000     0.0000     0.0000     0.0000     0.0000     0.0000     0.0000     0.0000     0.0000 </r>
        <r>   -17.2952     0.0000     0.0000     0.0000     0.0000     0.0000     0.0000     0.0000     0.0000     0.0000 </r>
        <r>   -17.1303     0.0000     0.0000     0.0000     0.0000     0.0000     0.0000     0.0000     0.0000     0.0000 </r>
        <r>   -16.9653     0.0000     0.0000     0.0000     0.0000     0.0000     0.0000     0.0000     0.0000     0.0000 </r>
        <r>   -16.8004     0.0000     0.0000     0.0000     0.0000     0.0000     0.0000     0.0000     0.0000     0.0000 </r>
        <r>   -16.6355     0.0000     0.0000     0.0000     0.0000     0.0000     0.0000     0.0000     0.0000     0.0000 </r>
        <r>   -16.4705     0.0000     0.0000     0.0000     0.0000     0.0000     0.0000     0.0000     0.0000     0.0000 </r>
        <r>   -16.3056     0.0000     0.0000     0.0000     0.0000     0.0000     0.0000     0.0000     0.0000     0.0000 </r>
        <r>   -16.1407     0.0000     0.0000     0.0000     0.0000     0.0000     0.0000     0.0000     0.0000     0.0000 </r>
        <r>   -15.9757     0.0000     0.0000     0.0000     0.0000     0.0000     0.0000     0.0000     0.0000     0.0000 </r>
        <r>   -15.8108     0.0000     0.0000     0.0000     0.0000     0.0000     0.0000     0.0000     0.0000     0.0000 </r>
        <r>   -15.6459     0.0000     0.0000     0.0000     0.0000     0.0000     0.0000     0.0000     0.0000     0.0000 </r>
        <r>   -15.4809     0.0000     0.0000     0.0000     0.0000     0.0000     0.0000     0.0000     0.0000     0.0000 </r>
        <r>   -15.3160     0.0000     0.0000     0.0000     0.0000     0.0000     0.0000     0.0000     0.0000     0.0000 </r>
        <r>   -15.1511     0.0000     0.0000     0.0000     0.0000     0.0000     0.0000     0.0000     0.0000     0.0000 </r>
        <r>   -14.9861     0.0000     0.0000     0.0000     0.0000     0.0000     0.0000     0.0000     0.0000     0.0000 </r>
        <r>   -14.8212     0.0000     0.0000     0.0000     0.0000     0.0000     0.0000     0.0000     0.0000     0.0000 </r>
        <r>   -14.6562     0.0000     0.0000     0.0000     0.0000     0.0000     0.0000     0.0000     0.0000     0.0000 </r>
        <r>   -14.4913     0.0000     0.0000     0.0000     0.0000     0.0000     0.0000     0.0000     0.0000     0.0000 </r>
        <r>   -14.3264     0.0000     0.0000     0.0000     0.0000     0.0000     0.0000     0.0000     0.0000     0.0000 </r>
        <r>   -14.1614     0.0000     0.0000     0.0000     0.0000     0.0000     0.0000     0.0000     0.0000     0.0000 </r>
        <r>   -13.9965     0.0000     0.0000     0.0000     0.0000     0.0000     0.0000     0.0000     0.0000     0.0000 </r>
        <r>   -13.8316     0.0000     0.0000     0.0000     0.0000     0.0000     0.0000     0.0000     0.0000     0.0000 </r>
        <r>   -13.6666     0.0000     0.0000     0.0000     0.0000     0.0000     0.0000     0.0000     0.0000     0.0000 </r>
        <r>   -13.5017     0.0000     0.0000     0.0000     0.0000     0.0000     0.0000     0.0000     0.0000     0.0000 </r>
        <r>   -13.3368     0.0000     0.0000     0.0000     0.0000     0.0000     0.0000     0.0000     0.0000     0.0000 </r>
        <r>   -13.1718     0.0000     0.0000     0.0000     0.0000     0.0000     0.0000     0.0000     0.0000     0.0000 </r>
        <r>   -13.0069     0.0000     0.0000     0.0000     0.0000     0.0000     0.0000     0.0000     0.0000     0.0000 </r>
        <r>   -12.8419     0.0000     0.0000     0.0000     0.0000     0.0000     0.0000     0.0000     0.0000     0.0000 </r>
        <r>   -12.6770     0.0000     0.0000     0.0000     0.0000     0.0000     0.0000     0.0000     0.0000     0.0000 </r>
        <r>   -12.5121     0.0000     0.0000     0.0000     0.0000     0.0000     0.0000     0.0000     0.0000     0.0000 </r>
        <r>   -12.3471     0.0000     0.0000     0.0000     0.0000     0.0000     0.0000     0.0000     0.0000     0.0000 </r>
        <r>   -12.1822     0.0000     0.0000     0.0000     0.0000     0.0000     0.0000     0.0000     0.0000     0.0000 </r>
        <r>   -12.0173     0.0000     0.0000     0.0000     0.0000     0.0000     0.0000     0.0000     0.0000     0.0000 </r>
        <r>   -11.8523     0.0000     0.0000     0.0000     0.0000     0.0000     0.0000     0.0000     0.0000     0.0000 </r>
        <r>   -11.6874     0.0000     0.0000     0.0000     0.0000     0.0000     0.0000     0.0000     0.0000     0.0000 </r>
        <r>   -11.5225     0.0000     0.0000     0.0000     0.0000     0.0000     0.0000     0.0000     0.0000     0.0000 </r>
        <r>   -11.3575     0.0000     0.0000     0.0000     0.0000     0.0000     0.0000     0.0000     0.0000     0.0000 </r>
        <r>   -11.1926     0.0000     0.0000     0.0000     0.0000     0.0000     0.0000     0.0000     0.0000     0.0000 </r>
        <r>   -11.0276     0.0000     0.0000     0.0000     0.0000     0.0000     0.0000     0.0000     0.0000     0.0000 </r>
        <r>   -10.8627     0.0000     0.0000     0.0000     0.0000     0.0000     0.0000     0.0000     0.0000     0.0000 </r>
[...]
        <r>     1.0127     0.0000     0.0000     0.0000     0.0000     0.0000     0.0000     0.0000     0.0000     0.0000 </r>
        <r>     1.1776     0.0000     0.0000     0.0000     0.0000     0.0000     0.0000     0.0000     0.0000     0.0000 </r>
        <r>     1.3426     0.0000     0.0421     0.0411     0.0417     0.0000     0.0000     0.0000     0.0000     0.0000 </r>
        <r>     1.5075     0.0000     0.3168     0.3252     0.3182     0.0000     0.0000     0.0000     0.0001     0.0000 </r>
        <r>     1.6724     0.0000     0.0001     0.0001     0.0001     0.0000     0.0000     0.0000     0.0000     0.0000 </r>
        <r>     1.8374     0.0000     0.0000     0.0000     0.0000     0.0000     0.0000     0.0421     0.0000     0.0424 </r>
        <r>     2.0023     0.0000     0.0000     0.0000     0.0000     0.0000     0.0000     0.0386     0.0000     0.0388 </r>
        <r>     2.1672     0.0000     0.0000     0.0000     0.0000     0.0000     0.0000     0.0000     0.0000     0.0000 </r>
        <r>     2.3322     0.0000     0.0000     0.0000     0.0000     0.0000     0.0000     0.0000     0.0000     0.0000 </r>
        <r>     2.4971     0.0016     0.0003     0.0003     0.0003     0.0000     0.0000     0.0000     0.0000     0.0000 </r>
        <r>     2.6621     0.1942     0.2980     0.2903     0.2882     0.0002     0.0001     0.0001     0.0002     0.0001 </r>
        <r>     2.8270     0.0025     0.0210     0.0191     0.0213     0.0000     0.0000     0.0000     0.0000     0.0000 </r>
        <r>     2.9919     0.0000     0.0000     0.0000     0.0000     0.0000     0.0000     0.0000     0.0000     0.0000 </r>
        <r>     3.1569     0.0000     0.0000     0.0000     0.0000     0.0000     0.0000     0.0000     0.0000     0.0000 </r>
        <r>     3.3218     0.0000     0.0007     0.0010     0.0014     0.0473     0.0457     0.0225     0.0471     0.0236 </r>
        <r>     3.4867     0.0000     0.0005     0.0006     0.0010     0.0736     0.0774     0.0332     0.0749     0.0333 </r>
        <r>     3.6517     0.0000     0.0000     0.0000     0.0000     0.0000     0.0000     0.0000     0.0000     0.0000 </r>
        <r>     3.8166     0.0000     0.0000     0.0000     0.0000     0.0000     0.0000     0.0000     0.0000     0.0000 </r>
        <r>     3.9815     0.0000     0.0000     0.0000     0.0000     0.0000     0.0000     0.0000     0.0000     0.0000 </r>
        <r>     4.1465     0.0000     0.0000     0.0000     0.0000     0.0000     0.0000     0.0000     0.0000     0.0000 </r>
        <r>     4.3114     0.0000     0.0000     0.0000     0.0000     0.0000     0.0000     0.0000     0.0000     0.0000 </r>
        <r>     4.4764     0.0129     0.0591     0.0498     0.0400     0.0064     0.0070     0.0000     0.0025     0.0000 </r>
        <r>     4.6413     0.1215     0.0498     0.0985     0.0283     0.0100     0.0094     0.0000     0.0021     0.0000 </r>
        <r>     4.8062     0.0073     0.0404     0.0411     0.0244     0.0723     0.0803     0.0004     0.0669     0.0006 </r>
        <r>     4.9712     0.0183     0.0109     0.0152     0.0366     0.0195     0.0104     0.0013     0.0366     0.0018 </r>
        <r>     5.1361     0.0000     0.0000     0.0000     0.0000     0.0000     0.0000     0.0000     0.0000     0.0000 </r>
        <r>     5.3010     0.0000     0.0000     0.0000     0.0000     0.0000     0.0000     0.0000     0.0000     0.0000 </r>
        <r>     5.4660     0.0000     0.0000     0.0000     0.0000     0.0000     0.0000     0.0000     0.0000     0.0000 </r>
        <r>     5.6309     0.0000     0.0000     0.0000     0.0000     0.0000     0.0000     0.0000     0.0000     0.0000 </r>
        <r>     5.7958     0.0000     0.0000     0.0000     0.0000     0.0000     0.0000     0.0000     0.0000     0.0000 </r>
        <r>     5.9608     0.0000     0.0000     0.0000     0.0000     0.0000     0.0000     0.0000     0.0000     0.0000 </r>
        <r>     6.1257     0.0033     0.0000     0.0000     0.0001     0.0000     0.0000     0.0003     0.0000     0.0028 </r>
        <r>     6.2907     0.0695     0.0006     0.0000     0.0024     0.0000     0.0001     0.0065     0.0000     0.0602 </r>
        <r>     6.4556     0.0001     0.0000     0.0000     0.0000     0.0000     0.0000     0.0000     0.0000     0.0001 </r>
        <r>     6.6205     0.0000     0.0000     0.0000     0.0000     0.0000     0.0000     0.0000     0.0000     0.0000 </r>
        <r>     6.7855     0.0000     0.0000     0.0000     0.0000     0.0000     0.0000     0.0000     0.0000     0.0000 </r>
        <r>     6.9504     0.0000     0.0000     0.0000     0.0000     0.0000     0.0000     0.0000     0.0000     0.0000 </r>
        <r>     7.1153     0.0000     0.0000     0.0000     0.0000     0.0000     0.0000     0.0000     0.0000     0.0000 </r>
        <r>     7.2803     0.0000     0.0000     0.0000     0.0000     0.0000     0.0000     0.0000     0.0000     0.0000 </r>
        <r>     7.4452     0.0000     0.0000     0.0000     0.0000     0.0000     0.0000     0.0000     0.0000     0.0000 </r>
        <r>     7.6101     0.0000     0.0000     0.0000     0.0000     0.0000     0.0000     0.0000     0.0000     0.0000 </r>
        <r>     7.7751     0.0000     0.0000     0.0000     0.0000     0.0000     0.0000     0.0000     0.0000     0.0000 </r>
        <r>     7.9400     0.0000     0.0000     0.0000     0.0000     0.0000     0.0000     0.0000     0.0000     0.0000 </r>
        <r>     8.1050     0.0000     0.0000     0.0000     0.0000     0.0000     0.0000     0.0000     0.0000     0.0000 </r>
        <r>     8.2699     0.0000     0.0000     0.0000     0.0000     0.0000     0.0000     0.0000     0.0000     0.0000 </r>
        <r>     8.4348     0.0000     0.0000     0.0000     0.0000     0.0000     0.0000     0.0000     0.0000     0.0000 </r>
       </set>
      </set>
     </set>
    </array>
   </partial>
  </dos>
  <projected>
   <eigenvalues>
    <array>
     <dimension dim="1">band</dimension>
     <dimension dim="2">kpoint</dimension>
     <dimension dim="3">spin</dimension>
     <field>eigene</field>
     <field>occ</field>
     <set>
      <set comment="spin 1">
       <set comment="kpoint 1">
        <r>  -38.7969    1.0000 </r>
        <r>  -38.7969    1.0000 </r>
        <r>  -38.7969    1.0000 </r>
        <r>   -4.3437    1.0000 </r>
        <r>   -4.2891    1.0000 </r>
        <r>   -4.2891    1.0000 </r>
        <r>   -4.2885    1.0000 </r>
        <r>   -4.2885    1.0000 </r>
        <r>   -4.2885    1.0000 </r>
        <r>   -0.9538    0.0000 </r>
        <r>   -0.9522    0.0000 </r>
        <r>   -0.9489    0.0000 </r>
        <r>   -0.2228    0.0000 </r>
        <r>    0.7884    0.0000 </r>
        <r>    0.7885    0.0000 </r>
        <r>    1.5746    0.0000 </r>
        <r>    1.6193    0.0000 </r>
        <r>    1.6489    0.0000 </r>
        <r>    1.7117    0.0000 </r>
        <r>    1.9327    0.0000 </r>
        <r>    1.9557    0.0000 </r>
        <r>    1.9606    0.0000 </r>
        <r>    2.3200    0.0000 </r>
        <r>    2.3208    0.0000 </r>
        <r>    2.3255    0.0000 </r>
        <r>    2.4559    0.0000 </r>
        <r>    2.4601    0.0000 </r>
        <r>    3.5388    0.0000 </r>
        <r>    3.5887    0.0000 </r>
        <r>    3.7243    0.0000 </r>
        <r>    3.7485    0.0000 </r>
        <r>    3.7568    0.0000 </r>
        <r>    3.7834    0.0000 </r>
        <r>    3.8619    0.0000 </r>
        <r>    4.4036    0.0000 </r>
        <r>    4.7032    0.0000 </r>
       </set>
      </set>
      <set comment="spin 2">
       <set comment="kpoint 1">
        <r>  -35.8063    1.0000 </r>
        <r>  -35.8063    1.0000 </r>
        <r>  -35.8063    1.0000 </r>
        <r>   -1.4082    0.0000 </r>
        <r>   -0.9086    0.0000 </r>
        <r>   -0.9079    0.0000 </r>
        <r>   -0.9073    0.0000 </r>
        <r>   -0.9067    0.0000 </r>
        <r>   -0.9062    0.0000 </r>
        <r>    0.6471    0.0000 </r>
        <r>    1.3846    0.0000 </r>
        <r>    1.3849    0.0000 </r>
        <r>    1.3855    0.0000 </r>
        <r>    1.8354    0.0000 </r>
        <r>    1.8354    0.0000 </r>
        <r>    2.5824    0.0000 </r>
        <r>    2.6045    0.0000 </r>
        <r>    2.6073    0.0000 </r>
        <r>    2.6133    0.0000 </r>
        <r>    3.3022    0.0000 </r>
        <r>    3.3024    0.0000 </r>
        <r>    3.3081    0.0000 </r>
        <r>    3.3302    0.0000 </r>
        <r>    3.3305    0.0000 </r>
        <r>    3.3324    0.0000 </r>
        <r>    3.3343    0.0000 </r>
        <r>    3.3346    0.0000 </r>
        <r>    4.4676    0.0000 </r>
        <r>    4.4930    0.0000 </r>
        <r>    4.5252    0.0000 </r>
        <r>    4.7427    0.0000 </r>
        <r>    4.7457    0.0000 </r>
        <r>    4.7609    0.0000 </r>
        <r>    4.8066    0.0000 </r>
        <r>    4.8322    0.0000 </r>
        <r>    6.1857    0.0000 </r>
       </set>
      </set>
     </set>
    </array>
   </eigenvalues>
   <array>
    <dimension dim="1">ion</dimension>
    <dimension dim="2">band</dimension>
    <dimension dim="3">kpoint</dimension>
    <dimension dim="4">spin</dimension>
    <field>    s</field>
    <field>   py</field>
    <field>   pz</field>
    <field>   px</field>
    <field>  dxy</field>
    <field>  dyz</field>
    <field>  dz2</field>
    <field>  dxz</field>
    <field>x2-y2</field>
    <set>
     <set comment="spin1">
      <set comment="kpoint 1">
       <set comment="band 1">
        <r>  0.0000  0.1141  0.8714  0.0106  0.0000  0.0000  0.0000  0.0000  0.0000 </r>
       </set>
       <set comment="band 2">
        <r>  0.0000  0.5346  0.0372  0.4243  0.0000  0.0000  0.0000  0.0000  0.0000 </r>
       </set>
       <set comment="band 3">
        <r>  0.0000  0.3474  0.0875  0.5612  0.0000  0.0000  0.0000  0.0000  0.0000 </r>
       </set>
       <set comment="band 4">
        <r>  0.3352  0.0000  0.0000  0.0000  0.0000  0.0000  0.0000  0.0000  0.0000 </r>
       </set>
       <set comment="band 5">
        <r>  0.0000  0.0000  0.0000  0.0000  0.0000  0.0000  0.4012  0.0000  0.4390 </r>
       </set>
       <set comment="band 6">
        <r>  0.0000  0.0000  0.0000  0.0000  0.0000  0.0000  0.4390  0.0000  0.4012 </r>
       </set>
       <set comment="band 7">
        <r>  0.0000  0.0000  0.0000  0.0000  0.3054  0.0447  0.0000  0.4907  0.0000 </r>
       </set>
       <set comment="band 8">
        <r>  0.0000  0.0000  0.0000  0.0000  0.0093  0.7210  0.0000  0.1105  0.0000 </r>
       </set>
       <set comment="band 9">
        <r>  0.0000  0.0000  0.0000  0.0000  0.5261  0.0751  0.0000  0.2396  0.0000 </r>
       </set>
       <set comment="band 10">
        <r>  0.0000  0.0757  0.0202  0.0244  0.0000  0.0000  0.0000  0.0000  0.0000 </r>
       </set>
       <set comment="band 11">
        <r>  0.0000  0.0000  0.0635  0.0549  0.0000  0.0000  0.0000  0.0000  0.0000 </r>
       </set>
       <set comment="band 12">
        <r>  0.0000  0.0429  0.0342  0.0384  0.0000  0.0000  0.0000  0.0000  0.0000 </r>
       </set>
       <set comment="band 13">
        <r>  0.0372  0.0000  0.0000  0.0000  0.0000  0.0000  0.0000  0.0000  0.0000 </r>
       </set>
       <set comment="band 14">
        <r>  0.0000  0.0000  0.0000  0.0000  0.0000  0.0000  0.0152  0.0000  0.0010 </r>
       </set>
       <set comment="band 15">
        <r>  0.0000  0.0000  0.0000  0.0000  0.0000  0.0000  0.0010  0.0000  0.0152 </r>
       </set>
       <set comment="band 16">
        <r>  0.0000  0.0148  0.0137  0.0091  0.0002  0.0001  0.0000  0.0001  0.0000 </r>
       </set>
       <set comment="band 17">
        <r>  0.0003  0.0059  0.0049  0.0261  0.0003  0.0025  0.0000  0.0003  0.0000 </r>
       </set>
       <set comment="band 18">
        <r>  0.0122  0.0107  0.0144  0.0000  0.0000  0.0005  0.0000  0.0001  0.0000 </r>
       </set>
       <set comment="band 19">
        <r>  0.0223  0.0077  0.0058  0.0004  0.0000  0.0006  0.0000  0.0002  0.0000 </r>
       </set>
       <set comment="band 20">
        <r>  0.0001  0.0001  0.0015  0.0025  0.0008  0.0271  0.0000  0.0002  0.0000 </r>
       </set>
       <set comment="band 21">
        <r>  0.0000  0.0005  0.0000  0.0001  0.0010  0.0003  0.0000  0.0307  0.0000 </r>
       </set>
       <set comment="band 22">
        <r>  0.0000  0.0000  0.0001  0.0002  0.0302  0.0009  0.0000  0.0011  0.0000 </r>
       </set>
       <set comment="band 23">
        <r>  0.0000  0.0001  0.0006  0.0013  0.0001  0.0002  0.0000  0.0000  0.0000 </r>
       </set>
       <set comment="band 24">
        <r>  0.0000  0.0000  0.0000  0.0003  0.0000  0.0000  0.0000  0.0000  0.0000 </r>
       </set>
       <set comment="band 25">
        <r>  0.0000  0.0000  0.0003  0.0007  0.0000  0.0000  0.0003  0.0000  0.0000 </r>
       </set>
       <set comment="band 26">
        <r>  0.0000  0.0000  0.0000  0.0000  0.0000  0.0000  0.0078  0.0000  0.0000 </r>
       </set>
       <set comment="band 27">
        <r>  0.0000  0.0000  0.0000  0.0000  0.0000  0.0000  0.0000  0.0000  0.0080 </r>
       </set>
       <set comment="band 28">
        <r>  0.0012  0.0089  0.0234  0.0014  0.0000  0.0004  0.0001  0.0000  0.0001 </r>
       </set>
       <set comment="band 29">
        <r>  0.0003  0.0008  0.0012  0.0228  0.0000  0.0000  0.0000  0.0017  0.0001 </r>
       </set>
       <set comment="band 30">
        <r>  0.0046  0.0011  0.0002  0.0088  0.0001  0.0000  0.0000  0.0080  0.0000 </r>
       </set>
       <set comment="band 31">
        <r>  0.0014  0.0007  0.0011  0.0003  0.0007  0.0113  0.0000  0.0001  0.0000 </r>
       </set>
       <set comment="band 32">
        <r>  0.0000  0.0000  0.0000  0.0000  0.0123  0.0008  0.0000  0.0001  0.0000 </r>
       </set>
       <set comment="band 33">
        <r>  0.0210  0.0000  0.0001  0.0011  0.0001  0.0007  0.0000  0.0032  0.0000 </r>
       </set>
       <set comment="band 34">
        <r>  0.0032  0.0049  0.0187  0.0035  0.0000  0.0001  0.0093  0.0000  0.0011 </r>
       </set>
       <set comment="band 35">
        <r>  0.0123  0.0057  0.0102  0.0117  0.0000  0.0000  0.0000  0.0000  0.0015 </r>
       </set>
       <set comment="band 36">
        <r>  0.0123  0.0008  0.0014  0.0027  0.0000  0.0000  0.0050  0.0000  0.0191 </r>
       </set>
      </set>
     </set>
     <set comment="spin2">
      <set comment="kpoint 1">
       <set comment="band 1">
        <r>  0.0000  0.7179  0.2158  0.0589  0.0000  0.0000  0.0000  0.0000  0.0000 </r>
       </set>
       <set comment="band 2">
        <r>  0.0000  0.0982  0.6703  0.2241  0.0000  0.0000  0.0000  0.0000  0.0000 </r>
       </set>
       <set comment="band 3">
        <r>  0.0000  0.1765  0.1064  0.7096  0.0000  0.0000  0.0000  0.0000  0.0000 </r>
       </set>
       <set comment="band 4">
        <r>  0.2902  0.0000  0.0000  0.0000  0.0000  0.0000  0.0000  0.0000  0.0000 </r>
       </set>
       <set comment="band 5">
        <r>  0.0000  0.0000  0.0000  0.0000  0.0896  0.0006  0.4466  0.1380  0.1416 </r>
       </set>
       <set comment="band 6">
        <r>  0.0000  0.0000  0.0000  0.0000  0.1762  0.1475  0.0081  0.0414  0.4439 </r>
       </set>
       <set comment="band 7">
        <r>  0.0000  0.0000  0.0000  0.0000  0.4830  0.0020  0.1808  0.0235  0.1283 </r>
       </set>
       <set comment="band 8">
        <r>  0.0000  0.0000  0.0000  0.0000  0.0560  0.1897  0.1282  0.3853  0.0587 </r>
       </set>
       <set comment="band 9">
        <r>  0.0000  0.0000  0.0000  0.0000  0.0140  0.4787  0.0519  0.2305  0.0432 </r>
       </set>
       <set comment="band 10">
        <r>  0.0353  0.0000  0.0000  0.0000  0.0000  0.0000  0.0000  0.0000  0.0000 </r>
       </set>
       <set comment="band 11">
        <r>  0.0000  0.0588  0.0003  0.0001  0.0000  0.0000  0.0000  0.0000  0.0000 </r>
       </set>
       <set comment="band 12">
        <r>  0.0000  0.0001  0.0004  0.0589  0.0000  0.0000  0.0000  0.0000  0.0000 </r>
       </set>
       <set comment="band 13">
        <r>  0.0000  0.0003  0.0597  0.0004  0.0000  0.0000  0.0000  0.0000  0.0000 </r>
       </set>
       <set comment="band 14">
        <r>  0.0000  0.0000  0.0000  0.0000  0.0000  0.0000  0.0089  0.0000  0.0043 </r>
       </set>
       <set comment="band 15">
        <r>  0.0000  0.0000  0.0000  0.0000  0.0000  0.0000  0.0044  0.0000  0.0091 </r>
       </set>
       <set comment="band 16">
        <r>  0.0323  0.0000  0.0003  0.0003  0.0000  0.0000  0.0000  0.0000  0.0000 </r>
       </set>
       <set comment="band 17">
        <r>  0.0004  0.0011  0.0339  0.0154  0.0000  0.0000  0.0000  0.0000  0.0000 </r>
       </set>
       <set comment="band 18">
        <r>  0.0000  0.0397  0.0012  0.0113  0.0000  0.0000  0.0000  0.0000  0.0000 </r>
       </set>
       <set comment="band 19">
        <r>  0.0000  0.0118  0.0156  0.0242  0.0000  0.0000  0.0000  0.0000  0.0000 </r>
       </set>
       <set comment="band 20">
        <r>  0.0000  0.0000  0.0000  0.0000  0.0000  0.0001  0.0000  0.0000  0.0004 </r>
       </set>
       <set comment="band 21">
        <r>  0.0000  0.0000  0.0001  0.0001  0.0004  0.0002  0.0001  0.0011  0.0000 </r>
       </set>
       <set comment="band 22">
        <r>  0.0000  0.0001  0.0001  0.0001  0.0003  0.0002  0.0000  0.0000  0.0000 </r>
       </set>
       <set comment="band 23">
        <r>  0.0000  0.0000  0.0000  0.0001  0.0030  0.0001  0.0000  0.0000  0.0074 </r>
       </set>
       <set comment="band 24">
        <r>  0.0000  0.0000  0.0000  0.0000  0.0003  0.0010  0.0078  0.0009  0.0000 </r>
       </set>
       <set comment="band 25">
        <r>  0.0000  0.0000  0.0000  0.0000  0.0107  0.0008  0.0007  0.0038  0.0010 </r>
       </set>
       <set comment="band 26">
        <r>  0.0000  0.0000  0.0000  0.0000  0.0042  0.0003  0.0002  0.0143  0.0002 </r>
       </set>
       <set comment="band 27">
        <r>  0.0000  0.0000  0.0000  0.0000  0.0010  0.0175  0.0004  0.0001  0.0002 </r>
       </set>
       <set comment="band 28">
        <r>  0.0005  0.0150  0.0016  0.0110  0.0007  0.0011  0.0000  0.0006  0.0000 </r>
       </set>
       <set comment="band 29">
        <r>  0.0001  0.0024  0.0228  0.0001  0.0020  0.0016  0.0000  0.0001  0.0000 </r>
       </set>
       <set comment="band 30">
        <r>  0.0216  0.0006  0.0001  0.0002  0.0000  0.0000  0.0000  0.0000  0.0000 </r>
       </set>
       <set comment="band 31">
        <r>  0.0001  0.0053  0.0013  0.0000  0.0090  0.0000  0.0000  0.0050  0.0000 </r>
       </set>
       <set comment="band 32">
        <r>  0.0002  0.0000  0.0009  0.0021  0.0002  0.0000  0.0000  0.0003  0.0000 </r>
       </set>
       <set comment="band 33">
        <r>  0.0000  0.0012  0.0040  0.0003  0.0004  0.0145  0.0000  0.0003  0.0000 </r>
       </set>
       <set comment="band 34">
        <r>  0.0000  0.0000  0.0013  0.0000  0.0055  0.0002  0.0000  0.0113  0.0000 </r>
       </set>
       <set comment="band 35">
        <r>  0.0039  0.0019  0.0018  0.0077  0.0001  0.0002  0.0003  0.0001  0.0004 </r>
       </set>
       <set comment="band 36">
        <r>  0.0120  0.0001  0.0000  0.0004  0.0000  0.0000  0.0011  0.0000  0.0104 </r>
       </set>
      </set>
     </set>
    </set>
   </array>
  </projected>
 </calculation>
 <structure name="finalpos" >
  <crystal>
   <varray name="basis" >
    <v>      10.00000000       0.00000000       0.00000000 </v>
    <v>       0.00000000      10.00000000       0.00000000 </v>
    <v>       0.00000000       0.00000000      10.00000000 </v>
   </varray>
   <i name="volume">   1000.00000000 </i>
   <varray name="rec_basis" >
    <v>       0.10000000       0.00000000       0.00000000 </v>
    <v>       0.00000000       0.10000000       0.00000000 </v>
    <v>       0.00000000       0.00000000       0.10000000 </v>
   </varray>
  </crystal>
  <varray name="positions" >
   <v>       0.50000000       0.50000000       0.50000000 </v>
  </varray>
 </structure>
</modeling>
