       N       E                     dE             d eps       ncg     rms          ort
DAV:   1     0.107836590680E+02    0.10784E+02   -0.90726E+02    36   0.640E+01
DAV:   2     0.393808791014E+01   -0.68456E+01   -0.68424E+01    36   0.111E+01
DAV:   3     0.322759969651E+01   -0.71049E+00   -0.70617E+00    36   0.380E+00
DAV:   4     0.144238747059E+01   -0.17852E+01   -0.17088E+01    36   0.194E+00
DAV:   5     0.491271425811E+00   -0.95112E+00   -0.95041E+00    36   0.235E+00
SDA:   6     0.534818523287E+00    0.43547E-01   -0.81436E+00    36   0.204E+01 0.000E+00
DMP:   7    -0.350212136801E-01   -0.56984E+00   -0.27483E+00    36   0.402E+00 0.746E+00
DMP:   8    -0.188736962000E+00   -0.15372E+00   -0.52483E-01    36   0.146E+00-0.395E-01
DMP:   9    -0.229535161235E+00   -0.40798E-01   -0.51269E-01    36   0.125E+00 0.944E-02
DMP:  10    -0.268534297661E+00   -0.38999E-01   -0.25535E-01    36   0.429E-01 0.549E-01
DMP:  11    -0.285664349091E+00   -0.17130E-01   -0.89108E-02    36   0.146E-01 0.200E-01
DMP:  12    -0.292206573520E+00   -0.65422E-02   -0.50564E-02    36   0.895E-02 0.965E-02
DMP:  13    -0.296163698267E+00   -0.39571E-02   -0.25534E-02    36   0.374E-02 0.692E-02
DMP:  14    -0.298042374144E+00   -0.18787E-02   -0.94266E-03    36   0.122E-02 0.298E-02
DMP:  15    -0.298733885351E+00   -0.69151E-03   -0.39606E-03    36   0.569E-03 0.110E-02
DMP:  16    -0.299043757435E+00   -0.30987E-03   -0.19367E-03    36   0.270E-03 0.561E-03
DMP:  17    -0.299193346629E+00   -0.14959E-03   -0.77874E-04    36   0.936E-04 0.265E-03
DMP:  18    -0.299251206385E+00   -0.57860E-04   -0.27116E-04    36   0.314E-04 0.952E-04
DMP:  19    -0.299271462596E+00   -0.20256E-04   -0.10486E-04    36   0.133E-04 0.339E-04
