       N       E                     dE             d eps       ncg     rms          ort
DAV:   1     0.115598224154E+02    0.11560E+02   -0.60865E+02    36   0.426E+01
DAV:   2     0.664999266340E+00   -0.10895E+02   -0.10895E+02    36   0.148E+01
DAV:   3     0.400658158971E+00   -0.26434E+00   -0.26434E+00    36   0.227E+00
DAV:   4     0.387027104073E+00   -0.13631E-01   -0.13631E-01    36   0.538E-01
DAV:   5     0.385913154283E+00   -0.11139E-02   -0.11139E-02    36   0.149E-01
SDA:   6     0.206545433548E-01   -0.36526E+00   -0.21449E-01    36   0.536E-01 0.000E+00
DMP:   7     0.826818277841E-02   -0.12386E-01   -0.50158E-02    36   0.929E-02 0.852E-02
DMP:   8     0.535553150627E-02   -0.29127E-02   -0.31502E-02    36   0.700E-02 0.230E-02
DMP:   9     0.317200331628E-02   -0.21835E-02   -0.15828E-02    36   0.275E-02 0.317E-02
DMP:  10     0.200376357286E-02   -0.11682E-02   -0.83946E-03    36   0.137E-02 0.192E-02
DMP:  11     0.135952198933E-02   -0.64424E-03   -0.40620E-03    36   0.583E-03 0.113E-02
DMP:  12     0.104149550340E-02   -0.31803E-03   -0.19507E-03    36   0.267E-03 0.577E-03
DMP:  13     0.886913536988E-03   -0.15458E-03   -0.89313E-04    36   0.114E-03 0.286E-03
DMP:  14     0.815803837142E-03   -0.71110E-04   -0.40464E-04    36   0.505E-04 0.133E-03
DMP:  15     0.783261571570E-03   -0.32542E-04   -0.18028E-04    36   0.215E-04 0.617E-04
   1 F= 0.78326157E-03 E0= 0.78326157E-03  d E =0.783262E-03  mag=     0.0000
