<?xml version="1.0" encoding="ISO-8859-1"?>
<modeling>
 <generator>
  <i name="program" type="string">vasp </i>
  <i name="version" type="string">5.4.4.18Apr17-6-g9f103f2a35  </i>
  <i name="subversion" type="string">(build Nov 08 2019 15:19:53) gamma-only         parallel </i>
  <i name="platform" type="string">LinuxIFC </i>
  <i name="date" type="string">2020 11 30 </i>
  <i name="time" type="string">09:30:52 </i>
 </generator>
 <incar>
  <i type="string" name="PREC">accurate</i>
  <i type="string" name="ALGO"> D</i>
  <i type="int" name="ISPIN">     2</i>
  <i type="int" name="NELM">   300</i>
  <i type="int" name="IBRION">     2</i>
  <i name="EDIFF">      0.00005000</i>
  <i type="int" name="NSW">    99</i>
  <i type="int" name="ISIF">     2</i>
  <i name="ENCUT">    520.00000000</i>
  <v name="MAGMOM">      0.60000000</v>
  <i type="string" name="LREAL"> Auto</i>
  <i type="int" name="ISMEAR">     0</i>
  <i name="SIGMA">      0.05000000</i>
  <i type="logical" name="LWAVE"> F  </i>
  <i type="int" name="LORBIT">    11</i>
  <i type="logical" name="LASPH"> T  </i>
  <v type="int" name="KPOINT_BSE">    -1     0     0     0</v>
  <i type="int" name="NELM">   300</i>
  <i type="logical" name="LASPH"> T  </i>
 </incar>
 <structure name="primitive_cell" >
  <crystal>
   <varray name="basis" >
    <v>      10.00000000       0.00000000       0.00000000 </v>
    <v>       0.00000000      10.00000000       0.00000000 </v>
    <v>       0.00000000       0.00000000      10.00000000 </v>
   </varray>
   <i name="volume">   1000.00000000 </i>
   <varray name="rec_basis" >
    <v>       0.10000000       0.00000000       0.00000000 </v>
    <v>       0.00000000       0.10000000       0.00000000 </v>
    <v>       0.00000000       0.00000000       0.10000000 </v>
   </varray>
  </crystal>
  <varray name="positions" >
   <v>      -0.50000000      -0.50000000      -0.50000000 </v>
  </varray>
 </structure>
 <varray name="primitive_index" >
  <v type="int" >        1 </v>
 </varray>
 <kpoints>
  <generation param="Gamma">
   <v type="int" name="divisions">       1        1        1 </v>
   <v name="usershift">      0.00000000       0.00000000       0.00000000 </v>
   <v name="genvec1">      1.00000000       0.00000000       0.00000000 </v>
   <v name="genvec2">      0.00000000       1.00000000       0.00000000 </v>
   <v name="genvec3">      0.00000000       0.00000000       1.00000000 </v>
   <v name="shift">      0.00000000       0.00000000       0.00000000 </v>
  </generation>
  <varray name="kpointlist" >
   <v>       0.00000000       0.00000000       0.00000000 </v>
  </varray>
  <varray name="weights" >
   <v>       1.00000000 </v>
  </varray>
 </kpoints>
 <parameters>
  <separator name="general" >
   <i type="string" name="SYSTEM">unknown system</i>
   <i type="logical" name="LCOMPAT"> F  </i>
  </separator>
  <separator name="electronic" >
   <i type="string" name="PREC">accura</i>
   <i name="ENMAX">    520.00000000</i>
   <i name="ENAUG">   1180.94800000</i>
   <i name="EDIFF">      0.00005000</i>
   <i type="int" name="IALGO">    53</i>
   <i type="int" name="IWAVPR">    11</i>
   <i type="int" name="NBANDS">    36</i>
   <i name="NELECT">      2.00000000</i>
   <i type="int" name="TURBO">     0</i>
   <i type="int" name="IRESTART">     0</i>
   <i type="int" name="NREBOOT">     0</i>
   <i type="int" name="NMIN">     0</i>
   <i name="EREF">      0.00000000</i>
   <separator name="electronic smearing" >
    <i type="int" name="ISMEAR">     0</i>
    <i name="SIGMA">      0.05000000</i>
    <i name="KSPACING">      0.50000000</i>
    <i type="logical" name="KGAMMA"> T  </i>
   </separator>
   <separator name="electronic projectors" >
    <i type="logical" name="LREAL"> T  </i>
    <v name="ROPT">     -0.00025000</v>
    <i type="int" name="LMAXPAW">  -100</i>
    <i type="int" name="LMAXMIX">     2</i>
    <i type="logical" name="NLSPLINE"> F  </i>
   </separator>
   <separator name="electronic startup" >
    <i type="int" name="ISTART">     0</i>
    <i type="int" name="ICHARG">     2</i>
    <i type="int" name="INIWAV">     1</i>
   </separator>
   <separator name="electronic spin" >
    <i type="int" name="ISPIN">     2</i>
    <i type="logical" name="LNONCOLLINEAR"> F  </i>
    <v name="MAGMOM">      0.60000000</v>
    <i name="NUPDOWN">     -1.00000000</i>
    <i type="logical" name="LSORBIT"> F  </i>
    <v name="SAXIS">      0.00000000      0.00000000      1.00000000</v>
    <i type="logical" name="LSPIRAL"> F  </i>
    <v name="QSPIRAL">      0.00000000      0.00000000      0.00000000</v>
    <i type="logical" name="LZEROZ"> F  </i>
   </separator>
   <separator name="electronic exchange-correlation" >
    <i type="logical" name="LASPH"> T  </i>
    <i type="logical" name="LMETAGGA"> F  </i>
   </separator>
   <separator name="electronic convergence" >
    <i type="int" name="NELM">   300</i>
    <i type="int" name="NELMDL">    -5</i>
    <i type="int" name="NELMIN">     2</i>
    <i name="ENINI">    520.00000000</i>
    <separator name="electronic convergence detail" >
     <i type="logical" name="LDIAG"> T  </i>
     <i type="logical" name="LSUBROT"> F  </i>
     <i name="WEIMIN">      0.00100000</i>
     <i name="EBREAK">      0.00000035</i>
     <i name="DEPER">      0.30000000</i>
     <i type="int" name="NRMM">     4</i>
     <i name="TIME">      0.40000000</i>
    </separator>
   </separator>
   <separator name="electronic mixer" >
    <i name="AMIX">      0.40000000</i>
    <i name="BMIX">      1.00000000</i>
    <i name="AMIN">      0.10000000</i>
    <i name="AMIX_MAG">      1.60000000</i>
    <i name="BMIX_MAG">      1.00000000</i>
    <separator name="electronic mixer details" >
     <i type="int" name="IMIX">     4</i>
     <i type="logical" name="MIXFIRST"> F  </i>
     <i type="int" name="MAXMIX">   -45</i>
     <i name="WC">    100.00000000</i>
     <i type="int" name="INIMIX">     1</i>
     <i type="int" name="MIXPRE">     1</i>
     <i type="int" name="MREMOVE">     5</i>
    </separator>
   </separator>
   <separator name="electronic dipolcorrection" >
    <i type="logical" name="LDIPOL"> F  </i>
    <i type="logical" name="LMONO"> F  </i>
    <i type="int" name="IDIPOL">     0</i>
    <i name="EPSILON">      1.00000000</i>
    <v name="DIPOL">   -100.00000000   -100.00000000   -100.00000000</v>
    <i name="EFIELD">      0.00000000</i>
   </separator>
  </separator>
  <separator name="grids" >
   <i type="int" name="NGX">    80</i>
   <i type="int" name="NGY">    80</i>
   <i type="int" name="NGZ">    80</i>
   <i type="int" name="NGXF">   160</i>
   <i type="int" name="NGYF">   160</i>
   <i type="int" name="NGZF">   160</i>
   <i type="logical" name="ADDGRID"> F  </i>
  </separator>
  <separator name="ionic" >
   <i type="int" name="NSW">    99</i>
   <i type="int" name="IBRION">     2</i>
   <i type="int" name="MDALGO">     0</i>
   <i type="int" name="ISIF">     2</i>
   <i name="PSTRESS">      0.00000000</i>
   <i name="EDIFFG">      0.00050000</i>
   <i type="int" name="NFREE">     1</i>
   <i name="POTIM">      0.50000000</i>
   <i name="SMASS">     -3.00000000</i>
   <i name="SCALEE">      1.00000000</i>
  </separator>
  <separator name="ionic md" >
   <i name="TEBEG">      0.00010000</i>
   <i name="TEEND">      0.00010000</i>
   <i type="int" name="NBLOCK">     1</i>
   <i type="int" name="KBLOCK">    99</i>
   <i type="int" name="NPACO">   256</i>
   <i name="APACO">     16.00000000</i>
  </separator>
  <separator name="symmetry" >
   <i type="int" name="ISYM">     2</i>
   <i name="SYMPREC">      0.00001000</i>
  </separator>
  <separator name="dos" >
   <i type="int" name="LORBIT">    11</i>
   <v name="RWIGS">     -1.00000000</v>
   <i type="int" name="NEDOS">   301</i>
   <i name="EMIN">     10.00000000</i>
   <i name="EMAX">    -10.00000000</i>
   <i name="EFERMI">      0.00000000</i>
  </separator>
  <separator name="writing" >
   <i type="int" name="NWRITE">     2</i>
   <i type="logical" name="LWAVE"> F  </i>
   <i type="logical" name="LDOWNSAMPLE"> F  </i>
   <i type="logical" name="LCHARG"> T  </i>
   <i type="logical" name="LPARD"> F  </i>
   <i type="logical" name="LVTOT"> F  </i>
   <i type="logical" name="LVHAR"> F  </i>
   <i type="logical" name="LELF"> F  </i>
   <i type="logical" name="LOPTICS"> F  </i>
   <v name="STM">      0.00000000      0.00000000      0.00000000      0.00000000      0.00000000      0.00000000      0.00000000</v>
  </separator>
  <separator name="performance" >
   <i type="int" name="NPAR">    36</i>
   <i type="int" name="NSIM">     4</i>
   <i type="int" name="NBLK">    -1</i>
   <i type="logical" name="LPLANE"> T  </i>
   <i type="logical" name="LSCALAPACK"> T  </i>
   <i type="logical" name="LSCAAWARE"> F  </i>
   <i type="logical" name="LSCALU"> F  </i>
   <i type="logical" name="LASYNC"> F  </i>
   <i type="logical" name="LORBITALREAL"> F  </i>
  </separator>
  <separator name="miscellaneous" >
   <i type="int" name="IDIOT">     3</i>
   <i type="int" name="ISPECIAL">     0</i>
   <i type="logical" name="LMUSIC"> F  </i>
   <v name="POMASS">      4.00000000</v>
   <v name="DARWINR">      0.00000000</v>
   <v name="DARWINV">      1.00000000</v>
   <i type="logical" name="LCORR"> T  </i>
  </separator>
  <i type="logical" name="GGA_COMPAT"> T  </i>
  <i type="logical" name="LBERRY"> F  </i>
  <i type="int" name="ICORELEVEL">     0</i>
  <i type="logical" name="LDAU"> F  </i>
  <i type="int" name="I_CONSTRAINED_M">     0</i>
  <separator name="electronic exchange-correlation" >
   <i type="string" name="GGA">--</i>
   <i type="int" name="VOSKOWN">     0</i>
   <i type="logical" name="LHFCALC"> F  </i>
   <i type="string" name="PRECFOCK"></i>
   <i type="logical" name="LSYMGRAD"> F  </i>
   <i type="logical" name="LHFONE"> F  </i>
   <i type="logical" name="LRHFCALC"> F  </i>
   <i type="logical" name="LTHOMAS"> F  </i>
   <i type="logical" name="LMODELHF"> F  </i>
   <i name="ENCUT4O">     -1.00000000</i>
   <i type="int" name="EXXOEP">     0</i>
   <i type="int" name="FOURORBIT">     0</i>
   <i name="AEXX">      0.00000000</i>
   <i name="HFALPHA">      0.00000000</i>
   <i name="MCALPHA">      0.00000000</i>
   <i name="ALDAX">      1.00000000</i>
   <i name="AGGAX">      1.00000000</i>
   <i name="ALDAC">      1.00000000</i>
   <i name="AGGAC">      1.00000000</i>
   <i type="int" name="NKREDX">     1</i>
   <i type="int" name="NKREDY">     1</i>
   <i type="int" name="NKREDZ">     1</i>
   <i type="logical" name="SHIFTRED"> F  </i>
   <i type="logical" name="ODDONLY"> F  </i>
   <i type="logical" name="EVENONLY"> F  </i>
   <i type="int" name="LMAXFOCK">     0</i>
   <i type="int" name="NMAXFOCKAE">     0</i>
   <i type="logical" name="LFOCKAEDFT"> F  </i>
   <i name="HFSCREEN">      0.00000000</i>
   <i name="HFSCREENC">      0.00000000</i>
   <i type="int" name="NBANDSGWLOW">     0</i>
  </separator>
  <separator name="vdW DFT" >
   <i type="logical" name="LUSE_VDW"> F  </i>
   <i name="Zab_VDW">     -0.84910000</i>
   <i name="PARAM1">      0.12340000</i>
   <i name="PARAM2">      1.00000000</i>
   <i name="PARAM3">      0.00000000</i>
  </separator>
  <separator name="model GW" >
   <i type="int" name="MODEL_GW">     0</i>
   <i name="MODEL_EPS0">    600.00000000</i>
   <i name="MODEL_ALPHA">      1.00000000</i>
  </separator>
  <separator name="linear response parameters" >
   <i type="logical" name="LEPSILON"> F  </i>
   <i type="logical" name="LRPA"> F  </i>
   <i type="logical" name="LNABLA"> F  </i>
   <i type="logical" name="LVEL"> F  </i>
   <i type="int" name="KINTER">     0</i>
   <i name="CSHIFT">      0.10000000</i>
   <i name="OMEGAMAX">     -1.00000000</i>
   <i name="DEG_THRESHOLD">      0.00200000</i>
   <i name="RTIME">     -0.10000000</i>
   <i name="WPLASMAI">      0.00000000</i>
   <v name="DFIELD">      0.00000000      0.00000000      0.00000000</v>
   <v name="WPLASMA">      0.00000000      0.00000000      0.00000000      0.00000000      0.00000000      0.00000000      0.00000000      0.00000000      0.00000000</v>
  </separator>
  <separator name="orbital magnetization" >
   <i type="logical" name="NUCIND"> F  </i>
   <v name="MAGPOS">      0.00000000      0.00000000      0.00000000</v>
   <i type="logical" name="LNICSALL"> T  </i>
   <i type="logical" name="ORBITALMAG"> F  </i>
   <i type="logical" name="LMAGBLOCH"> F  </i>
   <i type="logical" name="LCHIMAG"> F  </i>
   <i type="logical" name="LGAUGE"> T  </i>
   <i type="int" name="MAGATOM">     0</i>
   <v name="MAGDIPOL">      0.00000000      0.00000000      0.00000000</v>
   <v name="AVECCONST">      0.00000000      0.00000000      0.00000000</v>
  </separator>
  <separator name="response functions" >
   <i type="logical" name="LADDER"> F  </i>
   <i type="logical" name="LRPAFORCE"> F  </i>
   <i type="logical" name="LFXC"> F  </i>
   <i type="logical" name="LHARTREE"> T  </i>
   <i type="int" name="IBSE">     0</i>
   <v type="int" name="KPOINT">    -1     0     0     0</v>
   <i type="logical" name="LTCTE"> F  </i>
   <i type="logical" name="LTETE"> F  </i>
   <i type="logical" name="LTRIPLET"> F  </i>
   <i type="logical" name="LFXCEPS"> F  </i>
   <i type="logical" name="LFXHEG"> F  </i>
   <i type="int" name="NATURALO">     2</i>
   <i type="logical" name="L2ORDER"> F  </i>
   <i type="logical" name="LMP2LT"> F  </i>
   <i type="logical" name="LUSEW"> F  </i>
   <i name="ENCUTGW">     -2.00000000</i>
   <i name="ENCUTGWSOFT">     -2.00000000</i>
   <i name="ENCUTLF">     -1.00000000</i>
   <i type="int" name="LMAXMP2">    -1</i>
   <i name="SCISSOR">      0.00000000</i>
   <i type="int" name="NOMEGA">     0</i>
   <i type="int" name="NOMEGAR">     0</i>
   <i type="int" name="NBANDSGW">    -1</i>
   <i type="int" name="NBANDSO">    -1</i>
   <i type="int" name="NBANDSV">    -1</i>
   <i type="int" name="NELM">   300</i>
   <i type="int" name="NELMHF">     1</i>
   <i type="int" name="DIM">     3</i>
   <i type="int" name="ANTIRES">     0</i>
   <i name="OMEGAMAX">    -30.00000000</i>
   <i name="OMEGAMIN">    -30.00000000</i>
   <i name="OMEGATL">   -200.00000000</i>
   <i type="int" name="OMEGAGRID">   140</i>
   <i name="CSHIFT">     -0.10000000</i>
   <i type="logical" name="SELFENERGY"> F  </i>
   <i type="logical" name="LSPECTRAL"> F  </i>
   <i type="logical" name="LSPECTRALGW"> F  </i>
   <i type="logical" name="LSINGLES"> F  </i>
   <i type="logical" name="LFERMIGW"> F  </i>
   <i type="logical" name="ODDONLYGW"> F  </i>
   <i type="logical" name="EVENONLYGW"> F  </i>
   <i type="int" name="NKREDLFX">     1</i>
   <i type="int" name="NKREDLFY">     1</i>
   <i type="int" name="NKREDLFZ">     1</i>
   <i type="int" name="MAXMEM">  2800</i>
   <i type="int" name="TELESCOPE">     0</i>
   <i type="int" name="TAUPAR">     1</i>
   <i type="int" name="OMEGAPAR">    -1</i>
   <i name="LAMBDA">      1.00000000</i>
  </separator>
  <separator name="External order field" >
   <i name="OFIELD_KAPPA">      0.00000000</i>
   <v name="OFIELD_K">      0.00000000      0.00000000      0.00000000</v>
   <i name="OFIELD_Q6_NEAR">      0.00000000</i>
   <i name="OFIELD_Q6_FAR">      0.00000000</i>
   <i name="OFIELD_A">      0.00000000</i>
  </separator>
 </parameters>
 <atominfo>
  <atoms>       1 </atoms>
  <types>       1 </types>
  <array name="atoms" >
   <dimension dim="1">ion</dimension>
   <field type="string">element</field>
   <field type="int">atomtype</field>
   <set>
    <rc><c>He</c><c>   1</c></rc>
   </set>
  </array>
  <array name="atomtypes" >
   <dimension dim="1">type</dimension>
   <field type="int">atomspertype</field>
   <field type="string">element</field>
   <field>mass</field>
   <field>valence</field>
   <field type="string">pseudopotential</field>
   <set>
    <rc><c>   1</c><c>He</c><c>      4.00000000</c><c>      2.00000000</c><c>  PAW_PBE He 05Jan2001                  </c></rc>
   </set>
  </array>
 </atominfo>
 <structure name="initialpos" >
  <crystal>
   <varray name="basis" >
    <v>      10.00000000       0.00000000       0.00000000 </v>
    <v>       0.00000000      10.00000000       0.00000000 </v>
    <v>       0.00000000       0.00000000      10.00000000 </v>
   </varray>
   <i name="volume">   1000.00000000 </i>
   <varray name="rec_basis" >
    <v>       0.10000000       0.00000000       0.00000000 </v>
    <v>       0.00000000       0.10000000       0.00000000 </v>
    <v>       0.00000000       0.00000000       0.10000000 </v>
   </varray>
  </crystal>
  <varray name="positions" >
   <v>       0.50000000       0.50000000       0.50000000 </v>
  </varray>
 </structure>
 <calculation>
  <scstep>
   <time name="total">    0.87    0.87</time>
   <energy>
    <i name="alphaZ">      0.00965562 </i>
    <i name="ewald">     -8.17129600 </i>
    <i name="hartreedc">    -45.96201302 </i>
    <i name="XCdc">      7.95081231 </i>
    <i name="pawpsdc">     46.14160773 </i>
    <i name="pawaedc">    -47.05780377 </i>
    <i name="eentropy">     -0.00000000 </i>
    <i name="bandstr">    -20.05576838 </i>
    <i name="atom">     78.70462793 </i>
    <i name="e_fr_energy">     11.55982242 </i>
    <i name="e_wo_entrp">     11.55982242 </i>
    <i name="e_0_energy">     11.55982242 </i>
   </energy>
  </scstep>
  <scstep>
   <time name="total">    0.56    0.56</time>
   <energy>
    <i name="e_fr_energy">      0.66499927 </i>
    <i name="e_wo_entrp">      0.66499927 </i>
    <i name="e_0_energy">      0.66499927 </i>
   </energy>
  </scstep>
  <scstep>
   <time name="total">    0.56    0.56</time>
   <energy>
    <i name="e_fr_energy">      0.40065816 </i>
    <i name="e_wo_entrp">      0.40065816 </i>
    <i name="e_0_energy">      0.40065816 </i>
   </energy>
  </scstep>
  <scstep>
   <time name="total">    0.55    0.55</time>
   <energy>
    <i name="e_fr_energy">      0.38702710 </i>
    <i name="e_wo_entrp">      0.38702710 </i>
    <i name="e_0_energy">      0.38702710 </i>
   </energy>
  </scstep>
  <scstep>
   <time name="total">    0.81    0.81</time>
   <energy>
    <i name="e_fr_energy">      0.38591315 </i>
    <i name="e_wo_entrp">      0.38591315 </i>
    <i name="e_0_energy">      0.38591315 </i>
   </energy>
  </scstep>
  <scstep>
   <time name="total">    0.87    0.88</time>
   <energy>
    <i name="e_fr_energy">      0.02065454 </i>
    <i name="e_wo_entrp">      0.02065454 </i>
    <i name="e_0_energy">      0.02065454 </i>
   </energy>
  </scstep>
  <scstep>
   <time name="total">    0.86    0.86</time>
   <energy>
    <i name="e_fr_energy">      0.00826818 </i>
    <i name="e_wo_entrp">      0.00826818 </i>
    <i name="e_0_energy">      0.00826818 </i>
   </energy>
  </scstep>
  <scstep>
   <time name="total">    0.86    0.86</time>
   <energy>
    <i name="e_fr_energy">      0.00535553 </i>
    <i name="e_wo_entrp">      0.00535553 </i>
    <i name="e_0_energy">      0.00535553 </i>
   </energy>
  </scstep>
  <scstep>
   <time name="total">    0.85    0.85</time>
   <energy>
    <i name="e_fr_energy">      0.00317200 </i>
    <i name="e_wo_entrp">      0.00317200 </i>
    <i name="e_0_energy">      0.00317200 </i>
   </energy>
  </scstep>
  <scstep>
   <time name="total">    0.88    0.88</time>
   <energy>
    <i name="e_fr_energy">      0.00200376 </i>
    <i name="e_wo_entrp">      0.00200376 </i>
    <i name="e_0_energy">      0.00200376 </i>
   </energy>
  </scstep>
  <scstep>
   <time name="total">    0.86    0.86</time>
   <energy>
    <i name="e_fr_energy">      0.00135952 </i>
    <i name="e_wo_entrp">      0.00135952 </i>
    <i name="e_0_energy">      0.00135952 </i>
   </energy>
  </scstep>
  <scstep>
   <time name="total">    0.86    0.86</time>
   <energy>
    <i name="e_fr_energy">      0.00104150 </i>
    <i name="e_wo_entrp">      0.00104150 </i>
    <i name="e_0_energy">      0.00104150 </i>
   </energy>
  </scstep>
  <scstep>
   <time name="total">    0.86    0.86</time>
   <energy>
    <i name="e_fr_energy">      0.00088691 </i>
    <i name="e_wo_entrp">      0.00088691 </i>
    <i name="e_0_energy">      0.00088691 </i>
   </energy>
  </scstep>
  <scstep>
   <time name="total">    0.85    0.85</time>
   <energy>
    <i name="e_fr_energy">      0.00081580 </i>
    <i name="e_wo_entrp">      0.00081580 </i>
    <i name="e_0_energy">      0.00081580 </i>
   </energy>
  </scstep>
  <scstep>
   <time name="total">    0.93    0.93</time>
   <energy>
    <i name="alphaZ">      0.00965562 </i>
    <i name="ewald">     -8.17129600 </i>
    <i name="hartreedc">    -45.93950445 </i>
    <i name="XCdc">      7.81079913 </i>
    <i name="pawpsdc">     47.42315645 </i>
    <i name="pawaedc">    -48.33287779 </i>
    <i name="eentropy">     -0.00000000 </i>
    <i name="bandstr">    -31.50377764 </i>
    <i name="atom">     78.70462793 </i>
    <i name="e_fr_energy">      0.00078326 </i>
    <i name="e_wo_entrp">      0.00078326 </i>
    <i name="e_0_energy">      0.00078326 </i>
   </energy>
  </scstep>
  <structure>
   <crystal>
    <varray name="basis" >
     <v>      10.00000000       0.00000000       0.00000000 </v>
     <v>       0.00000000      10.00000000       0.00000000 </v>
     <v>       0.00000000       0.00000000      10.00000000 </v>
    </varray>
    <i name="volume">   1000.00000000 </i>
    <varray name="rec_basis" >
     <v>       0.10000000       0.00000000       0.00000000 </v>
     <v>       0.00000000       0.10000000       0.00000000 </v>
     <v>       0.00000000       0.00000000       0.10000000 </v>
    </varray>
   </crystal>
   <varray name="positions" >
    <v>       0.50000000       0.50000000       0.50000000 </v>
   </varray>
  </structure>
  <varray name="forces" >
   <v>       0.00000000       0.00000000       0.00000000 </v>
  </varray>
  <varray name="stress" >
   <v>      -0.21397475      -0.00000000       0.00000000 </v>
   <v>       0.00000000      -0.21397475       0.00000000 </v>
   <v>       0.00000000      -0.00000000      -0.21397475 </v>
  </varray>
  <energy>
   <i name="e_fr_energy">      0.00078326 </i>
   <i name="e_wo_entrp">      0.00078326 </i>
   <i name="e_0_energy">     -0.00000000 </i>
  </energy>
  <time name="totalsc">   19.58   19.86</time>
  <eigenvalues>
   <array>
    <dimension dim="1">band</dimension>
    <dimension dim="2">kpoint</dimension>
    <dimension dim="3">spin</dimension>
    <field>eigene</field>
    <field>occ</field>
    <set>
     <set comment="spin 1">
      <set comment="kpoint 1">
       <r>  -15.7536    1.0000 </r>
       <r>   -0.1047    0.0000 </r>
       <r>    1.2723    0.0000 </r>
       <r>    1.2728    0.0000 </r>
       <r>    1.2911    0.0000 </r>
       <r>    1.3317    0.0000 </r>
       <r>    1.4528    0.0000 </r>
       <r>    1.4528    0.0000 </r>
       <r>    2.5721    0.0000 </r>
       <r>    2.5775    0.0000 </r>
       <r>    2.8093    0.0000 </r>
       <r>    2.8814    0.0000 </r>
       <r>    2.8839    0.0000 </r>
       <r>    2.8851    0.0000 </r>
       <r>    2.8852    0.0000 </r>
       <r>    2.8918    0.0000 </r>
       <r>    2.9165    0.0000 </r>
       <r>    2.9256    0.0000 </r>
       <r>    2.9659    0.0000 </r>
       <r>    3.0019    0.0000 </r>
       <r>    4.2415    0.0000 </r>
       <r>    4.2533    0.0000 </r>
       <r>    4.3729    0.0000 </r>
       <r>    4.3748    0.0000 </r>
       <r>    4.4090    0.0000 </r>
       <r>    4.4484    0.0000 </r>
       <r>    4.4825    0.0000 </r>
       <r>    4.5398    0.0000 </r>
       <r>    5.7403    0.0000 </r>
       <r>    5.8166    0.0000 </r>
       <r>    5.9117    0.0000 </r>
       <r>    5.9445    0.0000 </r>
       <r>    6.5067    0.0000 </r>
       <r>    7.2762    0.0000 </r>
       <r>    7.3108    0.0000 </r>
       <r>    7.6363    0.0000 </r>
      </set>
     </set>
     <set comment="spin 2">
      <set comment="kpoint 1">
       <r>  -15.7502    1.0000 </r>
       <r>   -0.1077    0.0000 </r>
       <r>    1.2691    0.0000 </r>
       <r>    1.2781    0.0000 </r>
       <r>    1.2808    0.0000 </r>
       <r>    1.3274    0.0000 </r>
       <r>    1.4513    0.0000 </r>
       <r>    1.4513    0.0000 </r>
       <r>    2.5500    0.0000 </r>
       <r>    2.5817    0.0000 </r>
       <r>    2.7257    0.0000 </r>
       <r>    2.8210    0.0000 </r>
       <r>    2.8888    0.0000 </r>
       <r>    2.8915    0.0000 </r>
       <r>    2.8955    0.0000 </r>
       <r>    2.8984    0.0000 </r>
       <r>    2.9606    0.0000 </r>
       <r>    2.9651    0.0000 </r>
       <r>    2.9662    0.0000 </r>
       <r>    3.0017    0.0000 </r>
       <r>    4.2298    0.0000 </r>
       <r>    4.2376    0.0000 </r>
       <r>    4.2530    0.0000 </r>
       <r>    4.3696    0.0000 </r>
       <r>    4.3729    0.0000 </r>
       <r>    4.3747    0.0000 </r>
       <r>    4.5108    0.0000 </r>
       <r>    5.0407    0.0000 </r>
       <r>    5.5293    0.0000 </r>
       <r>    5.7815    0.0000 </r>
       <r>    5.8407    0.0000 </r>
       <r>    6.0642    0.0000 </r>
       <r>    6.3078    0.0000 </r>
       <r>    6.8910    0.0000 </r>
       <r>    7.0645    0.0000 </r>
       <r>    7.3808    0.0000 </r>
      </set>
     </set>
    </set>
   </array>
  </eigenvalues>
  <separator name="orbital magnetization" >
   <v name="MAGDIPOLOUT">      0.00000000      0.00000000      0.00000000</v>
  </separator>
  <dos>
   <i name="efermi">    -15.45972238 </i>
   <total>
    <array>
     <dimension dim="1">gridpoints</dimension>
     <dimension dim="2">spin</dimension>
     <field>energy</field>
     <field>total</field>
     <field>integrated</field>
     <set>
      <set comment="spin 1">
       <r>   -16.9230     0.0000     0.0000 </r>
       <r>   -16.8373     0.0000     0.0000 </r>
       <r>   -16.7515     0.0000     0.0000 </r>
       <r>   -16.6658     0.0000     0.0000 </r>
       <r>   -16.5800     0.0000     0.0000 </r>
       <r>   -16.4942     0.0000     0.0000 </r>
       <r>   -16.4085     0.0000     0.0000 </r>
       <r>   -16.3227     0.0000     0.0000 </r>
       <r>   -16.2369     0.0000     0.0000 </r>
       <r>   -16.1512     0.0000     0.0000 </r>
       <r>   -16.0654     0.0000     0.0000 </r>
       <r>   -15.9797     0.0000     0.0000 </r>
       <r>   -15.8939     0.0004     0.0000 </r>
       <r>   -15.8081     0.7148     0.0613 </r>
       <r>   -15.7224     8.7427     0.8111 </r>
       <r>   -15.6366     2.1967     0.9995 </r>
       <r>   -15.5508     0.0055     1.0000 </r>
       <r>   -15.4651     0.0000     1.0000 </r>
       <r>   -15.3793     0.0000     1.0000 </r>
       <r>   -15.2936     0.0000     1.0000 </r>
       <r>   -15.2078     0.0000     1.0000 </r>
       <r>   -15.1220     0.0000     1.0000 </r>
       <r>   -15.0363     0.0000     1.0000 </r>
       <r>   -14.9505     0.0000     1.0000 </r>
       <r>   -14.8647     0.0000     1.0000 </r>
       <r>   -14.7790     0.0000     1.0000 </r>
       <r>   -14.6932     0.0000     1.0000 </r>
       <r>   -14.6075     0.0000     1.0000 </r>
       <r>   -14.5217     0.0000     1.0000 </r>
       <r>   -14.4359     0.0000     1.0000 </r>
       <r>   -14.3502     0.0000     1.0000 </r>
       <r>   -14.2644     0.0000     1.0000 </r>
       <r>   -14.1786     0.0000     1.0000 </r>
       <r>   -14.0929     0.0000     1.0000 </r>
       <r>   -14.0071     0.0000     1.0000 </r>
       <r>   -13.9214     0.0000     1.0000 </r>
       <r>   -13.8356     0.0000     1.0000 </r>
       <r>   -13.7498     0.0000     1.0000 </r>
       <r>   -13.6641     0.0000     1.0000 </r>
       <r>   -13.5783     0.0000     1.0000 </r>
       <r>   -13.4925     0.0000     1.0000 </r>
       <r>   -13.4068     0.0000     1.0000 </r>
       <r>   -13.3210     0.0000     1.0000 </r>
       <r>   -13.2353     0.0000     1.0000 </r>
       <r>   -13.1495     0.0000     1.0000 </r>
       <r>   -13.0637     0.0000     1.0000 </r>
       <r>   -12.9780     0.0000     1.0000 </r>
       <r>   -12.8922     0.0000     1.0000 </r>
       <r>   -12.8064     0.0000     1.0000 </r>
       <r>   -12.7207     0.0000     1.0000 </r>
       <r>   -12.6349     0.0000     1.0000 </r>
       <r>   -12.5491     0.0000     1.0000 </r>
       <r>   -12.4634     0.0000     1.0000 </r>
       <r>   -12.3776     0.0000     1.0000 </r>
       <r>   -12.2919     0.0000     1.0000 </r>
       <r>   -12.2061     0.0000     1.0000 </r>
       <r>   -12.1203     0.0000     1.0000 </r>
       <r>   -12.0346     0.0000     1.0000 </r>
       <r>   -11.9488     0.0000     1.0000 </r>
       <r>   -11.8630     0.0000     1.0000 </r>
       <r>   -11.7773     0.0000     1.0000 </r>
       <r>   -11.6915     0.0000     1.0000 </r>
       <r>   -11.6058     0.0000     1.0000 </r>
       <r>   -11.5200     0.0000     1.0000 </r>
       <r>   -11.4342     0.0000     1.0000 </r>
       <r>   -11.3485     0.0000     1.0000 </r>
       <r>   -11.2627     0.0000     1.0000 </r>
       <r>   -11.1769     0.0000     1.0000 </r>
       <r>   -11.0912     0.0000     1.0000 </r>
       <r>   -11.0054     0.0000     1.0000 </r>
       <r>   -10.9197     0.0000     1.0000 </r>
       <r>   -10.8339     0.0000     1.0000 </r>
       <r>   -10.7481     0.0000     1.0000 </r>
       <r>   -10.6624     0.0000     1.0000 </r>
       <r>   -10.5766     0.0000     1.0000 </r>
       <r>   -10.4908     0.0000     1.0000 </r>
       <r>   -10.4051     0.0000     1.0000 </r>
       <r>   -10.3193     0.0000     1.0000 </r>
       <r>   -10.2336     0.0000     1.0000 </r>
       <r>   -10.1478     0.0000     1.0000 </r>
       <r>   -10.0620     0.0000     1.0000 </r>
       <r>    -9.9763     0.0000     1.0000 </r>
       <r>    -9.8905     0.0000     1.0000 </r>
       <r>    -9.8047     0.0000     1.0000 </r>
       <r>    -9.7190     0.0000     1.0000 </r>
       <r>    -9.6332     0.0000     1.0000 </r>
       <r>    -9.5475     0.0000     1.0000 </r>
       <r>    -9.4617     0.0000     1.0000 </r>
       <r>    -9.3759     0.0000     1.0000 </r>
       <r>    -9.2902     0.0000     1.0000 </r>
       <r>    -9.2044     0.0000     1.0000 </r>
       <r>    -9.1186     0.0000     1.0000 </r>
       <r>    -9.0329     0.0000     1.0000 </r>
       <r>    -8.9471     0.0000     1.0000 </r>
       <r>    -8.8613     0.0000     1.0000 </r>
       <r>    -8.7756     0.0000     1.0000 </r>
       <r>    -8.6898     0.0000     1.0000 </r>
       <r>    -8.6041     0.0000     1.0000 </r>
       <r>    -8.5183     0.0000     1.0000 </r>
       <r>    -8.4325     0.0000     1.0000 </r>
       <r>    -8.3468     0.0000     1.0000 </r>
       <r>    -8.2610     0.0000     1.0000 </r>
       <r>    -8.1752     0.0000     1.0000 </r>
       <r>    -8.0895     0.0000     1.0000 </r>
       <r>    -8.0037     0.0000     1.0000 </r>
       <r>    -7.9180     0.0000     1.0000 </r>
       <r>    -7.8322     0.0000     1.0000 </r>
       <r>    -7.7464     0.0000     1.0000 </r>
       <r>    -7.6607     0.0000     1.0000 </r>
       <r>    -7.5749     0.0000     1.0000 </r>
       <r>    -7.4891     0.0000     1.0000 </r>
       <r>    -7.4034     0.0000     1.0000 </r>
       <r>    -7.3176     0.0000     1.0000 </r>
       <r>    -7.2319     0.0000     1.0000 </r>
       <r>    -7.1461     0.0000     1.0000 </r>
       <r>    -7.0603     0.0000     1.0000 </r>
       <r>    -6.9746     0.0000     1.0000 </r>
       <r>    -6.8888     0.0000     1.0000 </r>
       <r>    -6.8030     0.0000     1.0000 </r>
       <r>    -6.7173     0.0000     1.0000 </r>
       <r>    -6.6315     0.0000     1.0000 </r>
       <r>    -6.5458     0.0000     1.0000 </r>
       <r>    -6.4600     0.0000     1.0000 </r>
       <r>    -6.3742     0.0000     1.0000 </r>
       <r>    -6.2885     0.0000     1.0000 </r>
       <r>    -6.2027     0.0000     1.0000 </r>
       <r>    -6.1169     0.0000     1.0000 </r>
       <r>    -6.0312     0.0000     1.0000 </r>
       <r>    -5.9454     0.0000     1.0000 </r>
       <r>    -5.8597     0.0000     1.0000 </r>
       <r>    -5.7739     0.0000     1.0000 </r>
       <r>    -5.6881     0.0000     1.0000 </r>
       <r>    -5.6024     0.0000     1.0000 </r>
       <r>    -5.5166     0.0000     1.0000 </r>
       <r>    -5.4308     0.0000     1.0000 </r>
       <r>    -5.3451     0.0000     1.0000 </r>
       <r>    -5.2593     0.0000     1.0000 </r>
       <r>    -5.1735     0.0000     1.0000 </r>
       <r>    -5.0878     0.0000     1.0000 </r>
       <r>    -5.0020     0.0000     1.0000 </r>
       <r>    -4.9163     0.0000     1.0000 </r>
       <r>    -4.8305     0.0000     1.0000 </r>
       <r>    -4.7447     0.0000     1.0000 </r>
       <r>    -4.6590     0.0000     1.0000 </r>
       <r>    -4.5732     0.0000     1.0000 </r>
       <r>    -4.4874     0.0000     1.0000 </r>
       <r>    -4.4017     0.0000     1.0000 </r>
       <r>    -4.3159     0.0000     1.0000 </r>
       <r>    -4.2302     0.0000     1.0000 </r>
       <r>    -4.1444     0.0000     1.0000 </r>
       <r>    -4.0586     0.0000     1.0000 </r>
       <r>    -3.9729     0.0000     1.0000 </r>
       <r>    -3.8871     0.0000     1.0000 </r>
       <r>    -3.8013     0.0000     1.0000 </r>
       <r>    -3.7156     0.0000     1.0000 </r>
       <r>    -3.6298     0.0000     1.0000 </r>
       <r>    -3.5441     0.0000     1.0000 </r>
       <r>    -3.4583     0.0000     1.0000 </r>
       <r>    -3.3725     0.0000     1.0000 </r>
       <r>    -3.2868     0.0000     1.0000 </r>
       <r>    -3.2010     0.0000     1.0000 </r>
       <r>    -3.1152     0.0000     1.0000 </r>
       <r>    -3.0295     0.0000     1.0000 </r>
       <r>    -2.9437     0.0000     1.0000 </r>
       <r>    -2.8580     0.0000     1.0000 </r>
       <r>    -2.7722     0.0000     1.0000 </r>
       <r>    -2.6864     0.0000     1.0000 </r>
       <r>    -2.6007     0.0000     1.0000 </r>
       <r>    -2.5149     0.0000     1.0000 </r>
       <r>    -2.4291     0.0000     1.0000 </r>
       <r>    -2.3434     0.0000     1.0000 </r>
       <r>    -2.2576     0.0000     1.0000 </r>
       <r>    -2.1719     0.0000     1.0000 </r>
       <r>    -2.0861     0.0000     1.0000 </r>
       <r>    -2.0003     0.0000     1.0000 </r>
       <r>    -1.9146     0.0000     1.0000 </r>
       <r>    -1.8288     0.0000     1.0000 </r>
       <r>    -1.7430     0.0000     1.0000 </r>
       <r>    -1.6573     0.0000     1.0000 </r>
       <r>    -1.5715     0.0000     1.0000 </r>
       <r>    -1.4857     0.0000     1.0000 </r>
       <r>    -1.4000     0.0000     1.0000 </r>
       <r>    -1.3142     0.0000     1.0000 </r>
       <r>    -1.2285     0.0000     1.0000 </r>
       <r>    -1.1427     0.0000     1.0000 </r>
       <r>    -1.0569     0.0000     1.0000 </r>
       <r>    -0.9712     0.0000     1.0000 </r>
       <r>    -0.8854     0.0000     1.0000 </r>
       <r>    -0.7996     0.0000     1.0000 </r>
       <r>    -0.7139     0.0000     1.0000 </r>
       <r>    -0.6281     0.0000     1.0000 </r>
       <r>    -0.5424     0.0000     1.0000 </r>
       <r>    -0.4566     0.0000     1.0000 </r>
       <r>    -0.3708     0.0000     1.0000 </r>
       <r>    -0.2851     0.0000     1.0000 </r>
       <r>    -0.1993     0.0436     1.0037 </r>
       <r>    -0.1135     4.6408     1.4017 </r>
       <r>    -0.0278     6.8037     1.9853 </r>
       <r>     0.0580     0.1719     2.0000 </r>
       <r>     0.1437     0.0000     2.0000 </r>
       <r>     0.2295     0.0000     2.0000 </r>
       <r>     0.3153     0.0000     2.0000 </r>
       <r>     0.4010     0.0000     2.0000 </r>
       <r>     0.4868     0.0000     2.0000 </r>
       <r>     0.5726     0.0000     2.0000 </r>
       <r>     0.6583     0.0000     2.0000 </r>
       <r>     0.7441     0.0000     2.0000 </r>
       <r>     0.8298     0.0000     2.0000 </r>
       <r>     0.9156     0.0000     2.0000 </r>
       <r>     1.0014     0.0000     2.0000 </r>
       <r>     1.0871     0.0000     2.0000 </r>
       <r>     1.1729     0.0611     2.0052 </r>
       <r>     1.2587    10.3497     2.8929 </r>
       <r>     1.3444    30.8062     5.5349 </r>
       <r>     1.4302    11.4774     6.5192 </r>
       <r>     1.5159    16.4008     7.9258 </r>
       <r>     1.6017     0.8649     8.0000 </r>
       <r>     1.6875     0.0003     8.0000 </r>
       <r>     1.7732     0.0000     8.0000 </r>
       <r>     1.8590     0.0000     8.0000 </r>
       <r>     1.9448     0.0000     8.0000 </r>
       <r>     2.0305     0.0000     8.0000 </r>
       <r>     2.1163     0.0000     8.0000 </r>
       <r>     2.2021     0.0000     8.0000 </r>
       <r>     2.2878     0.0000     8.0000 </r>
       <r>     2.3736     0.0000     8.0000 </r>
       <r>     2.4593     0.0132     8.0011 </r>
       <r>     2.5451     4.6827     8.4027 </r>
       <r>     2.6309    17.2986     9.8863 </r>
       <r>     2.7166     1.3760    10.0043 </r>
       <r>     2.8024     5.4491    10.4717 </r>
       <r>     2.8882    41.2181    14.0066 </r>
       <r>     2.9739    53.9495    18.6335 </r>
       <r>     3.0597    15.2890    19.9447 </r>
       <r>     3.1454     0.6443    20.0000 </r>
       <r>     3.2312     0.0003    20.0000 </r>
       <r>     3.3170     0.0000    20.0000 </r>
       <r>     3.4027     0.0000    20.0000 </r>
       <r>     3.4885     0.0000    20.0000 </r>
       <r>     3.5743     0.0000    20.0000 </r>
       <r>     3.6600     0.0000    20.0000 </r>
       <r>     3.7458     0.0000    20.0000 </r>
       <r>     3.8315     0.0000    20.0000 </r>
       <r>     3.9173     0.0000    20.0000 </r>
       <r>     4.0031     0.0000    20.0000 </r>
       <r>     4.0888     0.0001    20.0000 </r>
       <r>     4.1746     0.4931    20.0423 </r>
       <r>     4.2604    14.4801    21.2842 </r>
       <r>     4.3461    13.7857    22.4664 </r>
       <r>     4.4319    29.9860    25.0381 </r>
       <r>     4.5176    23.7998    27.0793 </r>
       <r>     4.6034    10.3126    27.9637 </r>
       <r>     4.6892     0.4230    28.0000 </r>
       <r>     4.7749     0.0001    28.0000 </r>
       <r>     4.8607     0.0000    28.0000 </r>
       <r>     4.9465     0.0000    28.0000 </r>
       <r>     5.0322     0.0000    28.0000 </r>
       <r>     5.1180     0.0000    28.0000 </r>
       <r>     5.2037     0.0000    28.0000 </r>
       <r>     5.2895     0.0000    28.0000 </r>
       <r>     5.3753     0.0000    28.0000 </r>
       <r>     5.4610     0.0000    28.0000 </r>
       <r>     5.5468     0.0000    28.0000 </r>
       <r>     5.6326     0.0135    28.0012 </r>
       <r>     5.7183     3.1360    28.2701 </r>
       <r>     5.8041    12.3235    29.3270 </r>
       <r>     5.8898    11.4670    30.3105 </r>
       <r>     5.9756    17.0842    31.7756 </r>
       <r>     6.0614     2.6104    31.9995 </r>
       <r>     6.1471     0.0056    32.0000 </r>
       <r>     6.2329     0.0000    32.0000 </r>
       <r>     6.3187     0.0000    32.0000 </r>
       <r>     6.4044     0.0222    32.0019 </r>
       <r>     6.4902     3.7078    32.3199 </r>
       <r>     6.5760     7.6371    32.9749 </r>
       <r>     6.6617     0.2930    33.0000 </r>
       <r>     6.7475     0.0001    33.0000 </r>
       <r>     6.8332     0.0000    33.0000 </r>
       <r>     6.9190     0.0000    33.0000 </r>
       <r>     7.0048     0.0000    33.0000 </r>
       <r>     7.0905     0.0000    33.0000 </r>
       <r>     7.1763     0.0284    33.0024 </r>
       <r>     7.2621     4.9708    33.4287 </r>
       <r>     7.3478    16.3500    34.8310 </r>
       <r>     7.4336     1.9678    34.9997 </r>
       <r>     7.5193     0.0085    35.0005 </r>
       <r>     7.6051     2.1967    35.1889 </r>
       <r>     7.6909     8.7427    35.9387 </r>
       <r>     7.7766     0.7148    36.0000 </r>
       <r>     7.8624     0.0004    36.0000 </r>
       <r>     7.9482     0.0000    36.0000 </r>
       <r>     8.0339     0.0000    36.0000 </r>
       <r>     8.1197     0.0000    36.0000 </r>
       <r>     8.2054     0.0000    36.0000 </r>
       <r>     8.2912     0.0000    36.0000 </r>
       <r>     8.3770     0.0000    36.0000 </r>
       <r>     8.4627     0.0000    36.0000 </r>
       <r>     8.5485     0.0000    36.0000 </r>
       <r>     8.6343     0.0000    36.0000 </r>
       <r>     8.7200     0.0000    36.0000 </r>
       <r>     8.8058     0.0000    36.0000 </r>
      </set>
      <set comment="spin 2">
       <r>   -16.9230     0.0000     0.0000 </r>
       <r>   -16.8373     0.0000     0.0000 </r>
       <r>   -16.7515     0.0000     0.0000 </r>
       <r>   -16.6658     0.0000     0.0000 </r>
       <r>   -16.5800     0.0000     0.0000 </r>
       <r>   -16.4942     0.0000     0.0000 </r>
       <r>   -16.4085     0.0000     0.0000 </r>
       <r>   -16.3227     0.0000     0.0000 </r>
       <r>   -16.2369     0.0000     0.0000 </r>
       <r>   -16.1512     0.0000     0.0000 </r>
       <r>   -16.0654     0.0000     0.0000 </r>
       <r>   -15.9797     0.0000     0.0000 </r>
       <r>   -15.8939     0.0003     0.0000 </r>
       <r>   -15.8081     0.5915     0.0507 </r>
       <r>   -15.7224     8.5577     0.7847 </r>
       <r>   -15.6366     2.5030     0.9993 </r>
       <r>   -15.5508     0.0076     1.0000 </r>
       <r>   -15.4651     0.0000     1.0000 </r>
       <r>   -15.3793     0.0000     1.0000 </r>
       <r>   -15.2936     0.0000     1.0000 </r>
       <r>   -15.2078     0.0000     1.0000 </r>
       <r>   -15.1220     0.0000     1.0000 </r>
       <r>   -15.0363     0.0000     1.0000 </r>
       <r>   -14.9505     0.0000     1.0000 </r>
       <r>   -14.8647     0.0000     1.0000 </r>
       <r>   -14.7790     0.0000     1.0000 </r>
       <r>   -14.6932     0.0000     1.0000 </r>
       <r>   -14.6075     0.0000     1.0000 </r>
       <r>   -14.5217     0.0000     1.0000 </r>
       <r>   -14.4359     0.0000     1.0000 </r>
       <r>   -14.3502     0.0000     1.0000 </r>
       <r>   -14.2644     0.0000     1.0000 </r>
       <r>   -14.1786     0.0000     1.0000 </r>
       <r>   -14.0929     0.0000     1.0000 </r>
       <r>   -14.0071     0.0000     1.0000 </r>
       <r>   -13.9214     0.0000     1.0000 </r>
       <r>   -13.8356     0.0000     1.0000 </r>
       <r>   -13.7498     0.0000     1.0000 </r>
       <r>   -13.6641     0.0000     1.0000 </r>
       <r>   -13.5783     0.0000     1.0000 </r>
       <r>   -13.4925     0.0000     1.0000 </r>
       <r>   -13.4068     0.0000     1.0000 </r>
       <r>   -13.3210     0.0000     1.0000 </r>
       <r>   -13.2353     0.0000     1.0000 </r>
       <r>   -13.1495     0.0000     1.0000 </r>
       <r>   -13.0637     0.0000     1.0000 </r>
       <r>   -12.9780     0.0000     1.0000 </r>
       <r>   -12.8922     0.0000     1.0000 </r>
       <r>   -12.8064     0.0000     1.0000 </r>
       <r>   -12.7207     0.0000     1.0000 </r>
       <r>   -12.6349     0.0000     1.0000 </r>
       <r>   -12.5491     0.0000     1.0000 </r>
       <r>   -12.4634     0.0000     1.0000 </r>
       <r>   -12.3776     0.0000     1.0000 </r>
       <r>   -12.2919     0.0000     1.0000 </r>
       <r>   -12.2061     0.0000     1.0000 </r>
       <r>   -12.1203     0.0000     1.0000 </r>
       <r>   -12.0346     0.0000     1.0000 </r>
       <r>   -11.9488     0.0000     1.0000 </r>
       <r>   -11.8630     0.0000     1.0000 </r>
       <r>   -11.7773     0.0000     1.0000 </r>
       <r>   -11.6915     0.0000     1.0000 </r>
       <r>   -11.6058     0.0000     1.0000 </r>
       <r>   -11.5200     0.0000     1.0000 </r>
       <r>   -11.4342     0.0000     1.0000 </r>
       <r>   -11.3485     0.0000     1.0000 </r>
       <r>   -11.2627     0.0000     1.0000 </r>
       <r>   -11.1769     0.0000     1.0000 </r>
       <r>   -11.0912     0.0000     1.0000 </r>
       <r>   -11.0054     0.0000     1.0000 </r>
       <r>   -10.9197     0.0000     1.0000 </r>
       <r>   -10.8339     0.0000     1.0000 </r>
       <r>   -10.7481     0.0000     1.0000 </r>
       <r>   -10.6624     0.0000     1.0000 </r>
       <r>   -10.5766     0.0000     1.0000 </r>
       <r>   -10.4908     0.0000     1.0000 </r>
       <r>   -10.4051     0.0000     1.0000 </r>
       <r>   -10.3193     0.0000     1.0000 </r>
       <r>   -10.2336     0.0000     1.0000 </r>
       <r>   -10.1478     0.0000     1.0000 </r>
       <r>   -10.0620     0.0000     1.0000 </r>
       <r>    -9.9763     0.0000     1.0000 </r>
       <r>    -9.8905     0.0000     1.0000 </r>
       <r>    -9.8047     0.0000     1.0000 </r>
       <r>    -9.7190     0.0000     1.0000 </r>
       <r>    -9.6332     0.0000     1.0000 </r>
       <r>    -9.5475     0.0000     1.0000 </r>
       <r>    -9.4617     0.0000     1.0000 </r>
       <r>    -9.3759     0.0000     1.0000 </r>
       <r>    -9.2902     0.0000     1.0000 </r>
       <r>    -9.2044     0.0000     1.0000 </r>
       <r>    -9.1186     0.0000     1.0000 </r>
       <r>    -9.0329     0.0000     1.0000 </r>
       <r>    -8.9471     0.0000     1.0000 </r>
       <r>    -8.8613     0.0000     1.0000 </r>
       <r>    -8.7756     0.0000     1.0000 </r>
       <r>    -8.6898     0.0000     1.0000 </r>
       <r>    -8.6041     0.0000     1.0000 </r>
       <r>    -8.5183     0.0000     1.0000 </r>
       <r>    -8.4325     0.0000     1.0000 </r>
       <r>    -8.3468     0.0000     1.0000 </r>
       <r>    -8.2610     0.0000     1.0000 </r>
       <r>    -8.1752     0.0000     1.0000 </r>
       <r>    -8.0895     0.0000     1.0000 </r>
       <r>    -8.0037     0.0000     1.0000 </r>
       <r>    -7.9180     0.0000     1.0000 </r>
       <r>    -7.8322     0.0000     1.0000 </r>
       <r>    -7.7464     0.0000     1.0000 </r>
       <r>    -7.6607     0.0000     1.0000 </r>
       <r>    -7.5749     0.0000     1.0000 </r>
       <r>    -7.4891     0.0000     1.0000 </r>
       <r>    -7.4034     0.0000     1.0000 </r>
       <r>    -7.3176     0.0000     1.0000 </r>
       <r>    -7.2319     0.0000     1.0000 </r>
       <r>    -7.1461     0.0000     1.0000 </r>
       <r>    -7.0603     0.0000     1.0000 </r>
       <r>    -6.9746     0.0000     1.0000 </r>
       <r>    -6.8888     0.0000     1.0000 </r>
       <r>    -6.8030     0.0000     1.0000 </r>
       <r>    -6.7173     0.0000     1.0000 </r>
       <r>    -6.6315     0.0000     1.0000 </r>
       <r>    -6.5458     0.0000     1.0000 </r>
       <r>    -6.4600     0.0000     1.0000 </r>
       <r>    -6.3742     0.0000     1.0000 </r>
       <r>    -6.2885     0.0000     1.0000 </r>
       <r>    -6.2027     0.0000     1.0000 </r>
       <r>    -6.1169     0.0000     1.0000 </r>
       <r>    -6.0312     0.0000     1.0000 </r>
       <r>    -5.9454     0.0000     1.0000 </r>
       <r>    -5.8597     0.0000     1.0000 </r>
       <r>    -5.7739     0.0000     1.0000 </r>
       <r>    -5.6881     0.0000     1.0000 </r>
       <r>    -5.6024     0.0000     1.0000 </r>
       <r>    -5.5166     0.0000     1.0000 </r>
       <r>    -5.4308     0.0000     1.0000 </r>
       <r>    -5.3451     0.0000     1.0000 </r>
       <r>    -5.2593     0.0000     1.0000 </r>
       <r>    -5.1735     0.0000     1.0000 </r>
       <r>    -5.0878     0.0000     1.0000 </r>
       <r>    -5.0020     0.0000     1.0000 </r>
       <r>    -4.9163     0.0000     1.0000 </r>
       <r>    -4.8305     0.0000     1.0000 </r>
       <r>    -4.7447     0.0000     1.0000 </r>
       <r>    -4.6590     0.0000     1.0000 </r>
       <r>    -4.5732     0.0000     1.0000 </r>
       <r>    -4.4874     0.0000     1.0000 </r>
       <r>    -4.4017     0.0000     1.0000 </r>
       <r>    -4.3159     0.0000     1.0000 </r>
       <r>    -4.2302     0.0000     1.0000 </r>
       <r>    -4.1444     0.0000     1.0000 </r>
       <r>    -4.0586     0.0000     1.0000 </r>
       <r>    -3.9729     0.0000     1.0000 </r>
       <r>    -3.8871     0.0000     1.0000 </r>
       <r>    -3.8013     0.0000     1.0000 </r>
       <r>    -3.7156     0.0000     1.0000 </r>
       <r>    -3.6298     0.0000     1.0000 </r>
       <r>    -3.5441     0.0000     1.0000 </r>
       <r>    -3.4583     0.0000     1.0000 </r>
       <r>    -3.3725     0.0000     1.0000 </r>
       <r>    -3.2868     0.0000     1.0000 </r>
       <r>    -3.2010     0.0000     1.0000 </r>
       <r>    -3.1152     0.0000     1.0000 </r>
       <r>    -3.0295     0.0000     1.0000 </r>
       <r>    -2.9437     0.0000     1.0000 </r>
       <r>    -2.8580     0.0000     1.0000 </r>
       <r>    -2.7722     0.0000     1.0000 </r>
       <r>    -2.6864     0.0000     1.0000 </r>
       <r>    -2.6007     0.0000     1.0000 </r>
       <r>    -2.5149     0.0000     1.0000 </r>
       <r>    -2.4291     0.0000     1.0000 </r>
       <r>    -2.3434     0.0000     1.0000 </r>
       <r>    -2.2576     0.0000     1.0000 </r>
       <r>    -2.1719     0.0000     1.0000 </r>
       <r>    -2.0861     0.0000     1.0000 </r>
       <r>    -2.0003     0.0000     1.0000 </r>
       <r>    -1.9146     0.0000     1.0000 </r>
       <r>    -1.8288     0.0000     1.0000 </r>
       <r>    -1.7430     0.0000     1.0000 </r>
       <r>    -1.6573     0.0000     1.0000 </r>
       <r>    -1.5715     0.0000     1.0000 </r>
       <r>    -1.4857     0.0000     1.0000 </r>
       <r>    -1.4000     0.0000     1.0000 </r>
       <r>    -1.3142     0.0000     1.0000 </r>
       <r>    -1.2285     0.0000     1.0000 </r>
       <r>    -1.1427     0.0000     1.0000 </r>
       <r>    -1.0569     0.0000     1.0000 </r>
       <r>    -0.9712     0.0000     1.0000 </r>
       <r>    -0.8854     0.0000     1.0000 </r>
       <r>    -0.7996     0.0000     1.0000 </r>
       <r>    -0.7139     0.0000     1.0000 </r>
       <r>    -0.6281     0.0000     1.0000 </r>
       <r>    -0.5424     0.0000     1.0000 </r>
       <r>    -0.4566     0.0000     1.0000 </r>
       <r>    -0.3708     0.0000     1.0000 </r>
       <r>    -0.2851     0.0000     1.0000 </r>
       <r>    -0.1993     0.0557     1.0048 </r>
       <r>    -0.1135     5.0057     1.4341 </r>
       <r>    -0.0278     6.4597     1.9881 </r>
       <r>     0.0580     0.1390     2.0000 </r>
       <r>     0.1437     0.0000     2.0000 </r>
       <r>     0.2295     0.0000     2.0000 </r>
       <r>     0.3153     0.0000     2.0000 </r>
       <r>     0.4010     0.0000     2.0000 </r>
       <r>     0.4868     0.0000     2.0000 </r>
       <r>     0.5726     0.0000     2.0000 </r>
       <r>     0.6583     0.0000     2.0000 </r>
       <r>     0.7441     0.0000     2.0000 </r>
       <r>     0.8298     0.0000     2.0000 </r>
       <r>     0.9156     0.0000     2.0000 </r>
       <r>     1.0014     0.0000     2.0000 </r>
       <r>     1.0871     0.0000     2.0000 </r>
       <r>     1.1729     0.0683     2.0059 </r>
       <r>     1.2587    11.2019     2.9666 </r>
       <r>     1.3444    30.7633     5.6049 </r>
       <r>     1.4302    11.0098     6.5491 </r>
       <r>     1.5159    16.1321     7.9327 </r>
       <r>     1.6017     0.7849     8.0000 </r>
       <r>     1.6875     0.0002     8.0000 </r>
       <r>     1.7732     0.0000     8.0000 </r>
       <r>     1.8590     0.0000     8.0000 </r>
       <r>     1.9448     0.0000     8.0000 </r>
       <r>     2.0305     0.0000     8.0000 </r>
       <r>     2.1163     0.0000     8.0000 </r>
       <r>     2.2021     0.0000     8.0000 </r>
       <r>     2.2878     0.0000     8.0000 </r>
       <r>     2.3736     0.0000     8.0000 </r>
       <r>     2.4593     0.0634     8.0054 </r>
       <r>     2.5451     6.8747     8.5950 </r>
       <r>     2.6309    15.3355     9.9102 </r>
       <r>     2.7166     5.7075    10.3997 </r>
       <r>     2.8024    10.5509    11.3046 </r>
       <r>     2.8882    28.8517    13.7790 </r>
       <r>     2.9739    49.2187    18.0002 </r>
       <r>     3.0597    22.6095    19.9392 </r>
       <r>     3.1454     0.7085    20.0000 </r>
       <r>     3.2312     0.0003    20.0000 </r>
       <r>     3.3170     0.0000    20.0000 </r>
       <r>     3.4027     0.0000    20.0000 </r>
       <r>     3.4885     0.0000    20.0000 </r>
       <r>     3.5743     0.0000    20.0000 </r>
       <r>     3.6600     0.0000    20.0000 </r>
       <r>     3.7458     0.0000    20.0000 </r>
       <r>     3.8315     0.0000    20.0000 </r>
       <r>     3.9173     0.0000    20.0000 </r>
       <r>     4.0031     0.0000    20.0000 </r>
       <r>     4.0888     0.0006    20.0000 </r>
       <r>     4.1746     1.2817    20.1100 </r>
       <r>     4.2604    23.5693    22.1313 </r>
       <r>     4.3461    18.0804    23.6820 </r>
       <r>     4.4319    25.5525    25.8734 </r>
       <r>     4.5176     8.2006    26.5767 </r>
       <r>     4.6034     4.8840    26.9956 </r>
       <r>     4.6892     0.0513    27.0000 </r>
       <r>     4.7749     0.0000    27.0000 </r>
       <r>     4.8607     0.0000    27.0000 </r>
       <r>     4.9465     0.0450    27.0039 </r>
       <r>     5.0322     4.6862    27.4058 </r>
       <r>     5.1180     6.7614    27.9856 </r>
       <r>     5.2037     0.1674    28.0000 </r>
       <r>     5.2895     0.0000    28.0000 </r>
       <r>     5.3753     0.0001    28.0000 </r>
       <r>     5.4610     0.3123    28.0268 </r>
       <r>     5.5468     7.7316    28.6899 </r>
       <r>     5.6326     3.5959    28.9983 </r>
       <r>     5.7183     0.4533    29.0371 </r>
       <r>     5.8041     9.9257    29.8884 </r>
       <r>     5.8898    11.9903    30.9167 </r>
       <r>     5.9756     1.0415    31.0060 </r>
       <r>     6.0614     5.3870    31.4680 </r>
       <r>     6.1471     6.0919    31.9905 </r>
       <r>     6.2329     0.3103    32.0171 </r>
       <r>     6.3187     7.0427    32.6211 </r>
       <r>     6.4044     4.3813    32.9969 </r>
       <r>     6.4902     0.0365    33.0000 </r>
       <r>     6.5760     0.0000    33.0000 </r>
       <r>     6.6617     0.0000    33.0000 </r>
       <r>     6.7475     0.0003    33.0000 </r>
       <r>     6.8332     0.5974    33.0513 </r>
       <r>     6.9190     8.5685    33.7861 </r>
       <r>     7.0048     3.0169    34.0449 </r>
       <r>     7.0905     8.4437    34.7690 </r>
       <r>     7.1763     2.6843    34.9992 </r>
       <r>     7.2621     0.0137    35.0004 </r>
       <r>     7.3478     2.0446    35.1757 </r>
       <r>     7.4336     8.8229    35.9324 </r>
       <r>     7.5193     0.7875    36.0000 </r>
       <r>     7.6051     0.0005    36.0000 </r>
       <r>     7.6909     0.0000    36.0000 </r>
       <r>     7.7766     0.0000    36.0000 </r>
       <r>     7.8624     0.0000    36.0000 </r>
       <r>     7.9482     0.0000    36.0000 </r>
       <r>     8.0339     0.0000    36.0000 </r>
       <r>     8.1197     0.0000    36.0000 </r>
       <r>     8.2054     0.0000    36.0000 </r>
       <r>     8.2912     0.0000    36.0000 </r>
       <r>     8.3770     0.0000    36.0000 </r>
       <r>     8.4627     0.0000    36.0000 </r>
       <r>     8.5485     0.0000    36.0000 </r>
       <r>     8.6343     0.0000    36.0000 </r>
       <r>     8.7200     0.0000    36.0000 </r>
       <r>     8.8058     0.0000    36.0000 </r>
      </set>
     </set>
    </array>
   </total>
   <partial>
    <array>
     <dimension dim="1">gridpoints</dimension>
     <dimension dim="2">spin</dimension>
     <dimension dim="3">ion</dimension>
     <field>energy</field>
     <field>    s</field>
     <field>   py</field>
     <field>   pz</field>
     <field>   px</field>
     <field>  dxy</field>
     <field>  dyz</field>
     <field>  dz2</field>
     <field>  dxz</field>
     <field>x2-y2</field>
     <set>
      <set comment="ion 1">
       <set comment="spin 1">
        <r>   -16.9230     0.0000     0.0000     0.0000     0.0000     0.0000     0.0000     0.0000     0.0000     0.0000 </r>
        <r>   -16.8373     0.0000     0.0000     0.0000     0.0000     0.0000     0.0000     0.0000     0.0000     0.0000 </r>
        <r>   -16.7515     0.0000     0.0000     0.0000     0.0000     0.0000     0.0000     0.0000     0.0000     0.0000 </r>
        <r>   -16.6658     0.0000     0.0000     0.0000     0.0000     0.0000     0.0000     0.0000     0.0000     0.0000 </r>
        <r>   -16.5800     0.0000     0.0000     0.0000     0.0000     0.0000     0.0000     0.0000     0.0000     0.0000 </r>
        <r>   -16.4942     0.0000     0.0000     0.0000     0.0000     0.0000     0.0000     0.0000     0.0000     0.0000 </r>
        <r>   -16.4085     0.0000     0.0000     0.0000     0.0000     0.0000     0.0000     0.0000     0.0000     0.0000 </r>
        <r>   -16.3227     0.0000     0.0000     0.0000     0.0000     0.0000     0.0000     0.0000     0.0000     0.0000 </r>
        <r>   -16.2369     0.0000     0.0000     0.0000     0.0000     0.0000     0.0000     0.0000     0.0000     0.0000 </r>
        <r>   -16.1512     0.0000     0.0000     0.0000     0.0000     0.0000     0.0000     0.0000     0.0000     0.0000 </r>
        <r>   -16.0654     0.0000     0.0000     0.0000     0.0000     0.0000     0.0000     0.0000     0.0000     0.0000 </r>
        <r>   -15.9797     0.0000     0.0000     0.0000     0.0000     0.0000     0.0000     0.0000     0.0000     0.0000 </r>
        <r>   -15.8939     0.0003     0.0000     0.0000     0.0000     0.0000     0.0000     0.0000     0.0000     0.0000 </r>
        <r>   -15.8081     0.4940     0.0000     0.0000     0.0000     0.0000     0.0000     0.0000     0.0000     0.0000 </r>
        <r>   -15.7224     6.0420     0.0000     0.0000     0.0000     0.0000     0.0000     0.0000     0.0000     0.0000 </r>
        <r>   -15.6366     1.5181     0.0000     0.0000     0.0000     0.0000     0.0000     0.0000     0.0000     0.0000 </r>
        <r>   -15.5508     0.0038     0.0000     0.0000     0.0000     0.0000     0.0000     0.0000     0.0000     0.0000 </r>
        <r>   -15.4651     0.0000     0.0000     0.0000     0.0000     0.0000     0.0000     0.0000     0.0000     0.0000 </r>
        <r>   -15.3793     0.0000     0.0000     0.0000     0.0000     0.0000     0.0000     0.0000     0.0000     0.0000 </r>
        <r>   -15.2936     0.0000     0.0000     0.0000     0.0000     0.0000     0.0000     0.0000     0.0000     0.0000 </r>
        <r>   -15.2078     0.0000     0.0000     0.0000     0.0000     0.0000     0.0000     0.0000     0.0000     0.0000 </r>
        <r>   -15.1220     0.0000     0.0000     0.0000     0.0000     0.0000     0.0000     0.0000     0.0000     0.0000 </r>
        <r>   -15.0363     0.0000     0.0000     0.0000     0.0000     0.0000     0.0000     0.0000     0.0000     0.0000 </r>
        <r>   -14.9505     0.0000     0.0000     0.0000     0.0000     0.0000     0.0000     0.0000     0.0000     0.0000 </r>
        <r>   -14.8647     0.0000     0.0000     0.0000     0.0000     0.0000     0.0000     0.0000     0.0000     0.0000 </r>
        <r>   -14.7790     0.0000     0.0000     0.0000     0.0000     0.0000     0.0000     0.0000     0.0000     0.0000 </r>
        <r>   -14.6932     0.0000     0.0000     0.0000     0.0000     0.0000     0.0000     0.0000     0.0000     0.0000 </r>
        <r>   -14.6075     0.0000     0.0000     0.0000     0.0000     0.0000     0.0000     0.0000     0.0000     0.0000 </r>
        <r>   -14.5217     0.0000     0.0000     0.0000     0.0000     0.0000     0.0000     0.0000     0.0000     0.0000 </r>
        <r>   -14.4359     0.0000     0.0000     0.0000     0.0000     0.0000     0.0000     0.0000     0.0000     0.0000 </r>
        <r>   -14.3502     0.0000     0.0000     0.0000     0.0000     0.0000     0.0000     0.0000     0.0000     0.0000 </r>
        <r>   -14.2644     0.0000     0.0000     0.0000     0.0000     0.0000     0.0000     0.0000     0.0000     0.0000 </r>
        <r>   -14.1786     0.0000     0.0000     0.0000     0.0000     0.0000     0.0000     0.0000     0.0000     0.0000 </r>
        <r>   -14.0929     0.0000     0.0000     0.0000     0.0000     0.0000     0.0000     0.0000     0.0000     0.0000 </r>
        <r>   -14.0071     0.0000     0.0000     0.0000     0.0000     0.0000     0.0000     0.0000     0.0000     0.0000 </r>
        <r>   -13.9214     0.0000     0.0000     0.0000     0.0000     0.0000     0.0000     0.0000     0.0000     0.0000 </r>
        <r>   -13.8356     0.0000     0.0000     0.0000     0.0000     0.0000     0.0000     0.0000     0.0000     0.0000 </r>
        <r>   -13.7498     0.0000     0.0000     0.0000     0.0000     0.0000     0.0000     0.0000     0.0000     0.0000 </r>
        <r>   -13.6641     0.0000     0.0000     0.0000     0.0000     0.0000     0.0000     0.0000     0.0000     0.0000 </r>
        <r>   -13.5783     0.0000     0.0000     0.0000     0.0000     0.0000     0.0000     0.0000     0.0000     0.0000 </r>
        <r>   -13.4925     0.0000     0.0000     0.0000     0.0000     0.0000     0.0000     0.0000     0.0000     0.0000 </r>
        <r>   -13.4068     0.0000     0.0000     0.0000     0.0000     0.0000     0.0000     0.0000     0.0000     0.0000 </r>
        <r>   -13.3210     0.0000     0.0000     0.0000     0.0000     0.0000     0.0000     0.0000     0.0000     0.0000 </r>
        <r>   -13.2353     0.0000     0.0000     0.0000     0.0000     0.0000     0.0000     0.0000     0.0000     0.0000 </r>
        <r>   -13.1495     0.0000     0.0000     0.0000     0.0000     0.0000     0.0000     0.0000     0.0000     0.0000 </r>
        <r>   -13.0637     0.0000     0.0000     0.0000     0.0000     0.0000     0.0000     0.0000     0.0000     0.0000 </r>
        <r>   -12.9780     0.0000     0.0000     0.0000     0.0000     0.0000     0.0000     0.0000     0.0000     0.0000 </r>
        <r>   -12.8922     0.0000     0.0000     0.0000     0.0000     0.0000     0.0000     0.0000     0.0000     0.0000 </r>
        <r>   -12.8064     0.0000     0.0000     0.0000     0.0000     0.0000     0.0000     0.0000     0.0000     0.0000 </r>
        <r>   -12.7207     0.0000     0.0000     0.0000     0.0000     0.0000     0.0000     0.0000     0.0000     0.0000 </r>
        <r>   -12.6349     0.0000     0.0000     0.0000     0.0000     0.0000     0.0000     0.0000     0.0000     0.0000 </r>
        <r>   -12.5491     0.0000     0.0000     0.0000     0.0000     0.0000     0.0000     0.0000     0.0000     0.0000 </r>
        <r>   -12.4634     0.0000     0.0000     0.0000     0.0000     0.0000     0.0000     0.0000     0.0000     0.0000 </r>
        <r>   -12.3776     0.0000     0.0000     0.0000     0.0000     0.0000     0.0000     0.0000     0.0000     0.0000 </r>
        <r>   -12.2919     0.0000     0.0000     0.0000     0.0000     0.0000     0.0000     0.0000     0.0000     0.0000 </r>
        <r>   -12.2061     0.0000     0.0000     0.0000     0.0000     0.0000     0.0000     0.0000     0.0000     0.0000 </r>
        <r>   -12.1203     0.0000     0.0000     0.0000     0.0000     0.0000     0.0000     0.0000     0.0000     0.0000 </r>
        <r>   -12.0346     0.0000     0.0000     0.0000     0.0000     0.0000     0.0000     0.0000     0.0000     0.0000 </r>
        <r>   -11.9488     0.0000     0.0000     0.0000     0.0000     0.0000     0.0000     0.0000     0.0000     0.0000 </r>
        <r>   -11.8630     0.0000     0.0000     0.0000     0.0000     0.0000     0.0000     0.0000     0.0000     0.0000 </r>
        <r>   -11.7773     0.0000     0.0000     0.0000     0.0000     0.0000     0.0000     0.0000     0.0000     0.0000 </r>
        <r>   -11.6915     0.0000     0.0000     0.0000     0.0000     0.0000     0.0000     0.0000     0.0000     0.0000 </r>
        <r>   -11.6058     0.0000     0.0000     0.0000     0.0000     0.0000     0.0000     0.0000     0.0000     0.0000 </r>
        <r>   -11.5200     0.0000     0.0000     0.0000     0.0000     0.0000     0.0000     0.0000     0.0000     0.0000 </r>
        <r>   -11.4342     0.0000     0.0000     0.0000     0.0000     0.0000     0.0000     0.0000     0.0000     0.0000 </r>
        <r>   -11.3485     0.0000     0.0000     0.0000     0.0000     0.0000     0.0000     0.0000     0.0000     0.0000 </r>
        <r>   -11.2627     0.0000     0.0000     0.0000     0.0000     0.0000     0.0000     0.0000     0.0000     0.0000 </r>
        <r>   -11.1769     0.0000     0.0000     0.0000     0.0000     0.0000     0.0000     0.0000     0.0000     0.0000 </r>
        <r>   -11.0912     0.0000     0.0000     0.0000     0.0000     0.0000     0.0000     0.0000     0.0000     0.0000 </r>
        <r>   -11.0054     0.0000     0.0000     0.0000     0.0000     0.0000     0.0000     0.0000     0.0000     0.0000 </r>
        <r>   -10.9197     0.0000     0.0000     0.0000     0.0000     0.0000     0.0000     0.0000     0.0000     0.0000 </r>
        <r>   -10.8339     0.0000     0.0000     0.0000     0.0000     0.0000     0.0000     0.0000     0.0000     0.0000 </r>
        <r>   -10.7481     0.0000     0.0000     0.0000     0.0000     0.0000     0.0000     0.0000     0.0000     0.0000 </r>
        <r>   -10.6624     0.0000     0.0000     0.0000     0.0000     0.0000     0.0000     0.0000     0.0000     0.0000 </r>
        <r>   -10.5766     0.0000     0.0000     0.0000     0.0000     0.0000     0.0000     0.0000     0.0000     0.0000 </r>
        <r>   -10.4908     0.0000     0.0000     0.0000     0.0000     0.0000     0.0000     0.0000     0.0000     0.0000 </r>
        <r>   -10.4051     0.0000     0.0000     0.0000     0.0000     0.0000     0.0000     0.0000     0.0000     0.0000 </r>
        <r>   -10.3193     0.0000     0.0000     0.0000     0.0000     0.0000     0.0000     0.0000     0.0000     0.0000 </r>
        <r>   -10.2336     0.0000     0.0000     0.0000     0.0000     0.0000     0.0000     0.0000     0.0000     0.0000 </r>
        <r>   -10.1478     0.0000     0.0000     0.0000     0.0000     0.0000     0.0000     0.0000     0.0000     0.0000 </r>
        <r>   -10.0620     0.0000     0.0000     0.0000     0.0000     0.0000     0.0000     0.0000     0.0000     0.0000 </r>
        <r>    -9.9763     0.0000     0.0000     0.0000     0.0000     0.0000     0.0000     0.0000     0.0000     0.0000 </r>
        <r>    -9.8905     0.0000     0.0000     0.0000     0.0000     0.0000     0.0000     0.0000     0.0000     0.0000 </r>
        <r>    -9.8047     0.0000     0.0000     0.0000     0.0000     0.0000     0.0000     0.0000     0.0000     0.0000 </r>
        <r>    -9.7190     0.0000     0.0000     0.0000     0.0000     0.0000     0.0000     0.0000     0.0000     0.0000 </r>
        <r>    -9.6332     0.0000     0.0000     0.0000     0.0000     0.0000     0.0000     0.0000     0.0000     0.0000 </r>
        <r>    -9.5475     0.0000     0.0000     0.0000     0.0000     0.0000     0.0000     0.0000     0.0000     0.0000 </r>
        <r>    -9.4617     0.0000     0.0000     0.0000     0.0000     0.0000     0.0000     0.0000     0.0000     0.0000 </r>
        <r>    -9.3759     0.0000     0.0000     0.0000     0.0000     0.0000     0.0000     0.0000     0.0000     0.0000 </r>
        <r>    -9.2902     0.0000     0.0000     0.0000     0.0000     0.0000     0.0000     0.0000     0.0000     0.0000 </r>
        <r>    -9.2044     0.0000     0.0000     0.0000     0.0000     0.0000     0.0000     0.0000     0.0000     0.0000 </r>
        <r>    -9.1186     0.0000     0.0000     0.0000     0.0000     0.0000     0.0000     0.0000     0.0000     0.0000 </r>
        <r>    -9.0329     0.0000     0.0000     0.0000     0.0000     0.0000     0.0000     0.0000     0.0000     0.0000 </r>
        <r>    -8.9471     0.0000     0.0000     0.0000     0.0000     0.0000     0.0000     0.0000     0.0000     0.0000 </r>
        <r>    -8.8613     0.0000     0.0000     0.0000     0.0000     0.0000     0.0000     0.0000     0.0000     0.0000 </r>
        <r>    -8.7756     0.0000     0.0000     0.0000     0.0000     0.0000     0.0000     0.0000     0.0000     0.0000 </r>
        <r>    -8.6898     0.0000     0.0000     0.0000     0.0000     0.0000     0.0000     0.0000     0.0000     0.0000 </r>
        <r>    -8.6041     0.0000     0.0000     0.0000     0.0000     0.0000     0.0000     0.0000     0.0000     0.0000 </r>
        <r>    -8.5183     0.0000     0.0000     0.0000     0.0000     0.0000     0.0000     0.0000     0.0000     0.0000 </r>
        <r>    -8.4325     0.0000     0.0000     0.0000     0.0000     0.0000     0.0000     0.0000     0.0000     0.0000 </r>
        <r>    -8.3468     0.0000     0.0000     0.0000     0.0000     0.0000     0.0000     0.0000     0.0000     0.0000 </r>
        <r>    -8.2610     0.0000     0.0000     0.0000     0.0000     0.0000     0.0000     0.0000     0.0000     0.0000 </r>
        <r>    -8.1752     0.0000     0.0000     0.0000     0.0000     0.0000     0.0000     0.0000     0.0000     0.0000 </r>
        <r>    -8.0895     0.0000     0.0000     0.0000     0.0000     0.0000     0.0000     0.0000     0.0000     0.0000 </r>
        <r>    -8.0037     0.0000     0.0000     0.0000     0.0000     0.0000     0.0000     0.0000     0.0000     0.0000 </r>
        <r>    -7.9180     0.0000     0.0000     0.0000     0.0000     0.0000     0.0000     0.0000     0.0000     0.0000 </r>
        <r>    -7.8322     0.0000     0.0000     0.0000     0.0000     0.0000     0.0000     0.0000     0.0000     0.0000 </r>
        <r>    -7.7464     0.0000     0.0000     0.0000     0.0000     0.0000     0.0000     0.0000     0.0000     0.0000 </r>
        <r>    -7.6607     0.0000     0.0000     0.0000     0.0000     0.0000     0.0000     0.0000     0.0000     0.0000 </r>
        <r>    -7.5749     0.0000     0.0000     0.0000     0.0000     0.0000     0.0000     0.0000     0.0000     0.0000 </r>
        <r>    -7.4891     0.0000     0.0000     0.0000     0.0000     0.0000     0.0000     0.0000     0.0000     0.0000 </r>
        <r>    -7.4034     0.0000     0.0000     0.0000     0.0000     0.0000     0.0000     0.0000     0.0000     0.0000 </r>
        <r>    -7.3176     0.0000     0.0000     0.0000     0.0000     0.0000     0.0000     0.0000     0.0000     0.0000 </r>
        <r>    -7.2319     0.0000     0.0000     0.0000     0.0000     0.0000     0.0000     0.0000     0.0000     0.0000 </r>
        <r>    -7.1461     0.0000     0.0000     0.0000     0.0000     0.0000     0.0000     0.0000     0.0000     0.0000 </r>
        <r>    -7.0603     0.0000     0.0000     0.0000     0.0000     0.0000     0.0000     0.0000     0.0000     0.0000 </r>
        <r>    -6.9746     0.0000     0.0000     0.0000     0.0000     0.0000     0.0000     0.0000     0.0000     0.0000 </r>
        <r>    -6.8888     0.0000     0.0000     0.0000     0.0000     0.0000     0.0000     0.0000     0.0000     0.0000 </r>
        <r>    -6.8030     0.0000     0.0000     0.0000     0.0000     0.0000     0.0000     0.0000     0.0000     0.0000 </r>
        <r>    -6.7173     0.0000     0.0000     0.0000     0.0000     0.0000     0.0000     0.0000     0.0000     0.0000 </r>
        <r>    -6.6315     0.0000     0.0000     0.0000     0.0000     0.0000     0.0000     0.0000     0.0000     0.0000 </r>
        <r>    -6.5458     0.0000     0.0000     0.0000     0.0000     0.0000     0.0000     0.0000     0.0000     0.0000 </r>
        <r>    -6.4600     0.0000     0.0000     0.0000     0.0000     0.0000     0.0000     0.0000     0.0000     0.0000 </r>
        <r>    -6.3742     0.0000     0.0000     0.0000     0.0000     0.0000     0.0000     0.0000     0.0000     0.0000 </r>
        <r>    -6.2885     0.0000     0.0000     0.0000     0.0000     0.0000     0.0000     0.0000     0.0000     0.0000 </r>
        <r>    -6.2027     0.0000     0.0000     0.0000     0.0000     0.0000     0.0000     0.0000     0.0000     0.0000 </r>
        <r>    -6.1169     0.0000     0.0000     0.0000     0.0000     0.0000     0.0000     0.0000     0.0000     0.0000 </r>
        <r>    -6.0312     0.0000     0.0000     0.0000     0.0000     0.0000     0.0000     0.0000     0.0000     0.0000 </r>
        <r>    -5.9454     0.0000     0.0000     0.0000     0.0000     0.0000     0.0000     0.0000     0.0000     0.0000 </r>
        <r>    -5.8597     0.0000     0.0000     0.0000     0.0000     0.0000     0.0000     0.0000     0.0000     0.0000 </r>
        <r>    -5.7739     0.0000     0.0000     0.0000     0.0000     0.0000     0.0000     0.0000     0.0000     0.0000 </r>
        <r>    -5.6881     0.0000     0.0000     0.0000     0.0000     0.0000     0.0000     0.0000     0.0000     0.0000 </r>
        <r>    -5.6024     0.0000     0.0000     0.0000     0.0000     0.0000     0.0000     0.0000     0.0000     0.0000 </r>
        <r>    -5.5166     0.0000     0.0000     0.0000     0.0000     0.0000     0.0000     0.0000     0.0000     0.0000 </r>
        <r>    -5.4308     0.0000     0.0000     0.0000     0.0000     0.0000     0.0000     0.0000     0.0000     0.0000 </r>
        <r>    -5.3451     0.0000     0.0000     0.0000     0.0000     0.0000     0.0000     0.0000     0.0000     0.0000 </r>
        <r>    -5.2593     0.0000     0.0000     0.0000     0.0000     0.0000     0.0000     0.0000     0.0000     0.0000 </r>
        <r>    -5.1735     0.0000     0.0000     0.0000     0.0000     0.0000     0.0000     0.0000     0.0000     0.0000 </r>
        <r>    -5.0878     0.0000     0.0000     0.0000     0.0000     0.0000     0.0000     0.0000     0.0000     0.0000 </r>
        <r>    -5.0020     0.0000     0.0000     0.0000     0.0000     0.0000     0.0000     0.0000     0.0000     0.0000 </r>
        <r>    -4.9163     0.0000     0.0000     0.0000     0.0000     0.0000     0.0000     0.0000     0.0000     0.0000 </r>
        <r>    -4.8305     0.0000     0.0000     0.0000     0.0000     0.0000     0.0000     0.0000     0.0000     0.0000 </r>
        <r>    -4.7447     0.0000     0.0000     0.0000     0.0000     0.0000     0.0000     0.0000     0.0000     0.0000 </r>
        <r>    -4.6590     0.0000     0.0000     0.0000     0.0000     0.0000     0.0000     0.0000     0.0000     0.0000 </r>
        <r>    -4.5732     0.0000     0.0000     0.0000     0.0000     0.0000     0.0000     0.0000     0.0000     0.0000 </r>
        <r>    -4.4874     0.0000     0.0000     0.0000     0.0000     0.0000     0.0000     0.0000     0.0000     0.0000 </r>
        <r>    -4.4017     0.0000     0.0000     0.0000     0.0000     0.0000     0.0000     0.0000     0.0000     0.0000 </r>
        <r>    -4.3159     0.0000     0.0000     0.0000     0.0000     0.0000     0.0000     0.0000     0.0000     0.0000 </r>
        <r>    -4.2302     0.0000     0.0000     0.0000     0.0000     0.0000     0.0000     0.0000     0.0000     0.0000 </r>
        <r>    -4.1444     0.0000     0.0000     0.0000     0.0000     0.0000     0.0000     0.0000     0.0000     0.0000 </r>
        <r>    -4.0586     0.0000     0.0000     0.0000     0.0000     0.0000     0.0000     0.0000     0.0000     0.0000 </r>
        <r>    -3.9729     0.0000     0.0000     0.0000     0.0000     0.0000     0.0000     0.0000     0.0000     0.0000 </r>
        <r>    -3.8871     0.0000     0.0000     0.0000     0.0000     0.0000     0.0000     0.0000     0.0000     0.0000 </r>
        <r>    -3.8013     0.0000     0.0000     0.0000     0.0000     0.0000     0.0000     0.0000     0.0000     0.0000 </r>
        <r>    -3.7156     0.0000     0.0000     0.0000     0.0000     0.0000     0.0000     0.0000     0.0000     0.0000 </r>
        <r>    -3.6298     0.0000     0.0000     0.0000     0.0000     0.0000     0.0000     0.0000     0.0000     0.0000 </r>
        <r>    -3.5441     0.0000     0.0000     0.0000     0.0000     0.0000     0.0000     0.0000     0.0000     0.0000 </r>
        <r>    -3.4583     0.0000     0.0000     0.0000     0.0000     0.0000     0.0000     0.0000     0.0000     0.0000 </r>
        <r>    -3.3725     0.0000     0.0000     0.0000     0.0000     0.0000     0.0000     0.0000     0.0000     0.0000 </r>
        <r>    -3.2868     0.0000     0.0000     0.0000     0.0000     0.0000     0.0000     0.0000     0.0000     0.0000 </r>
        <r>    -3.2010     0.0000     0.0000     0.0000     0.0000     0.0000     0.0000     0.0000     0.0000     0.0000 </r>
        <r>    -3.1152     0.0000     0.0000     0.0000     0.0000     0.0000     0.0000     0.0000     0.0000     0.0000 </r>
        <r>    -3.0295     0.0000     0.0000     0.0000     0.0000     0.0000     0.0000     0.0000     0.0000     0.0000 </r>
        <r>    -2.9437     0.0000     0.0000     0.0000     0.0000     0.0000     0.0000     0.0000     0.0000     0.0000 </r>
        <r>    -2.8580     0.0000     0.0000     0.0000     0.0000     0.0000     0.0000     0.0000     0.0000     0.0000 </r>
        <r>    -2.7722     0.0000     0.0000     0.0000     0.0000     0.0000     0.0000     0.0000     0.0000     0.0000 </r>
        <r>    -2.6864     0.0000     0.0000     0.0000     0.0000     0.0000     0.0000     0.0000     0.0000     0.0000 </r>
        <r>    -2.6007     0.0000     0.0000     0.0000     0.0000     0.0000     0.0000     0.0000     0.0000     0.0000 </r>
        <r>    -2.5149     0.0000     0.0000     0.0000     0.0000     0.0000     0.0000     0.0000     0.0000     0.0000 </r>
        <r>    -2.4291     0.0000     0.0000     0.0000     0.0000     0.0000     0.0000     0.0000     0.0000     0.0000 </r>
        <r>    -2.3434     0.0000     0.0000     0.0000     0.0000     0.0000     0.0000     0.0000     0.0000     0.0000 </r>
        <r>    -2.2576     0.0000     0.0000     0.0000     0.0000     0.0000     0.0000     0.0000     0.0000     0.0000 </r>
        <r>    -2.1719     0.0000     0.0000     0.0000     0.0000     0.0000     0.0000     0.0000     0.0000     0.0000 </r>
        <r>    -2.0861     0.0000     0.0000     0.0000     0.0000     0.0000     0.0000     0.0000     0.0000     0.0000 </r>
        <r>    -2.0003     0.0000     0.0000     0.0000     0.0000     0.0000     0.0000     0.0000     0.0000     0.0000 </r>
        <r>    -1.9146     0.0000     0.0000     0.0000     0.0000     0.0000     0.0000     0.0000     0.0000     0.0000 </r>
        <r>    -1.8288     0.0000     0.0000     0.0000     0.0000     0.0000     0.0000     0.0000     0.0000     0.0000 </r>
        <r>    -1.7430     0.0000     0.0000     0.0000     0.0000     0.0000     0.0000     0.0000     0.0000     0.0000 </r>
        <r>    -1.6573     0.0000     0.0000     0.0000     0.0000     0.0000     0.0000     0.0000     0.0000     0.0000 </r>
        <r>    -1.5715     0.0000     0.0000     0.0000     0.0000     0.0000     0.0000     0.0000     0.0000     0.0000 </r>
        <r>    -1.4857     0.0000     0.0000     0.0000     0.0000     0.0000     0.0000     0.0000     0.0000     0.0000 </r>
        <r>    -1.4000     0.0000     0.0000     0.0000     0.0000     0.0000     0.0000     0.0000     0.0000     0.0000 </r>
        <r>    -1.3142     0.0000     0.0000     0.0000     0.0000     0.0000     0.0000     0.0000     0.0000     0.0000 </r>
        <r>    -1.2285     0.0000     0.0000     0.0000     0.0000     0.0000     0.0000     0.0000     0.0000     0.0000 </r>
        <r>    -1.1427     0.0000     0.0000     0.0000     0.0000     0.0000     0.0000     0.0000     0.0000     0.0000 </r>
        <r>    -1.0569     0.0000     0.0000     0.0000     0.0000     0.0000     0.0000     0.0000     0.0000     0.0000 </r>
        <r>    -0.9712     0.0000     0.0000     0.0000     0.0000     0.0000     0.0000     0.0000     0.0000     0.0000 </r>
        <r>    -0.8854     0.0000     0.0000     0.0000     0.0000     0.0000     0.0000     0.0000     0.0000     0.0000 </r>
        <r>    -0.7996     0.0000     0.0000     0.0000     0.0000     0.0000     0.0000     0.0000     0.0000     0.0000 </r>
        <r>    -0.7139     0.0000     0.0000     0.0000     0.0000     0.0000     0.0000     0.0000     0.0000     0.0000 </r>
        <r>    -0.6281     0.0000     0.0000     0.0000     0.0000     0.0000     0.0000     0.0000     0.0000     0.0000 </r>
[...]
        <r>     4.9465     0.0000     0.0000     0.0000     0.0000     0.0000     0.0000     0.0000     0.0000     0.0000 </r>
        <r>     5.0322     0.0000     0.0004     0.0000     0.0004     0.0000     0.0000     0.0000     0.0000     0.0000 </r>
        <r>     5.1180     0.0000     0.0006     0.0000     0.0006     0.0000     0.0000     0.0000     0.0000     0.0000 </r>
        <r>     5.2037     0.0000     0.0000     0.0000     0.0000     0.0000     0.0000     0.0000     0.0000     0.0000 </r>
        <r>     5.2895     0.0000     0.0000     0.0000     0.0000     0.0000     0.0000     0.0000     0.0000     0.0000 </r>
        <r>     5.3753     0.0000     0.0000     0.0000     0.0000     0.0000     0.0000     0.0000     0.0000     0.0000 </r>
        <r>     5.4610     0.0005     0.0000     0.0000     0.0001     0.0000     0.0000     0.0000     0.0000     0.0000 </r>
        <r>     5.5468     0.0129     0.0002     0.0000     0.0027     0.0000     0.0000     0.0000     0.0000     0.0000 </r>
        <r>     5.6326     0.0060     0.0001     0.0000     0.0013     0.0000     0.0000     0.0000     0.0000     0.0000 </r>
        <r>     5.7183     0.0001     0.0000     0.0000     0.0000     0.0000     0.0000     0.0000     0.0000     0.0000 </r>
        <r>     5.8041     0.0054     0.0000     0.0001     0.0002     0.0000     0.0000     0.0000     0.0000     0.0000 </r>
        <r>     5.8898     0.0226     0.0000     0.0002     0.0007     0.0000     0.0000     0.0000     0.0000     0.0000 </r>
        <r>     5.9756     0.0024     0.0001     0.0000     0.0001     0.0000     0.0000     0.0000     0.0000     0.0000 </r>
        <r>     6.0614     0.0000     0.0079     0.0005     0.0000     0.0000     0.0000     0.0000     0.0000     0.0000 </r>
        <r>     6.1471     0.0000     0.0089     0.0006     0.0000     0.0000     0.0000     0.0000     0.0000     0.0000 </r>
        <r>     6.2329     0.0000     0.0002     0.0000     0.0002     0.0000     0.0000     0.0000     0.0000     0.0000 </r>
        <r>     6.3187     0.0017     0.0024     0.0004     0.0055     0.0000     0.0000     0.0000     0.0000     0.0000 </r>
        <r>     6.4044     0.0010     0.0015     0.0002     0.0034     0.0000     0.0000     0.0000     0.0000     0.0000 </r>
        <r>     6.4902     0.0000     0.0000     0.0000     0.0000     0.0000     0.0000     0.0000     0.0000     0.0000 </r>
        <r>     6.5760     0.0000     0.0000     0.0000     0.0000     0.0000     0.0000     0.0000     0.0000     0.0000 </r>
        <r>     6.6617     0.0000     0.0000     0.0000     0.0000     0.0000     0.0000     0.0000     0.0000     0.0000 </r>
        <r>     6.7475     0.0000     0.0000     0.0000     0.0000     0.0000     0.0000     0.0000     0.0000     0.0000 </r>
        <r>     6.8332     0.0005     0.0000     0.0002     0.0000     0.0000     0.0000     0.0000     0.0000     0.0000 </r>
        <r>     6.9190     0.0071     0.0001     0.0031     0.0000     0.0000     0.0000     0.0000     0.0000     0.0000 </r>
        <r>     7.0048     0.0021     0.0001     0.0011     0.0000     0.0000     0.0000     0.0000     0.0000     0.0000 </r>
        <r>     7.0905     0.0000     0.0018     0.0033     0.0000     0.0000     0.0000     0.0000     0.0000     0.0000 </r>
        <r>     7.1763     0.0000     0.0006     0.0010     0.0000     0.0000     0.0000     0.0000     0.0000     0.0000 </r>
        <r>     7.2621     0.0000     0.0000     0.0000     0.0000     0.0000     0.0000     0.0000     0.0000     0.0000 </r>
        <r>     7.3478     0.0000     0.0001     0.0006     0.0000     0.0000     0.0000     0.0000     0.0000     0.0000 </r>
        <r>     7.4336     0.0000     0.0005     0.0026     0.0000     0.0000     0.0000     0.0000     0.0000     0.0000 </r>
        <r>     7.5193     0.0000     0.0000     0.0002     0.0000     0.0000     0.0000     0.0000     0.0000     0.0000 </r>
        <r>     7.6051     0.0000     0.0000     0.0000     0.0000     0.0000     0.0000     0.0000     0.0000     0.0000 </r>
        <r>     7.6909     0.0000     0.0000     0.0000     0.0000     0.0000     0.0000     0.0000     0.0000     0.0000 </r>
        <r>     7.7766     0.0000     0.0000     0.0000     0.0000     0.0000     0.0000     0.0000     0.0000     0.0000 </r>
        <r>     7.8624     0.0000     0.0000     0.0000     0.0000     0.0000     0.0000     0.0000     0.0000     0.0000 </r>
        <r>     7.9482     0.0000     0.0000     0.0000     0.0000     0.0000     0.0000     0.0000     0.0000     0.0000 </r>
        <r>     8.0339     0.0000     0.0000     0.0000     0.0000     0.0000     0.0000     0.0000     0.0000     0.0000 </r>
        <r>     8.1197     0.0000     0.0000     0.0000     0.0000     0.0000     0.0000     0.0000     0.0000     0.0000 </r>
        <r>     8.2054     0.0000     0.0000     0.0000     0.0000     0.0000     0.0000     0.0000     0.0000     0.0000 </r>
        <r>     8.2912     0.0000     0.0000     0.0000     0.0000     0.0000     0.0000     0.0000     0.0000     0.0000 </r>
        <r>     8.3770     0.0000     0.0000     0.0000     0.0000     0.0000     0.0000     0.0000     0.0000     0.0000 </r>
        <r>     8.4627     0.0000     0.0000     0.0000     0.0000     0.0000     0.0000     0.0000     0.0000     0.0000 </r>
        <r>     8.5485     0.0000     0.0000     0.0000     0.0000     0.0000     0.0000     0.0000     0.0000     0.0000 </r>
        <r>     8.6343     0.0000     0.0000     0.0000     0.0000     0.0000     0.0000     0.0000     0.0000     0.0000 </r>
        <r>     8.7200     0.0000     0.0000     0.0000     0.0000     0.0000     0.0000     0.0000     0.0000     0.0000 </r>
        <r>     8.8058     0.0000     0.0000     0.0000     0.0000     0.0000     0.0000     0.0000     0.0000     0.0000 </r>
       </set>
      </set>
     </set>
    </array>
   </partial>
  </dos>
  <projected>
   <eigenvalues>
    <array>
     <dimension dim="1">band</dimension>
     <dimension dim="2">kpoint</dimension>
     <dimension dim="3">spin</dimension>
     <field>eigene</field>
     <field>occ</field>
     <set>
      <set comment="spin 1">
       <set comment="kpoint 1">
        <r>  -15.7536    1.0000 </r>
        <r>   -0.1047    0.0000 </r>
        <r>    1.2723    0.0000 </r>
        <r>    1.2728    0.0000 </r>
        <r>    1.2911    0.0000 </r>
        <r>    1.3317    0.0000 </r>
        <r>    1.4528    0.0000 </r>
        <r>    1.4528    0.0000 </r>
        <r>    2.5721    0.0000 </r>
        <r>    2.5775    0.0000 </r>
        <r>    2.8093    0.0000 </r>
        <r>    2.8814    0.0000 </r>
        <r>    2.8839    0.0000 </r>
        <r>    2.8851    0.0000 </r>
        <r>    2.8852    0.0000 </r>
        <r>    2.8918    0.0000 </r>
        <r>    2.9165    0.0000 </r>
        <r>    2.9256    0.0000 </r>
        <r>    2.9659    0.0000 </r>
        <r>    3.0019    0.0000 </r>
        <r>    4.2415    0.0000 </r>
        <r>    4.2533    0.0000 </r>
        <r>    4.3729    0.0000 </r>
        <r>    4.3748    0.0000 </r>
        <r>    4.4090    0.0000 </r>
        <r>    4.4484    0.0000 </r>
        <r>    4.4825    0.0000 </r>
        <r>    4.5398    0.0000 </r>
        <r>    5.7403    0.0000 </r>
        <r>    5.8166    0.0000 </r>
        <r>    5.9117    0.0000 </r>
        <r>    5.9445    0.0000 </r>
        <r>    6.5067    0.0000 </r>
        <r>    7.2762    0.0000 </r>
        <r>    7.3108    0.0000 </r>
        <r>    7.6363    0.0000 </r>
       </set>
      </set>
      <set comment="spin 2">
       <set comment="kpoint 1">
        <r>  -15.7502    1.0000 </r>
        <r>   -0.1077    0.0000 </r>
        <r>    1.2691    0.0000 </r>
        <r>    1.2781    0.0000 </r>
        <r>    1.2808    0.0000 </r>
        <r>    1.3274    0.0000 </r>
        <r>    1.4513    0.0000 </r>
        <r>    1.4513    0.0000 </r>
        <r>    2.5500    0.0000 </r>
        <r>    2.5817    0.0000 </r>
        <r>    2.7257    0.0000 </r>
        <r>    2.8210    0.0000 </r>
        <r>    2.8888    0.0000 </r>
        <r>    2.8915    0.0000 </r>
        <r>    2.8955    0.0000 </r>
        <r>    2.8984    0.0000 </r>
        <r>    2.9606    0.0000 </r>
        <r>    2.9651    0.0000 </r>
        <r>    2.9662    0.0000 </r>
        <r>    3.0017    0.0000 </r>
        <r>    4.2298    0.0000 </r>
        <r>    4.2376    0.0000 </r>
        <r>    4.2530    0.0000 </r>
        <r>    4.3696    0.0000 </r>
        <r>    4.3729    0.0000 </r>
        <r>    4.3747    0.0000 </r>
        <r>    4.5108    0.0000 </r>
        <r>    5.0407    0.0000 </r>
        <r>    5.5293    0.0000 </r>
        <r>    5.7815    0.0000 </r>
        <r>    5.8407    0.0000 </r>
        <r>    6.0642    0.0000 </r>
        <r>    6.3078    0.0000 </r>
        <r>    6.8910    0.0000 </r>
        <r>    7.0645    0.0000 </r>
        <r>    7.3808    0.0000 </r>
       </set>
      </set>
     </set>
    </array>
   </eigenvalues>
   <array>
    <dimension dim="1">ion</dimension>
    <dimension dim="2">band</dimension>
    <dimension dim="3">kpoint</dimension>
    <dimension dim="4">spin</dimension>
    <field>    s</field>
    <field>   py</field>
    <field>   pz</field>
    <field>   px</field>
    <field>  dxy</field>
    <field>  dyz</field>
    <field>  dz2</field>
    <field>  dxz</field>
    <field>x2-y2</field>
    <set>
     <set comment="spin1">
      <set comment="kpoint 1">
       <set comment="band 1">
        <r>  0.6911  0.0000  0.0000  0.0000  0.0000  0.0000  0.0000  0.0000  0.0000 </r>
       </set>
       <set comment="band 2">
        <r>  0.0044  0.0000  0.0000  0.0000  0.0000  0.0000  0.0000  0.0000  0.0000 </r>
       </set>
       <set comment="band 3">
        <r>  0.0000  0.0004  0.0004  0.0000  0.0000  0.0000  0.0000  0.0000  0.0000 </r>
       </set>
       <set comment="band 4">
        <r>  0.0000  0.0004  0.0003  0.0001  0.0000  0.0000  0.0000  0.0000  0.0000 </r>
       </set>
       <set comment="band 5">
        <r>  0.0027  0.0000  0.0001  0.0006  0.0000  0.0000  0.0000  0.0000  0.0000 </r>
       </set>
       <set comment="band 6">
        <r>  0.0101  0.0000  0.0000  0.0001  0.0000  0.0000  0.0000  0.0000  0.0000 </r>
       </set>
       <set comment="band 7">
        <r>  0.0000  0.0000  0.0000  0.0000  0.0000  0.0000  0.0000  0.0000  0.0000 </r>
       </set>
       <set comment="band 8">
        <r>  0.0000  0.0000  0.0000  0.0000  0.0000  0.0000  0.0000  0.0000  0.0000 </r>
       </set>
       <set comment="band 9">
        <r>  0.0000  0.0014  0.0000  0.0004  0.0000  0.0000  0.0000  0.0000  0.0000 </r>
       </set>
       <set comment="band 10">
        <r>  0.0001  0.0003  0.0010  0.0006  0.0000  0.0000  0.0000  0.0000  0.0000 </r>
       </set>
       <set comment="band 11">
        <r>  0.0005  0.0001  0.0004  0.0002  0.0000  0.0000  0.0000  0.0000  0.0000 </r>
       </set>
       <set comment="band 12">
        <r>  0.0001  0.0000  0.0002  0.0003  0.0000  0.0000  0.0000  0.0000  0.0000 </r>
       </set>
       <set comment="band 13">
        <r>  0.0000  0.0000  0.0001  0.0000  0.0000  0.0000  0.0000  0.0000  0.0000 </r>
       </set>
       <set comment="band 14">
        <r>  0.0001  0.0000  0.0001  0.0000  0.0000  0.0000  0.0000  0.0000  0.0000 </r>
       </set>
       <set comment="band 15">
        <r>  0.0063  0.0001  0.0002  0.0001  0.0000  0.0000  0.0000  0.0000  0.0000 </r>
       </set>
       <set comment="band 16">
        <r>  0.0000  0.0000  0.0000  0.0001  0.0000  0.0000  0.0000  0.0000  0.0000 </r>
       </set>
       <set comment="band 17">
        <r>  0.0000  0.0000  0.0001  0.0000  0.0000  0.0000  0.0000  0.0000  0.0000 </r>
       </set>
       <set comment="band 18">
        <r>  0.0074  0.0000  0.0001  0.0000  0.0000  0.0000  0.0000  0.0000  0.0000 </r>
       </set>
       <set comment="band 19">
        <r>  0.0001  0.0000  0.0000  0.0000  0.0000  0.0000  0.0000  0.0000  0.0000 </r>
       </set>
       <set comment="band 20">
        <r>  0.0001  0.0000  0.0001  0.0000  0.0000  0.0000  0.0000  0.0000  0.0000 </r>
       </set>
       <set comment="band 21">
        <r>  0.0000  0.0000  0.0001  0.0018  0.0000  0.0000  0.0000  0.0000  0.0000 </r>
       </set>
       <set comment="band 22">
        <r>  0.0003  0.0000  0.0013  0.0000  0.0000  0.0000  0.0000  0.0000  0.0000 </r>
       </set>
       <set comment="band 23">
        <r>  0.0000  0.0000  0.0000  0.0000  0.0000  0.0000  0.0000  0.0000  0.0000 </r>
       </set>
       <set comment="band 24">
        <r>  0.0000  0.0000  0.0000  0.0000  0.0000  0.0000  0.0000  0.0000  0.0000 </r>
       </set>
       <set comment="band 25">
        <r>  0.0014  0.0000  0.0000  0.0000  0.0000  0.0000  0.0000  0.0000  0.0000 </r>
       </set>
       <set comment="band 26">
        <r>  0.0002  0.0012  0.0000  0.0001  0.0000  0.0000  0.0000  0.0000  0.0000 </r>
       </set>
       <set comment="band 27">
        <r>  0.0053  0.0000  0.0001  0.0000  0.0000  0.0000  0.0000  0.0000  0.0000 </r>
       </set>
       <set comment="band 28">
        <r>  0.0002  0.0000  0.0000  0.0001  0.0000  0.0000  0.0000  0.0000  0.0000 </r>
       </set>
       <set comment="band 29">
        <r>  0.0009  0.0001  0.0000  0.0000  0.0000  0.0000  0.0000  0.0000  0.0000 </r>
       </set>
       <set comment="band 30">
        <r>  0.0002  0.0000  0.0000  0.0001  0.0000  0.0000  0.0000  0.0000  0.0000 </r>
       </set>
       <set comment="band 31">
        <r>  0.0000  0.0016  0.0003  0.0002  0.0000  0.0000  0.0000  0.0000  0.0000 </r>
       </set>
       <set comment="band 32">
        <r>  0.0024  0.0003  0.0000  0.0001  0.0000  0.0000  0.0000  0.0000  0.0000 </r>
       </set>
       <set comment="band 33">
        <r>  0.0000  0.0000  0.0001  0.0006  0.0000  0.0000  0.0000  0.0000  0.0000 </r>
       </set>
       <set comment="band 34">
        <r>  0.0003  0.0002  0.0002  0.0000  0.0000  0.0000  0.0000  0.0000  0.0000 </r>
       </set>
       <set comment="band 35">
        <r>  0.0001  0.0001  0.0002  0.0000  0.0000  0.0000  0.0000  0.0000  0.0000 </r>
       </set>
       <set comment="band 36">
        <r>  0.0047  0.0000  0.0000  0.0001  0.0000  0.0000  0.0000  0.0000  0.0000 </r>
       </set>
      </set>
     </set>
     <set comment="spin2">
      <set comment="kpoint 1">
       <set comment="band 1">
        <r>  0.6907  0.0000  0.0000  0.0000  0.0000  0.0000  0.0000  0.0000  0.0000 </r>
       </set>
       <set comment="band 2">
        <r>  0.0044  0.0000  0.0000  0.0000  0.0000  0.0000  0.0000  0.0000  0.0000 </r>
       </set>
       <set comment="band 3">
        <r>  0.0001  0.0000  0.0008  0.0000  0.0000  0.0000  0.0000  0.0000  0.0000 </r>
       </set>
       <set comment="band 4">
        <r>  0.0006  0.0005  0.0000  0.0002  0.0000  0.0000  0.0000  0.0000  0.0000 </r>
       </set>
       <set comment="band 5">
        <r>  0.0017  0.0002  0.0000  0.0005  0.0000  0.0000  0.0000  0.0000  0.0000 </r>
       </set>
       <set comment="band 6">
        <r>  0.0102  0.0000  0.0000  0.0002  0.0000  0.0000  0.0000  0.0000  0.0000 </r>
       </set>
       <set comment="band 7">
        <r>  0.0000  0.0000  0.0000  0.0000  0.0000  0.0000  0.0000  0.0000  0.0000 </r>
       </set>
       <set comment="band 8">
        <r>  0.0000  0.0000  0.0000  0.0000  0.0000  0.0000  0.0000  0.0000  0.0000 </r>
       </set>
       <set comment="band 9">
        <r>  0.0000  0.0001  0.0019  0.0001  0.0000  0.0000  0.0000  0.0000  0.0000 </r>
       </set>
       <set comment="band 10">
        <r>  0.0000  0.0000  0.0001  0.0018  0.0000  0.0000  0.0000  0.0000  0.0000 </r>
       </set>
       <set comment="band 11">
        <r>  0.0005  0.0012  0.0000  0.0000  0.0000  0.0000  0.0000  0.0000  0.0000 </r>
       </set>
       <set comment="band 12">
        <r>  0.0008  0.0006  0.0001  0.0000  0.0000  0.0000  0.0000  0.0000  0.0000 </r>
       </set>
       <set comment="band 13">
        <r>  0.0000  0.0001  0.0000  0.0000  0.0000  0.0000  0.0000  0.0000  0.0000 </r>
       </set>
       <set comment="band 14">
        <r>  0.0000  0.0000  0.0000  0.0000  0.0000  0.0000  0.0000  0.0000  0.0000 </r>
       </set>
       <set comment="band 15">
        <r>  0.0001  0.0003  0.0000  0.0000  0.0000  0.0000  0.0000  0.0000  0.0000 </r>
       </set>
       <set comment="band 16">
        <r>  0.0000  0.0001  0.0000  0.0000  0.0000  0.0000  0.0000  0.0000  0.0000 </r>
       </set>
       <set comment="band 17">
        <r>  0.0000  0.0000  0.0000  0.0001  0.0000  0.0000  0.0000  0.0000  0.0000 </r>
       </set>
       <set comment="band 18">
        <r>  0.0001  0.0001  0.0000  0.0000  0.0000  0.0000  0.0000  0.0000  0.0000 </r>
       </set>
       <set comment="band 19">
        <r>  0.0128  0.0000  0.0000  0.0000  0.0000  0.0000  0.0000  0.0000  0.0000 </r>
       </set>
       <set comment="band 20">
        <r>  0.0000  0.0000  0.0000  0.0000  0.0000  0.0000  0.0000  0.0000  0.0000 </r>
       </set>
       <set comment="band 21">
        <r>  0.0001  0.0008  0.0005  0.0001  0.0000  0.0000  0.0000  0.0000  0.0000 </r>
       </set>
       <set comment="band 22">
        <r>  0.0002  0.0000  0.0001  0.0014  0.0000  0.0000  0.0000  0.0000  0.0000 </r>
       </set>
       <set comment="band 23">
        <r>  0.0003  0.0005  0.0009  0.0000  0.0000  0.0000  0.0000  0.0000  0.0000 </r>
       </set>
       <set comment="band 24">
        <r>  0.0004  0.0000  0.0000  0.0000  0.0000  0.0000  0.0000  0.0000  0.0000 </r>
       </set>
       <set comment="band 25">
        <r>  0.0000  0.0000  0.0000  0.0000  0.0000  0.0000  0.0000  0.0000  0.0000 </r>
       </set>
       <set comment="band 26">
        <r>  0.0002  0.0000  0.0000  0.0000  0.0000  0.0000  0.0000  0.0000  0.0000 </r>
       </set>
       <set comment="band 27">
        <r>  0.0064  0.0001  0.0000  0.0001  0.0000  0.0000  0.0000  0.0000  0.0000 </r>
       </set>
       <set comment="band 28">
        <r>  0.0000  0.0001  0.0000  0.0001  0.0000  0.0000  0.0000  0.0000  0.0000 </r>
       </set>
       <set comment="band 29">
        <r>  0.0017  0.0000  0.0000  0.0004  0.0000  0.0000  0.0000  0.0000  0.0000 </r>
       </set>
       <set comment="band 30">
        <r>  0.0001  0.0000  0.0000  0.0000  0.0000  0.0000  0.0000  0.0000  0.0000 </r>
       </set>
       <set comment="band 31">
        <r>  0.0025  0.0000  0.0000  0.0001  0.0000  0.0000  0.0000  0.0000  0.0000 </r>
       </set>
       <set comment="band 32">
        <r>  0.0000  0.0015  0.0001  0.0000  0.0000  0.0000  0.0000  0.0000  0.0000 </r>
       </set>
       <set comment="band 33">
        <r>  0.0002  0.0003  0.0001  0.0008  0.0000  0.0000  0.0000  0.0000  0.0000 </r>
       </set>
       <set comment="band 34">
        <r>  0.0008  0.0000  0.0004  0.0000  0.0000  0.0000  0.0000  0.0000  0.0000 </r>
       </set>
       <set comment="band 35">
        <r>  0.0000  0.0002  0.0004  0.0000  0.0000  0.0000  0.0000  0.0000  0.0000 </r>
       </set>
       <set comment="band 36">
        <r>  0.0000  0.0001  0.0003  0.0000  0.0000  0.0000  0.0000  0.0000  0.0000 </r>
       </set>
      </set>
     </set>
    </set>
   </array>
  </projected>
 </calculation>
 <structure name="finalpos" >
  <crystal>
   <varray name="basis" >
    <v>      10.00000000       0.00000000       0.00000000 </v>
    <v>       0.00000000      10.00000000       0.00000000 </v>
    <v>       0.00000000       0.00000000      10.00000000 </v>
   </varray>
   <i name="volume">   1000.00000000 </i>
   <varray name="rec_basis" >
    <v>       0.10000000       0.00000000       0.00000000 </v>
    <v>       0.00000000       0.10000000       0.00000000 </v>
    <v>       0.00000000       0.00000000       0.10000000 </v>
   </varray>
  </crystal>
  <varray name="positions" >
   <v>       0.50000000       0.50000000       0.50000000 </v>
  </varray>
 </structure>
</modeling>
