       N       E                     dE             d eps       ncg     rms          ort
DAV:   1     0.113139286276E+03    0.11314E+03   -0.27469E+03    36   0.194E+02
DAV:   2     0.901474674505E+02   -0.22992E+02   -0.22975E+02    36   0.210E+01
DAV:   3     0.243883357025E+02   -0.65759E+02   -0.65561E+02    36   0.296E+01
DAV:   4     0.247244113691E+01   -0.21916E+02   -0.21914E+02    36   0.340E+01
DAV:   5     0.209840567905E+00   -0.22626E+01   -0.22619E+01    36   0.901E+00
SDA:   6     0.151701446992E+00   -0.58139E-01   -0.60760E+00    36   0.152E+01 0.000E+00
DMP:   7    -0.121983105056E+00   -0.27368E+00   -0.13658E+00    36   0.405E+00-0.166E+00
DMP:   8    -0.210768287969E+00   -0.88785E-01   -0.89092E-01    36   0.188E+00 0.916E-01
DMP:   9    -0.242291414046E+00   -0.31523E-01   -0.96070E-02    36   0.442E-01-0.529E-01
DMP:  10    -0.247070916116E+00   -0.47795E-02   -0.12479E-01    36   0.296E-01 0.424E-02
DMP:  11    -0.254014901806E+00   -0.69440E-02   -0.28000E-02    36   0.572E-02 0.334E-02
DMP:  12    -0.255775266230E+00   -0.17604E-02   -0.20977E-02    36   0.458E-02 0.173E-02
DMP:  13    -0.257177148624E+00   -0.14019E-02   -0.65138E-03    36   0.964E-03 0.174E-02
DMP:  14    -0.257580588659E+00   -0.40344E-03   -0.34192E-03    36   0.710E-03 0.378E-03
DMP:  15    -0.257854876735E+00   -0.27429E-03   -0.20697E-03    36   0.323E-03 0.509E-03
DMP:  16    -0.258008152739E+00   -0.15328E-03   -0.89961E-04    36   0.132E-03 0.243E-03
DMP:  17    -0.258081013127E+00   -0.72860E-04   -0.52170E-04    36   0.789E-04 0.135E-03
DMP:  18    -0.258123609407E+00   -0.42596E-04   -0.25628E-04    36   0.337E-04 0.795E-04
   1 F= -.25812361E+00 E0= -.25812361E+00  d E =-.258124E+00  mag=     1.0000
