<?xml version="1.0" encoding="ISO-8859-1"?>
<modeling>
 <generator>
  <i name="program" type="string">vasp </i>
  <i name="version" type="string">5.4.4.18Apr17-6-g9f103f2a35  </i>
  <i name="subversion" type="string">(build Nov 08 2019 15:19:53) gamma-only         parallel </i>
  <i name="platform" type="string">LinuxIFC </i>
  <i name="date" type="string">2020 11 30 </i>
  <i name="time" type="string">09:30:44 </i>
 </generator>
 <incar>
  <i type="string" name="PREC">accurate</i>
  <i type="string" name="ALGO"> D</i>
  <i type="int" name="ISPIN">     2</i>
  <i type="int" name="NELM">   300</i>
  <i type="int" name="IBRION">     2</i>
  <i name="EDIFF">      0.00005000</i>
  <i type="int" name="NSW">    99</i>
  <i type="int" name="ISIF">     2</i>
  <i name="ENCUT">    520.00000000</i>
  <v name="MAGMOM">      0.60000000</v>
  <i type="string" name="LREAL"> Auto</i>
  <i type="int" name="ISMEAR">     0</i>
  <i name="SIGMA">      0.05000000</i>
  <i type="logical" name="LWAVE"> F  </i>
  <i type="int" name="LORBIT">    11</i>
  <i type="logical" name="LASPH"> T  </i>
  <v type="int" name="KPOINT_BSE">    -1     0     0     0</v>
  <i type="int" name="NELM">   300</i>
  <i type="logical" name="LASPH"> T  </i>
 </incar>
 <structure name="primitive_cell" >
  <crystal>
   <varray name="basis" >
    <v>      10.00000000       0.00000000       0.00000000 </v>
    <v>       0.00000000      10.00000000       0.00000000 </v>
    <v>       0.00000000       0.00000000      10.00000000 </v>
   </varray>
   <i name="volume">   1000.00000000 </i>
   <varray name="rec_basis" >
    <v>       0.10000000       0.00000000       0.00000000 </v>
    <v>       0.00000000       0.10000000       0.00000000 </v>
    <v>       0.00000000       0.00000000       0.10000000 </v>
   </varray>
  </crystal>
  <varray name="positions" >
   <v>      -0.50000000      -0.50000000      -0.50000000 </v>
  </varray>
 </structure>
 <varray name="primitive_index" >
  <v type="int" >        1 </v>
 </varray>
 <kpoints>
  <generation param="Gamma">
   <v type="int" name="divisions">       1        1        1 </v>
   <v name="usershift">      0.00000000       0.00000000       0.00000000 </v>
   <v name="genvec1">      1.00000000       0.00000000       0.00000000 </v>
   <v name="genvec2">      0.00000000       1.00000000       0.00000000 </v>
   <v name="genvec3">      0.00000000       0.00000000       1.00000000 </v>
   <v name="shift">      0.00000000       0.00000000       0.00000000 </v>
  </generation>
  <varray name="kpointlist" >
   <v>       0.00000000       0.00000000       0.00000000 </v>
  </varray>
  <varray name="weights" >
   <v>       1.00000000 </v>
  </varray>
 </kpoints>
 <parameters>
  <separator name="general" >
   <i type="string" name="SYSTEM">unknown system</i>
   <i type="logical" name="LCOMPAT"> F  </i>
  </separator>
  <separator name="electronic" >
   <i type="string" name="PREC">accura</i>
   <i name="ENMAX">    520.00000000</i>
   <i name="ENAUG">    423.86100000</i>
   <i name="EDIFF">      0.00005000</i>
   <i type="int" name="IALGO">    53</i>
   <i type="int" name="IWAVPR">    11</i>
   <i type="int" name="NBANDS">    36</i>
   <i name="NELECT">      9.00000000</i>
   <i type="int" name="TURBO">     0</i>
   <i type="int" name="IRESTART">     0</i>
   <i type="int" name="NREBOOT">     0</i>
   <i type="int" name="NMIN">     0</i>
   <i name="EREF">      0.00000000</i>
   <separator name="electronic smearing" >
    <i type="int" name="ISMEAR">     0</i>
    <i name="SIGMA">      0.05000000</i>
    <i name="KSPACING">      0.50000000</i>
    <i type="logical" name="KGAMMA"> T  </i>
   </separator>
   <separator name="electronic projectors" >
    <i type="logical" name="LREAL"> T  </i>
    <v name="ROPT">     -0.00025000</v>
    <i type="int" name="LMAXPAW">  -100</i>
    <i type="int" name="LMAXMIX">     2</i>
    <i type="logical" name="NLSPLINE"> F  </i>
   </separator>
   <separator name="electronic startup" >
    <i type="int" name="ISTART">     0</i>
    <i type="int" name="ICHARG">     2</i>
    <i type="int" name="INIWAV">     1</i>
   </separator>
   <separator name="electronic spin" >
    <i type="int" name="ISPIN">     2</i>
    <i type="logical" name="LNONCOLLINEAR"> F  </i>
    <v name="MAGMOM">      0.60000000</v>
    <i name="NUPDOWN">     -1.00000000</i>
    <i type="logical" name="LSORBIT"> F  </i>
    <v name="SAXIS">      0.00000000      0.00000000      1.00000000</v>
    <i type="logical" name="LSPIRAL"> F  </i>
    <v name="QSPIRAL">      0.00000000      0.00000000      0.00000000</v>
    <i type="logical" name="LZEROZ"> F  </i>
   </separator>
   <separator name="electronic exchange-correlation" >
    <i type="logical" name="LASPH"> T  </i>
    <i type="logical" name="LMETAGGA"> F  </i>
   </separator>
   <separator name="electronic convergence" >
    <i type="int" name="NELM">   300</i>
    <i type="int" name="NELMDL">    -5</i>
    <i type="int" name="NELMIN">     2</i>
    <i name="ENINI">    520.00000000</i>
    <separator name="electronic convergence detail" >
     <i type="logical" name="LDIAG"> T  </i>
     <i type="logical" name="LSUBROT"> F  </i>
     <i name="WEIMIN">      0.00100000</i>
     <i name="EBREAK">      0.00000035</i>
     <i name="DEPER">      0.30000000</i>
     <i type="int" name="NRMM">     4</i>
     <i name="TIME">      0.40000000</i>
    </separator>
   </separator>
   <separator name="electronic mixer" >
    <i name="AMIX">      0.40000000</i>
    <i name="BMIX">      1.00000000</i>
    <i name="AMIN">      0.10000000</i>
    <i name="AMIX_MAG">      1.60000000</i>
    <i name="BMIX_MAG">      1.00000000</i>
    <separator name="electronic mixer details" >
     <i type="int" name="IMIX">     4</i>
     <i type="logical" name="MIXFIRST"> F  </i>
     <i type="int" name="MAXMIX">   -45</i>
     <i name="WC">    100.00000000</i>
     <i type="int" name="INIMIX">     1</i>
     <i type="int" name="MIXPRE">     1</i>
     <i type="int" name="MREMOVE">     5</i>
    </separator>
   </separator>
   <separator name="electronic dipolcorrection" >
    <i type="logical" name="LDIPOL"> F  </i>
    <i type="logical" name="LMONO"> F  </i>
    <i type="int" name="IDIPOL">     0</i>
    <i name="EPSILON">      1.00000000</i>
    <v name="DIPOL">   -100.00000000   -100.00000000   -100.00000000</v>
    <i name="EFIELD">      0.00000000</i>
   </separator>
  </separator>
  <separator name="grids" >
   <i type="int" name="NGX">    80</i>
   <i type="int" name="NGY">    80</i>
   <i type="int" name="NGZ">    80</i>
   <i type="int" name="NGXF">   160</i>
   <i type="int" name="NGYF">   160</i>
   <i type="int" name="NGZF">   160</i>
   <i type="logical" name="ADDGRID"> F  </i>
  </separator>
  <separator name="ionic" >
   <i type="int" name="NSW">    99</i>
   <i type="int" name="IBRION">     2</i>
   <i type="int" name="MDALGO">     0</i>
   <i type="int" name="ISIF">     2</i>
   <i name="PSTRESS">      0.00000000</i>
   <i name="EDIFFG">      0.00050000</i>
   <i type="int" name="NFREE">     1</i>
   <i name="POTIM">      0.50000000</i>
   <i name="SMASS">     -3.00000000</i>
   <i name="SCALEE">      1.00000000</i>
  </separator>
  <separator name="ionic md" >
   <i name="TEBEG">      0.00010000</i>
   <i name="TEEND">      0.00010000</i>
   <i type="int" name="NBLOCK">     1</i>
   <i type="int" name="KBLOCK">    99</i>
   <i type="int" name="NPACO">   256</i>
   <i name="APACO">     16.00000000</i>
  </separator>
  <separator name="symmetry" >
   <i type="int" name="ISYM">     2</i>
   <i name="SYMPREC">      0.00001000</i>
  </separator>
  <separator name="dos" >
   <i type="int" name="LORBIT">    11</i>
   <v name="RWIGS">     -1.00000000</v>
   <i type="int" name="NEDOS">   301</i>
   <i name="EMIN">     10.00000000</i>
   <i name="EMAX">    -10.00000000</i>
   <i name="EFERMI">      0.00000000</i>
  </separator>
  <separator name="writing" >
   <i type="int" name="NWRITE">     2</i>
   <i type="logical" name="LWAVE"> F  </i>
   <i type="logical" name="LDOWNSAMPLE"> F  </i>
   <i type="logical" name="LCHARG"> T  </i>
   <i type="logical" name="LPARD"> F  </i>
   <i type="logical" name="LVTOT"> F  </i>
   <i type="logical" name="LVHAR"> F  </i>
   <i type="logical" name="LELF"> F  </i>
   <i type="logical" name="LOPTICS"> F  </i>
   <v name="STM">      0.00000000      0.00000000      0.00000000      0.00000000      0.00000000      0.00000000      0.00000000</v>
  </separator>
  <separator name="performance" >
   <i type="int" name="NPAR">    36</i>
   <i type="int" name="NSIM">     4</i>
   <i type="int" name="NBLK">    -1</i>
   <i type="logical" name="LPLANE"> T  </i>
   <i type="logical" name="LSCALAPACK"> T  </i>
   <i type="logical" name="LSCAAWARE"> F  </i>
   <i type="logical" name="LSCALU"> F  </i>
   <i type="logical" name="LASYNC"> F  </i>
   <i type="logical" name="LORBITALREAL"> F  </i>
  </separator>
  <separator name="miscellaneous" >
   <i type="int" name="IDIOT">     3</i>
   <i type="int" name="ISPECIAL">     0</i>
   <i type="logical" name="LMUSIC"> F  </i>
   <v name="POMASS">     85.46800000</v>
   <v name="DARWINR">      0.00000000</v>
   <v name="DARWINV">      1.00000000</v>
   <i type="logical" name="LCORR"> T  </i>
  </separator>
  <i type="logical" name="GGA_COMPAT"> T  </i>
  <i type="logical" name="LBERRY"> F  </i>
  <i type="int" name="ICORELEVEL">     0</i>
  <i type="logical" name="LDAU"> F  </i>
  <i type="int" name="I_CONSTRAINED_M">     0</i>
  <separator name="electronic exchange-correlation" >
   <i type="string" name="GGA">--</i>
   <i type="int" name="VOSKOWN">     0</i>
   <i type="logical" name="LHFCALC"> F  </i>
   <i type="string" name="PRECFOCK"></i>
   <i type="logical" name="LSYMGRAD"> F  </i>
   <i type="logical" name="LHFONE"> F  </i>
   <i type="logical" name="LRHFCALC"> F  </i>
   <i type="logical" name="LTHOMAS"> F  </i>
   <i type="logical" name="LMODELHF"> F  </i>
   <i name="ENCUT4O">     -1.00000000</i>
   <i type="int" name="EXXOEP">     0</i>
   <i type="int" name="FOURORBIT">     0</i>
   <i name="AEXX">      0.00000000</i>
   <i name="HFALPHA">      0.00000000</i>
   <i name="MCALPHA">      0.00000000</i>
   <i name="ALDAX">      1.00000000</i>
   <i name="AGGAX">      1.00000000</i>
   <i name="ALDAC">      1.00000000</i>
   <i name="AGGAC">      1.00000000</i>
   <i type="int" name="NKREDX">     1</i>
   <i type="int" name="NKREDY">     1</i>
   <i type="int" name="NKREDZ">     1</i>
   <i type="logical" name="SHIFTRED"> F  </i>
   <i type="logical" name="ODDONLY"> F  </i>
   <i type="logical" name="EVENONLY"> F  </i>
   <i type="int" name="LMAXFOCK">     0</i>
   <i type="int" name="NMAXFOCKAE">     0</i>
   <i type="logical" name="LFOCKAEDFT"> F  </i>
   <i name="HFSCREEN">      0.00000000</i>
   <i name="HFSCREENC">      0.00000000</i>
   <i type="int" name="NBANDSGWLOW">     0</i>
  </separator>
  <separator name="vdW DFT" >
   <i type="logical" name="LUSE_VDW"> F  </i>
   <i name="Zab_VDW">     -0.84910000</i>
   <i name="PARAM1">      0.12340000</i>
   <i name="PARAM2">      1.00000000</i>
   <i name="PARAM3">      0.00000000</i>
  </separator>
  <separator name="model GW" >
   <i type="int" name="MODEL_GW">     0</i>
   <i name="MODEL_EPS0">    600.00000000</i>
   <i name="MODEL_ALPHA">      1.00000000</i>
  </separator>
  <separator name="linear response parameters" >
   <i type="logical" name="LEPSILON"> F  </i>
   <i type="logical" name="LRPA"> F  </i>
   <i type="logical" name="LNABLA"> F  </i>
   <i type="logical" name="LVEL"> F  </i>
   <i type="int" name="KINTER">     0</i>
   <i name="CSHIFT">      0.10000000</i>
   <i name="OMEGAMAX">     -1.00000000</i>
   <i name="DEG_THRESHOLD">      0.00200000</i>
   <i name="RTIME">     -0.10000000</i>
   <i name="WPLASMAI">      0.00000000</i>
   <v name="DFIELD">      0.00000000      0.00000000      0.00000000</v>
   <v name="WPLASMA">      0.00000000      0.00000000      0.00000000      0.00000000      0.00000000      0.00000000      0.00000000      0.00000000      0.00000000</v>
  </separator>
  <separator name="orbital magnetization" >
   <i type="logical" name="NUCIND"> F  </i>
   <v name="MAGPOS">      0.00000000      0.00000000      0.00000000</v>
   <i type="logical" name="LNICSALL"> T  </i>
   <i type="logical" name="ORBITALMAG"> F  </i>
   <i type="logical" name="LMAGBLOCH"> F  </i>
   <i type="logical" name="LCHIMAG"> F  </i>
   <i type="logical" name="LGAUGE"> T  </i>
   <i type="int" name="MAGATOM">     0</i>
   <v name="MAGDIPOL">      0.00000000      0.00000000      0.00000000</v>
   <v name="AVECCONST">      0.00000000      0.00000000      0.00000000</v>
  </separator>
  <separator name="response functions" >
   <i type="logical" name="LADDER"> F  </i>
   <i type="logical" name="LRPAFORCE"> F  </i>
   <i type="logical" name="LFXC"> F  </i>
   <i type="logical" name="LHARTREE"> T  </i>
   <i type="int" name="IBSE">     0</i>
   <v type="int" name="KPOINT">    -1     0     0     0</v>
   <i type="logical" name="LTCTE"> F  </i>
   <i type="logical" name="LTETE"> F  </i>
   <i type="logical" name="LTRIPLET"> F  </i>
   <i type="logical" name="LFXCEPS"> F  </i>
   <i type="logical" name="LFXHEG"> F  </i>
   <i type="int" name="NATURALO">     2</i>
   <i type="logical" name="L2ORDER"> F  </i>
   <i type="logical" name="LMP2LT"> F  </i>
   <i type="logical" name="LUSEW"> F  </i>
   <i name="ENCUTGW">     -2.00000000</i>
   <i name="ENCUTGWSOFT">     -2.00000000</i>
   <i name="ENCUTLF">     -1.00000000</i>
   <i type="int" name="LMAXMP2">    -1</i>
   <i name="SCISSOR">      0.00000000</i>
   <i type="int" name="NOMEGA">     0</i>
   <i type="int" name="NOMEGAR">     0</i>
   <i type="int" name="NBANDSGW">    -1</i>
   <i type="int" name="NBANDSO">    -1</i>
   <i type="int" name="NBANDSV">    -1</i>
   <i type="int" name="NELM">   300</i>
   <i type="int" name="NELMHF">     1</i>
   <i type="int" name="DIM">     3</i>
   <i type="int" name="ANTIRES">     0</i>
   <i name="OMEGAMAX">    -30.00000000</i>
   <i name="OMEGAMIN">    -30.00000000</i>
   <i name="OMEGATL">   -200.00000000</i>
   <i type="int" name="OMEGAGRID">   140</i>
   <i name="CSHIFT">     -0.10000000</i>
   <i type="logical" name="SELFENERGY"> F  </i>
   <i type="logical" name="LSPECTRAL"> F  </i>
   <i type="logical" name="LSPECTRALGW"> F  </i>
   <i type="logical" name="LSINGLES"> F  </i>
   <i type="logical" name="LFERMIGW"> F  </i>
   <i type="logical" name="ODDONLYGW"> F  </i>
   <i type="logical" name="EVENONLYGW"> F  </i>
   <i type="int" name="NKREDLFX">     1</i>
   <i type="int" name="NKREDLFY">     1</i>
   <i type="int" name="NKREDLFZ">     1</i>
   <i type="int" name="MAXMEM">  2800</i>
   <i type="int" name="TELESCOPE">     0</i>
   <i type="int" name="TAUPAR">     1</i>
   <i type="int" name="OMEGAPAR">    -1</i>
   <i name="LAMBDA">      1.00000000</i>
  </separator>
  <separator name="External order field" >
   <i name="OFIELD_KAPPA">      0.00000000</i>
   <v name="OFIELD_K">      0.00000000      0.00000000      0.00000000</v>
   <i name="OFIELD_Q6_NEAR">      0.00000000</i>
   <i name="OFIELD_Q6_FAR">      0.00000000</i>
   <i name="OFIELD_A">      0.00000000</i>
  </separator>
 </parameters>
 <atominfo>
  <atoms>       1 </atoms>
  <types>       1 </types>
  <array name="atoms" >
   <dimension dim="1">ion</dimension>
   <field type="string">element</field>
   <field type="int">atomtype</field>
   <set>
    <rc><c>Rb</c><c>   1</c></rc>
   </set>
  </array>
  <array name="atomtypes" >
   <dimension dim="1">type</dimension>
   <field type="int">atomspertype</field>
   <field type="string">element</field>
   <field>mass</field>
   <field>valence</field>
   <field type="string">pseudopotential</field>
   <set>
    <rc><c>   1</c><c>Rb</c><c>     85.46800000</c><c>      9.00000000</c><c>  PAW_PBE Rb_sv 06Sep2000               </c></rc>
   </set>
  </array>
 </atominfo>
 <structure name="initialpos" >
  <crystal>
   <varray name="basis" >
    <v>      10.00000000       0.00000000       0.00000000 </v>
    <v>       0.00000000      10.00000000       0.00000000 </v>
    <v>       0.00000000       0.00000000      10.00000000 </v>
   </varray>
   <i name="volume">   1000.00000000 </i>
   <varray name="rec_basis" >
    <v>       0.10000000       0.00000000       0.00000000 </v>
    <v>       0.00000000       0.10000000       0.00000000 </v>
    <v>       0.00000000       0.00000000       0.10000000 </v>
   </varray>
  </crystal>
  <varray name="positions" >
   <v>       0.50000000       0.50000000       0.50000000 </v>
  </varray>
 </structure>
 <calculation>
  <scstep>
   <time name="total">    1.17    1.18</time>
   <energy>
    <i name="alphaZ">      1.56281220 </i>
    <i name="ewald">   -165.46874404 </i>
    <i name="hartreedc">   -372.15539572 </i>
    <i name="XCdc">     28.08443253 </i>
    <i name="pawpsdc">    505.09660846 </i>
    <i name="pawaedc">   -500.57238979 </i>
    <i name="eentropy">     -0.02820765 </i>
    <i name="bandstr">    -45.88265849 </i>
    <i name="atom">    662.50282877 </i>
    <i name="e_fr_energy">    113.13928628 </i>
    <i name="e_wo_entrp">    113.16749392 </i>
    <i name="e_0_energy">    113.15339010 </i>
   </energy>
  </scstep>
  <scstep>
   <time name="total">    0.60    0.60</time>
   <energy>
    <i name="e_fr_energy">     90.14746745 </i>
    <i name="e_wo_entrp">     90.16914671 </i>
    <i name="e_0_energy">     90.15830708 </i>
   </energy>
  </scstep>
  <scstep>
   <time name="total">    0.60    0.60</time>
   <energy>
    <i name="e_fr_energy">     24.38833570 </i>
    <i name="e_wo_entrp">     24.41570417 </i>
    <i name="e_0_energy">     24.40201993 </i>
   </energy>
  </scstep>
  <scstep>
   <time name="total">    0.60    0.61</time>
   <energy>
    <i name="e_fr_energy">      2.47244114 </i>
    <i name="e_wo_entrp">      2.49600880 </i>
    <i name="e_0_energy">      2.48422497 </i>
   </energy>
  </scstep>
  <scstep>
   <time name="total">    0.86    0.86</time>
   <energy>
    <i name="e_fr_energy">      0.20984057 </i>
    <i name="e_wo_entrp">      0.22944713 </i>
    <i name="e_0_energy">      0.21964385 </i>
   </energy>
  </scstep>
  <scstep>
   <time name="total">    1.17    1.18</time>
   <energy>
    <i name="e_fr_energy">      0.15170145 </i>
    <i name="e_wo_entrp">      0.16447030 </i>
    <i name="e_0_energy">      0.15808587 </i>
   </energy>
  </scstep>
  <scstep>
   <time name="total">    1.14    1.14</time>
   <energy>
    <i name="e_fr_energy">     -0.12198311 </i>
    <i name="e_wo_entrp">     -0.11795879 </i>
    <i name="e_0_energy">     -0.11997095 </i>
   </energy>
  </scstep>
  <scstep>
   <time name="total">    1.16    1.16</time>
   <energy>
    <i name="e_fr_energy">     -0.21076829 </i>
    <i name="e_wo_entrp">     -0.21055037 </i>
    <i name="e_0_energy">     -0.21065933 </i>
   </energy>
  </scstep>
  <scstep>
   <time name="total">    1.14    1.14</time>
   <energy>
    <i name="e_fr_energy">     -0.24229141 </i>
    <i name="e_wo_entrp">     -0.24229121 </i>
    <i name="e_0_energy">     -0.24229131 </i>
   </energy>
  </scstep>
  <scstep>
   <time name="total">    1.16    1.16</time>
   <energy>
    <i name="e_fr_energy">     -0.24707092 </i>
    <i name="e_wo_entrp">     -0.24707092 </i>
    <i name="e_0_energy">     -0.24707092 </i>
   </energy>
  </scstep>
  <scstep>
   <time name="total">    1.16    1.16</time>
   <energy>
    <i name="e_fr_energy">     -0.25401490 </i>
    <i name="e_wo_entrp">     -0.25401490 </i>
    <i name="e_0_energy">     -0.25401490 </i>
   </energy>
  </scstep>
  <scstep>
   <time name="total">    1.13    1.13</time>
   <energy>
    <i name="e_fr_energy">     -0.25577527 </i>
    <i name="e_wo_entrp">     -0.25577527 </i>
    <i name="e_0_energy">     -0.25577527 </i>
   </energy>
  </scstep>
  <scstep>
   <time name="total">    1.14    1.14</time>
   <energy>
    <i name="e_fr_energy">     -0.25717715 </i>
    <i name="e_wo_entrp">     -0.25717715 </i>
    <i name="e_0_energy">     -0.25717715 </i>
   </energy>
  </scstep>
  <scstep>
   <time name="total">    1.17    1.17</time>
   <energy>
    <i name="e_fr_energy">     -0.25758059 </i>
    <i name="e_wo_entrp">     -0.25758059 </i>
    <i name="e_0_energy">     -0.25758059 </i>
   </energy>
  </scstep>
  <scstep>
   <time name="total">    1.15    1.15</time>
   <energy>
    <i name="e_fr_energy">     -0.25785488 </i>
    <i name="e_wo_entrp">     -0.25785488 </i>
    <i name="e_0_energy">     -0.25785488 </i>
   </energy>
  </scstep>
  <scstep>
   <time name="total">    1.12    1.12</time>
   <energy>
    <i name="e_fr_energy">     -0.25800815 </i>
    <i name="e_wo_entrp">     -0.25800815 </i>
    <i name="e_0_energy">     -0.25800815 </i>
   </energy>
  </scstep>
  <scstep>
   <time name="total">    1.15    1.15</time>
   <energy>
    <i name="e_fr_energy">     -0.25808101 </i>
    <i name="e_wo_entrp">     -0.25808101 </i>
    <i name="e_0_energy">     -0.25808101 </i>
   </energy>
  </scstep>
  <scstep>
   <time name="total">    1.24    1.24</time>
   <energy>
    <i name="alphaZ">      1.56281220 </i>
    <i name="ewald">   -165.46874404 </i>
    <i name="hartreedc">   -370.90076867 </i>
    <i name="XCdc">     28.08177543 </i>
    <i name="pawpsdc">    501.07579687 </i>
    <i name="pawaedc">   -496.62076366 </i>
    <i name="eentropy">     -0.00000000 </i>
    <i name="bandstr">   -160.49106050 </i>
    <i name="atom">    662.50282877 </i>
    <i name="e_fr_energy">     -0.25812361 </i>
    <i name="e_wo_entrp">     -0.25812361 </i>
    <i name="e_0_energy">     -0.25812361 </i>
   </energy>
  </scstep>
  <structure>
   <crystal>
    <varray name="basis" >
     <v>      10.00000000       0.00000000       0.00000000 </v>
     <v>       0.00000000      10.00000000       0.00000000 </v>
     <v>       0.00000000       0.00000000      10.00000000 </v>
    </varray>
    <i name="volume">   1000.00000000 </i>
    <varray name="rec_basis" >
     <v>       0.10000000       0.00000000       0.00000000 </v>
     <v>       0.00000000       0.10000000       0.00000000 </v>
     <v>       0.00000000       0.00000000       0.10000000 </v>
    </varray>
   </crystal>
   <varray name="positions" >
    <v>       0.50000000       0.50000000       0.50000000 </v>
   </varray>
  </structure>
  <varray name="forces" >
   <v>       0.00000000       0.00000000       0.00000000 </v>
  </varray>
  <varray name="stress" >
   <v>      -0.36368698       0.00000000      -0.00000000 </v>
   <v>      -0.00000000      -0.36368698       0.00000000 </v>
   <v>       0.00000000       0.00000000      -0.36368698 </v>
  </varray>
  <energy>
   <i name="e_fr_energy">     -0.25812361 </i>
   <i name="e_wo_entrp">     -0.25812361 </i>
   <i name="e_0_energy">     -0.00000000 </i>
  </energy>
  <time name="totalsc">   27.68   27.93</time>
  <eigenvalues>
   <array>
    <dimension dim="1">band</dimension>
    <dimension dim="2">kpoint</dimension>
    <dimension dim="3">spin</dimension>
    <field>eigene</field>
    <field>occ</field>
    <set>
     <set comment="spin 1">
      <set comment="kpoint 1">
       <r>  -31.7469    1.0000 </r>
       <r>  -15.8323    1.0000 </r>
       <r>  -15.8323    1.0000 </r>
       <r>  -15.8323    1.0000 </r>
       <r>   -2.2968    1.0000 </r>
       <r>   -0.4010    0.0000 </r>
       <r>   -0.3958    0.0000 </r>
       <r>   -0.3957    0.0000 </r>
       <r>   -0.0813    0.0000 </r>
       <r>   -0.0800    0.0000 </r>
       <r>   -0.0024    0.0000 </r>
       <r>    0.4667    0.0000 </r>
       <r>    0.4677    0.0000 </r>
       <r>    0.4696    0.0000 </r>
       <r>    1.5932    0.0000 </r>
       <r>    1.6108    0.0000 </r>
       <r>    1.6174    0.0000 </r>
       <r>    1.6259    0.0000 </r>
       <r>    1.7439    0.0000 </r>
       <r>    1.7998    0.0000 </r>
       <r>    1.8555    0.0000 </r>
       <r>    1.8646    0.0000 </r>
       <r>    1.8916    0.0000 </r>
       <r>    2.5436    0.0000 </r>
       <r>    2.6007    0.0000 </r>
       <r>    2.6341    0.0000 </r>
       <r>    2.6671    0.0000 </r>
       <r>    2.6966    0.0000 </r>
       <r>    3.1188    0.0000 </r>
       <r>    3.5707    0.0000 </r>
       <r>    3.6076    0.0000 </r>
       <r>    3.7188    0.0000 </r>
       <r>    3.8904    0.0000 </r>
       <r>    3.8963    0.0000 </r>
       <r>    4.1905    0.0000 </r>
       <r>    4.7602    0.0000 </r>
      </set>
     </set>
     <set comment="spin 2">
      <set comment="kpoint 1">
       <r>  -31.7006    1.0000 </r>
       <r>  -15.7500    1.0000 </r>
       <r>  -15.7500    1.0000 </r>
       <r>  -15.7500    1.0000 </r>
       <r>   -1.3647    0.0000 </r>
       <r>    0.7864    0.0000 </r>
       <r>    0.7884    0.0000 </r>
       <r>    0.7945    0.0000 </r>
       <r>    1.1894    0.0000 </r>
       <r>    1.1969    0.0000 </r>
       <r>    1.2631    0.0000 </r>
       <r>    1.2880    0.0000 </r>
       <r>    1.2940    0.0000 </r>
       <r>    1.2982    0.0000 </r>
       <r>    2.8466    0.0000 </r>
       <r>    2.8469    0.0000 </r>
       <r>    2.8544    0.0000 </r>
       <r>    2.8595    0.0000 </r>
       <r>    2.8606    0.0000 </r>
       <r>    3.1825    0.0000 </r>
       <r>    3.6289    0.0000 </r>
       <r>    3.6337    0.0000 </r>
       <r>    3.6722    0.0000 </r>
       <r>    3.9040    0.0000 </r>
       <r>    3.9346    0.0000 </r>
       <r>    4.0164    0.0000 </r>
       <r>    4.1698    0.0000 </r>
       <r>    4.2065    0.0000 </r>
       <r>    4.4660    0.0000 </r>
       <r>    4.9471    0.0000 </r>
       <r>    4.9696    0.0000 </r>
       <r>    5.1038    0.0000 </r>
       <r>    5.1256    0.0000 </r>
       <r>    5.2706    0.0000 </r>
       <r>    6.2362    0.0000 </r>
       <r>    6.3878    0.0000 </r>
      </set>
     </set>
    </set>
   </array>
  </eigenvalues>
  <separator name="orbital magnetization" >
   <v name="MAGDIPOLOUT">      0.00000000      0.00000000      0.00000000</v>
  </separator>
  <dos>
   <i name="efermi">     -2.03518650 </i>
   <total>
    <array>
     <dimension dim="1">gridpoints</dimension>
     <dimension dim="2">spin</dimension>
     <field>energy</field>
     <field>total</field>
     <field>integrated</field>
     <set>
      <set comment="spin 1">
       <r>   -33.6536     0.0000     0.0000 </r>
       <r>   -33.5138     0.0000     0.0000 </r>
       <r>   -33.3739     0.0000     0.0000 </r>
       <r>   -33.2341     0.0000     0.0000 </r>
       <r>   -33.0943     0.0000     0.0000 </r>
       <r>   -32.9545     0.0000     0.0000 </r>
       <r>   -32.8146     0.0000     0.0000 </r>
       <r>   -32.6748     0.0000     0.0000 </r>
       <r>   -32.5350     0.0000     0.0000 </r>
       <r>   -32.3952     0.0000     0.0000 </r>
       <r>   -32.2553     0.0000     0.0000 </r>
       <r>   -32.1155     0.0000     0.0000 </r>
       <r>   -31.9757     0.0000     0.0000 </r>
       <r>   -31.8358     0.0424     0.0059 </r>
       <r>   -31.6960     6.5716     0.9248 </r>
       <r>   -31.5562     0.5378     1.0000 </r>
       <r>   -31.4164     0.0000     1.0000 </r>
       <r>   -31.2765     0.0000     1.0000 </r>
       <r>   -31.1367     0.0000     1.0000 </r>
       <r>   -30.9969     0.0000     1.0000 </r>
       <r>   -30.8571     0.0000     1.0000 </r>
       <r>   -30.7172     0.0000     1.0000 </r>
       <r>   -30.5774     0.0000     1.0000 </r>
       <r>   -30.4376     0.0000     1.0000 </r>
       <r>   -30.2977     0.0000     1.0000 </r>
       <r>   -30.1579     0.0000     1.0000 </r>
       <r>   -30.0181     0.0000     1.0000 </r>
       <r>   -29.8783     0.0000     1.0000 </r>
       <r>   -29.7384     0.0000     1.0000 </r>
       <r>   -29.5986     0.0000     1.0000 </r>
       <r>   -29.4588     0.0000     1.0000 </r>
       <r>   -29.3190     0.0000     1.0000 </r>
       <r>   -29.1791     0.0000     1.0000 </r>
       <r>   -29.0393     0.0000     1.0000 </r>
       <r>   -28.8995     0.0000     1.0000 </r>
       <r>   -28.7597     0.0000     1.0000 </r>
       <r>   -28.6198     0.0000     1.0000 </r>
       <r>   -28.4800     0.0000     1.0000 </r>
       <r>   -28.3402     0.0000     1.0000 </r>
       <r>   -28.2003     0.0000     1.0000 </r>
       <r>   -28.0605     0.0000     1.0000 </r>
       <r>   -27.9207     0.0000     1.0000 </r>
       <r>   -27.7809     0.0000     1.0000 </r>
       <r>   -27.6410     0.0000     1.0000 </r>
       <r>   -27.5012     0.0000     1.0000 </r>
       <r>   -27.3614     0.0000     1.0000 </r>
       <r>   -27.2216     0.0000     1.0000 </r>
       <r>   -27.0817     0.0000     1.0000 </r>
       <r>   -26.9419     0.0000     1.0000 </r>
       <r>   -26.8021     0.0000     1.0000 </r>
       <r>   -26.6622     0.0000     1.0000 </r>
       <r>   -26.5224     0.0000     1.0000 </r>
       <r>   -26.3826     0.0000     1.0000 </r>
       <r>   -26.2428     0.0000     1.0000 </r>
       <r>   -26.1029     0.0000     1.0000 </r>
       <r>   -25.9631     0.0000     1.0000 </r>
       <r>   -25.8233     0.0000     1.0000 </r>
       <r>   -25.6835     0.0000     1.0000 </r>
       <r>   -25.5436     0.0000     1.0000 </r>
       <r>   -25.4038     0.0000     1.0000 </r>
       <r>   -25.2640     0.0000     1.0000 </r>
       <r>   -25.1241     0.0000     1.0000 </r>
       <r>   -24.9843     0.0000     1.0000 </r>
       <r>   -24.8445     0.0000     1.0000 </r>
       <r>   -24.7047     0.0000     1.0000 </r>
       <r>   -24.5648     0.0000     1.0000 </r>
       <r>   -24.4250     0.0000     1.0000 </r>
       <r>   -24.2852     0.0000     1.0000 </r>
       <r>   -24.1454     0.0000     1.0000 </r>
       <r>   -24.0055     0.0000     1.0000 </r>
       <r>   -23.8657     0.0000     1.0000 </r>
       <r>   -23.7259     0.0000     1.0000 </r>
       <r>   -23.5860     0.0000     1.0000 </r>
       <r>   -23.4462     0.0000     1.0000 </r>
       <r>   -23.3064     0.0000     1.0000 </r>
       <r>   -23.1666     0.0000     1.0000 </r>
       <r>   -23.0267     0.0000     1.0000 </r>
       <r>   -22.8869     0.0000     1.0000 </r>
       <r>   -22.7471     0.0000     1.0000 </r>
       <r>   -22.6073     0.0000     1.0000 </r>
       <r>   -22.4674     0.0000     1.0000 </r>
       <r>   -22.3276     0.0000     1.0000 </r>
       <r>   -22.1878     0.0000     1.0000 </r>
       <r>   -22.0479     0.0000     1.0000 </r>
       <r>   -21.9081     0.0000     1.0000 </r>
       <r>   -21.7683     0.0000     1.0000 </r>
       <r>   -21.6285     0.0000     1.0000 </r>
       <r>   -21.4886     0.0000     1.0000 </r>
       <r>   -21.3488     0.0000     1.0000 </r>
       <r>   -21.2090     0.0000     1.0000 </r>
       <r>   -21.0692     0.0000     1.0000 </r>
       <r>   -20.9293     0.0000     1.0000 </r>
       <r>   -20.7895     0.0000     1.0000 </r>
       <r>   -20.6497     0.0000     1.0000 </r>
       <r>   -20.5098     0.0000     1.0000 </r>
       <r>   -20.3700     0.0000     1.0000 </r>
       <r>   -20.2302     0.0000     1.0000 </r>
       <r>   -20.0904     0.0000     1.0000 </r>
       <r>   -19.9505     0.0000     1.0000 </r>
       <r>   -19.8107     0.0000     1.0000 </r>
       <r>   -19.6709     0.0000     1.0000 </r>
       <r>   -19.5311     0.0000     1.0000 </r>
       <r>   -19.3912     0.0000     1.0000 </r>
       <r>   -19.2514     0.0000     1.0000 </r>
       <r>   -19.1116     0.0000     1.0000 </r>
       <r>   -18.9718     0.0000     1.0000 </r>
       <r>   -18.8319     0.0000     1.0000 </r>
       <r>   -18.6921     0.0000     1.0000 </r>
       <r>   -18.5523     0.0000     1.0000 </r>
       <r>   -18.4124     0.0000     1.0000 </r>
       <r>   -18.2726     0.0000     1.0000 </r>
       <r>   -18.1328     0.0000     1.0000 </r>
       <r>   -17.9930     0.0000     1.0000 </r>
       <r>   -17.8531     0.0000     1.0000 </r>
       <r>   -17.7133     0.0000     1.0000 </r>
       <r>   -17.5735     0.0000     1.0000 </r>
       <r>   -17.4337     0.0000     1.0000 </r>
       <r>   -17.2938     0.0000     1.0000 </r>
       <r>   -17.1540     0.0000     1.0000 </r>
       <r>   -17.0142     0.0000     1.0000 </r>
       <r>   -16.8743     0.0000     1.0000 </r>
       <r>   -16.7345     0.0000     1.0000 </r>
       <r>   -16.5947     0.0000     1.0000 </r>
       <r>   -16.4549     0.0000     1.0000 </r>
       <r>   -16.3150     0.0000     1.0000 </r>
       <r>   -16.1752     0.0000     1.0000 </r>
       <r>   -16.0354     0.0000     1.0000 </r>
       <r>   -15.8956     0.7875     1.1101 </r>
       <r>   -15.7557    20.3413     3.9544 </r>
       <r>   -15.6159     0.3263     4.0000 </r>
       <r>   -15.4761     0.0000     4.0000 </r>
       <r>   -15.3362     0.0000     4.0000 </r>
       <r>   -15.1964     0.0000     4.0000 </r>
       <r>   -15.0566     0.0000     4.0000 </r>
       <r>   -14.9168     0.0000     4.0000 </r>
       <r>   -14.7769     0.0000     4.0000 </r>
       <r>   -14.6371     0.0000     4.0000 </r>
       <r>   -14.4973     0.0000     4.0000 </r>
       <r>   -14.3575     0.0000     4.0000 </r>
       <r>   -14.2176     0.0000     4.0000 </r>
       <r>   -14.0778     0.0000     4.0000 </r>
       <r>   -13.9380     0.0000     4.0000 </r>
       <r>   -13.7981     0.0000     4.0000 </r>
       <r>   -13.6583     0.0000     4.0000 </r>
       <r>   -13.5185     0.0000     4.0000 </r>
       <r>   -13.3787     0.0000     4.0000 </r>
       <r>   -13.2388     0.0000     4.0000 </r>
       <r>   -13.0990     0.0000     4.0000 </r>
       <r>   -12.9592     0.0000     4.0000 </r>
       <r>   -12.8194     0.0000     4.0000 </r>
       <r>   -12.6795     0.0000     4.0000 </r>
       <r>   -12.5397     0.0000     4.0000 </r>
       <r>   -12.3999     0.0000     4.0000 </r>
       <r>   -12.2600     0.0000     4.0000 </r>
       <r>   -12.1202     0.0000     4.0000 </r>
       <r>   -11.9804     0.0000     4.0000 </r>
       <r>   -11.8406     0.0000     4.0000 </r>
       <r>   -11.7007     0.0000     4.0000 </r>
       <r>   -11.5609     0.0000     4.0000 </r>
       <r>   -11.4211     0.0000     4.0000 </r>
       <r>   -11.2813     0.0000     4.0000 </r>
       <r>   -11.1414     0.0000     4.0000 </r>
       <r>   -11.0016     0.0000     4.0000 </r>
       <r>   -10.8618     0.0000     4.0000 </r>
       <r>   -10.7219     0.0000     4.0000 </r>
       <r>   -10.5821     0.0000     4.0000 </r>
       <r>   -10.4423     0.0000     4.0000 </r>
       <r>   -10.3025     0.0000     4.0000 </r>
       <r>   -10.1626     0.0000     4.0000 </r>
       <r>   -10.0228     0.0000     4.0000 </r>
       <r>    -9.8830     0.0000     4.0000 </r>
       <r>    -9.7432     0.0000     4.0000 </r>
       <r>    -9.6033     0.0000     4.0000 </r>
       <r>    -9.4635     0.0000     4.0000 </r>
       <r>    -9.3237     0.0000     4.0000 </r>
       <r>    -9.1838     0.0000     4.0000 </r>
       <r>    -9.0440     0.0000     4.0000 </r>
       <r>    -8.9042     0.0000     4.0000 </r>
       <r>    -8.7644     0.0000     4.0000 </r>
       <r>    -8.6245     0.0000     4.0000 </r>
       <r>    -8.4847     0.0000     4.0000 </r>
       <r>    -8.3449     0.0000     4.0000 </r>
       <r>    -8.2051     0.0000     4.0000 </r>
       <r>    -8.0652     0.0000     4.0000 </r>
       <r>    -7.9254     0.0000     4.0000 </r>
       <r>    -7.7856     0.0000     4.0000 </r>
       <r>    -7.6458     0.0000     4.0000 </r>
       <r>    -7.5059     0.0000     4.0000 </r>
       <r>    -7.3661     0.0000     4.0000 </r>
       <r>    -7.2263     0.0000     4.0000 </r>
       <r>    -7.0864     0.0000     4.0000 </r>
       <r>    -6.9466     0.0000     4.0000 </r>
       <r>    -6.8068     0.0000     4.0000 </r>
       <r>    -6.6670     0.0000     4.0000 </r>
       <r>    -6.5271     0.0000     4.0000 </r>
       <r>    -6.3873     0.0000     4.0000 </r>
       <r>    -6.2475     0.0000     4.0000 </r>
       <r>    -6.1077     0.0000     4.0000 </r>
       <r>    -5.9678     0.0000     4.0000 </r>
       <r>    -5.8280     0.0000     4.0000 </r>
       <r>    -5.6882     0.0000     4.0000 </r>
       <r>    -5.5483     0.0000     4.0000 </r>
       <r>    -5.4085     0.0000     4.0000 </r>
       <r>    -5.2687     0.0000     4.0000 </r>
       <r>    -5.1289     0.0000     4.0000 </r>
       <r>    -4.9890     0.0000     4.0000 </r>
       <r>    -4.8492     0.0000     4.0000 </r>
       <r>    -4.7094     0.0000     4.0000 </r>
       <r>    -4.5696     0.0000     4.0000 </r>
       <r>    -4.4297     0.0000     4.0000 </r>
       <r>    -4.2899     0.0000     4.0000 </r>
       <r>    -4.1501     0.0000     4.0000 </r>
       <r>    -4.0102     0.0000     4.0000 </r>
       <r>    -3.8704     0.0000     4.0000 </r>
       <r>    -3.7306     0.0000     4.0000 </r>
       <r>    -3.5908     0.0000     4.0000 </r>
       <r>    -3.4509     0.0000     4.0000 </r>
       <r>    -3.3111     0.0000     4.0000 </r>
       <r>    -3.1713     0.0000     4.0000 </r>
       <r>    -3.0315     0.0000     4.0000 </r>
       <r>    -2.8916     0.0000     4.0000 </r>
       <r>    -2.7518     0.0000     4.0000 </r>
       <r>    -2.6120     0.0000     4.0000 </r>
       <r>    -2.4721     0.0000     4.0000 </r>
       <r>    -2.3323     1.1246     4.1573 </r>
       <r>    -2.1925     6.0157     4.9984 </r>
       <r>    -2.0527     0.0114     5.0000 </r>
       <r>    -1.9128     0.0000     5.0000 </r>
       <r>    -1.7730     0.0000     5.0000 </r>
       <r>    -1.6332     0.0000     5.0000 </r>
       <r>    -1.4934     0.0000     5.0000 </r>
       <r>    -1.3535     0.0000     5.0000 </r>
       <r>    -1.2137     0.0000     5.0000 </r>
       <r>    -1.0739     0.0000     5.0000 </r>
       <r>    -0.9340     0.0000     5.0000 </r>
       <r>    -0.7942     0.0000     5.0000 </r>
       <r>    -0.6544     0.0000     5.0000 </r>
       <r>    -0.5146     0.0103     5.0014 </r>
       <r>    -0.3747    15.8554     7.2184 </r>
       <r>    -0.2349     5.5895     8.0000 </r>
       <r>    -0.0951     4.9145     8.6872 </r>
       <r>     0.0447    15.8871    10.9086 </r>
       <r>     0.1846     0.6535    11.0000 </r>
       <r>     0.3244     0.0005    11.0001 </r>
       <r>     0.4642     9.8150    12.3725 </r>
       <r>     0.6041    11.6382    13.9998 </r>
       <r>     0.7439     0.0013    14.0000 </r>
       <r>     0.8837     0.0000    14.0000 </r>
       <r>     1.0235     0.0000    14.0000 </r>
       <r>     1.1634     0.0000    14.0000 </r>
       <r>     1.3032     0.0000    14.0000 </r>
       <r>     1.4430     0.0001    14.0000 </r>
       <r>     1.5828     6.2622    14.8756 </r>
       <r>     1.7227    24.3697    18.2832 </r>
       <r>     1.8625    21.0101    21.2210 </r>
       <r>     2.0023    12.7164    22.9991 </r>
       <r>     2.1421     0.0067    23.0000 </r>
       <r>     2.2820     0.0000    23.0000 </r>
       <r>     2.4218     0.0021    23.0003 </r>
       <r>     2.5616     6.0877    23.8515 </r>
       <r>     2.7015    25.0797    27.3583 </r>
       <r>     2.8413     4.5888    28.0000 </r>
       <r>     2.9811     0.0005    28.0000 </r>
       <r>     3.1209     3.7500    28.5244 </r>
       <r>     3.2608     3.4011    29.0000 </r>
       <r>     3.4006     0.0002    29.0000 </r>
       <r>     3.5404     1.6068    29.2247 </r>
       <r>     3.6802    13.5304    31.1166 </r>
       <r>     3.8201     6.5814    32.0368 </r>
       <r>     3.9599    13.6064    33.9394 </r>
       <r>     4.0997     0.4700    34.0051 </r>
       <r>     4.2396     6.5234    34.9173 </r>
       <r>     4.3794     0.5917    35.0000 </r>
       <r>     4.5192     0.0000    35.0000 </r>
       <r>     4.6590     0.0151    35.0021 </r>
       <r>     4.7989     6.1583    35.8632 </r>
       <r>     4.9387     0.9783    36.0000 </r>
       <r>     5.0785     0.0000    36.0000 </r>
       <r>     5.2183     0.0000    36.0000 </r>
       <r>     5.3582     0.0000    36.0000 </r>
       <r>     5.4980     0.0000    36.0000 </r>
       <r>     5.6378     0.0000    36.0000 </r>
       <r>     5.7777     0.0000    36.0000 </r>
       <r>     5.9175     0.0000    36.0000 </r>
       <r>     6.0573     0.0000    36.0000 </r>
       <r>     6.1971     0.0000    36.0000 </r>
       <r>     6.3370     0.0000    36.0000 </r>
       <r>     6.4768     0.0000    36.0000 </r>
       <r>     6.6166     0.0000    36.0000 </r>
       <r>     6.7564     0.0000    36.0000 </r>
       <r>     6.8963     0.0000    36.0000 </r>
       <r>     7.0361     0.0000    36.0000 </r>
       <r>     7.1759     0.0000    36.0000 </r>
       <r>     7.3158     0.0000    36.0000 </r>
       <r>     7.4556     0.0000    36.0000 </r>
       <r>     7.5954     0.0000    36.0000 </r>
       <r>     7.7352     0.0000    36.0000 </r>
       <r>     7.8751     0.0000    36.0000 </r>
       <r>     8.0149     0.0000    36.0000 </r>
       <r>     8.1547     0.0000    36.0000 </r>
       <r>     8.2945     0.0000    36.0000 </r>
      </set>
      <set comment="spin 2">
       <r>   -33.6536     0.0000     0.0000 </r>
       <r>   -33.5138     0.0000     0.0000 </r>
       <r>   -33.3739     0.0000     0.0000 </r>
       <r>   -33.2341     0.0000     0.0000 </r>
       <r>   -33.0943     0.0000     0.0000 </r>
       <r>   -32.9545     0.0000     0.0000 </r>
       <r>   -32.8146     0.0000     0.0000 </r>
       <r>   -32.6748     0.0000     0.0000 </r>
       <r>   -32.5350     0.0000     0.0000 </r>
       <r>   -32.3952     0.0000     0.0000 </r>
       <r>   -32.2553     0.0000     0.0000 </r>
       <r>   -32.1155     0.0000     0.0000 </r>
       <r>   -31.9757     0.0000     0.0000 </r>
       <r>   -31.8358     0.0005     0.0001 </r>
       <r>   -31.6960     3.9461     0.5518 </r>
       <r>   -31.5562     3.2050     1.0000 </r>
       <r>   -31.4164     0.0002     1.0000 </r>
       <r>   -31.2765     0.0000     1.0000 </r>
       <r>   -31.1367     0.0000     1.0000 </r>
       <r>   -30.9969     0.0000     1.0000 </r>
       <r>   -30.8571     0.0000     1.0000 </r>
       <r>   -30.7172     0.0000     1.0000 </r>
       <r>   -30.5774     0.0000     1.0000 </r>
       <r>   -30.4376     0.0000     1.0000 </r>
       <r>   -30.2977     0.0000     1.0000 </r>
       <r>   -30.1579     0.0000     1.0000 </r>
       <r>   -30.0181     0.0000     1.0000 </r>
       <r>   -29.8783     0.0000     1.0000 </r>
       <r>   -29.7384     0.0000     1.0000 </r>
       <r>   -29.5986     0.0000     1.0000 </r>
       <r>   -29.4588     0.0000     1.0000 </r>
       <r>   -29.3190     0.0000     1.0000 </r>
       <r>   -29.1791     0.0000     1.0000 </r>
       <r>   -29.0393     0.0000     1.0000 </r>
       <r>   -28.8995     0.0000     1.0000 </r>
       <r>   -28.7597     0.0000     1.0000 </r>
       <r>   -28.6198     0.0000     1.0000 </r>
       <r>   -28.4800     0.0000     1.0000 </r>
       <r>   -28.3402     0.0000     1.0000 </r>
       <r>   -28.2003     0.0000     1.0000 </r>
       <r>   -28.0605     0.0000     1.0000 </r>
       <r>   -27.9207     0.0000     1.0000 </r>
       <r>   -27.7809     0.0000     1.0000 </r>
       <r>   -27.6410     0.0000     1.0000 </r>
       <r>   -27.5012     0.0000     1.0000 </r>
       <r>   -27.3614     0.0000     1.0000 </r>
       <r>   -27.2216     0.0000     1.0000 </r>
       <r>   -27.0817     0.0000     1.0000 </r>
       <r>   -26.9419     0.0000     1.0000 </r>
       <r>   -26.8021     0.0000     1.0000 </r>
       <r>   -26.6622     0.0000     1.0000 </r>
       <r>   -26.5224     0.0000     1.0000 </r>
       <r>   -26.3826     0.0000     1.0000 </r>
       <r>   -26.2428     0.0000     1.0000 </r>
       <r>   -26.1029     0.0000     1.0000 </r>
       <r>   -25.9631     0.0000     1.0000 </r>
       <r>   -25.8233     0.0000     1.0000 </r>
       <r>   -25.6835     0.0000     1.0000 </r>
       <r>   -25.5436     0.0000     1.0000 </r>
       <r>   -25.4038     0.0000     1.0000 </r>
       <r>   -25.2640     0.0000     1.0000 </r>
       <r>   -25.1241     0.0000     1.0000 </r>
       <r>   -24.9843     0.0000     1.0000 </r>
       <r>   -24.8445     0.0000     1.0000 </r>
       <r>   -24.7047     0.0000     1.0000 </r>
       <r>   -24.5648     0.0000     1.0000 </r>
       <r>   -24.4250     0.0000     1.0000 </r>
       <r>   -24.2852     0.0000     1.0000 </r>
       <r>   -24.1454     0.0000     1.0000 </r>
       <r>   -24.0055     0.0000     1.0000 </r>
       <r>   -23.8657     0.0000     1.0000 </r>
       <r>   -23.7259     0.0000     1.0000 </r>
       <r>   -23.5860     0.0000     1.0000 </r>
       <r>   -23.4462     0.0000     1.0000 </r>
       <r>   -23.3064     0.0000     1.0000 </r>
       <r>   -23.1666     0.0000     1.0000 </r>
       <r>   -23.0267     0.0000     1.0000 </r>
       <r>   -22.8869     0.0000     1.0000 </r>
       <r>   -22.7471     0.0000     1.0000 </r>
       <r>   -22.6073     0.0000     1.0000 </r>
       <r>   -22.4674     0.0000     1.0000 </r>
       <r>   -22.3276     0.0000     1.0000 </r>
       <r>   -22.1878     0.0000     1.0000 </r>
       <r>   -22.0479     0.0000     1.0000 </r>
       <r>   -21.9081     0.0000     1.0000 </r>
       <r>   -21.7683     0.0000     1.0000 </r>
       <r>   -21.6285     0.0000     1.0000 </r>
       <r>   -21.4886     0.0000     1.0000 </r>
       <r>   -21.3488     0.0000     1.0000 </r>
       <r>   -21.2090     0.0000     1.0000 </r>
       <r>   -21.0692     0.0000     1.0000 </r>
       <r>   -20.9293     0.0000     1.0000 </r>
       <r>   -20.7895     0.0000     1.0000 </r>
       <r>   -20.6497     0.0000     1.0000 </r>
       <r>   -20.5098     0.0000     1.0000 </r>
       <r>   -20.3700     0.0000     1.0000 </r>
       <r>   -20.2302     0.0000     1.0000 </r>
       <r>   -20.0904     0.0000     1.0000 </r>
       <r>   -19.9505     0.0000     1.0000 </r>
       <r>   -19.8107     0.0000     1.0000 </r>
       <r>   -19.6709     0.0000     1.0000 </r>
       <r>   -19.5311     0.0000     1.0000 </r>
       <r>   -19.3912     0.0000     1.0000 </r>
       <r>   -19.2514     0.0000     1.0000 </r>
       <r>   -19.1116     0.0000     1.0000 </r>
       <r>   -18.9718     0.0000     1.0000 </r>
       <r>   -18.8319     0.0000     1.0000 </r>
       <r>   -18.6921     0.0000     1.0000 </r>
       <r>   -18.5523     0.0000     1.0000 </r>
       <r>   -18.4124     0.0000     1.0000 </r>
       <r>   -18.2726     0.0000     1.0000 </r>
       <r>   -18.1328     0.0000     1.0000 </r>
       <r>   -17.9930     0.0000     1.0000 </r>
       <r>   -17.8531     0.0000     1.0000 </r>
       <r>   -17.7133     0.0000     1.0000 </r>
       <r>   -17.5735     0.0000     1.0000 </r>
       <r>   -17.4337     0.0000     1.0000 </r>
       <r>   -17.2938     0.0000     1.0000 </r>
       <r>   -17.1540     0.0000     1.0000 </r>
       <r>   -17.0142     0.0000     1.0000 </r>
       <r>   -16.8743     0.0000     1.0000 </r>
       <r>   -16.7345     0.0000     1.0000 </r>
       <r>   -16.5947     0.0000     1.0000 </r>
       <r>   -16.4549     0.0000     1.0000 </r>
       <r>   -16.3150     0.0000     1.0000 </r>
       <r>   -16.1752     0.0000     1.0000 </r>
       <r>   -16.0354     0.0000     1.0000 </r>
       <r>   -15.8956     0.0004     1.0001 </r>
       <r>   -15.7557     9.3516     2.3077 </r>
       <r>   -15.6159    12.1015     3.9998 </r>
       <r>   -15.4761     0.0016     4.0000 </r>
       <r>   -15.3362     0.0000     4.0000 </r>
       <r>   -15.1964     0.0000     4.0000 </r>
       <r>   -15.0566     0.0000     4.0000 </r>
       <r>   -14.9168     0.0000     4.0000 </r>
       <r>   -14.7769     0.0000     4.0000 </r>
       <r>   -14.6371     0.0000     4.0000 </r>
       <r>   -14.4973     0.0000     4.0000 </r>
       <r>   -14.3575     0.0000     4.0000 </r>
       <r>   -14.2176     0.0000     4.0000 </r>
       <r>   -14.0778     0.0000     4.0000 </r>
       <r>   -13.9380     0.0000     4.0000 </r>
       <r>   -13.7981     0.0000     4.0000 </r>
       <r>   -13.6583     0.0000     4.0000 </r>
       <r>   -13.5185     0.0000     4.0000 </r>
       <r>   -13.3787     0.0000     4.0000 </r>
       <r>   -13.2388     0.0000     4.0000 </r>
       <r>   -13.0990     0.0000     4.0000 </r>
       <r>   -12.9592     0.0000     4.0000 </r>
       <r>   -12.8194     0.0000     4.0000 </r>
       <r>   -12.6795     0.0000     4.0000 </r>
       <r>   -12.5397     0.0000     4.0000 </r>
       <r>   -12.3999     0.0000     4.0000 </r>
       <r>   -12.2600     0.0000     4.0000 </r>
       <r>   -12.1202     0.0000     4.0000 </r>
       <r>   -11.9804     0.0000     4.0000 </r>
       <r>   -11.8406     0.0000     4.0000 </r>
       <r>   -11.7007     0.0000     4.0000 </r>
       <r>   -11.5609     0.0000     4.0000 </r>
       <r>   -11.4211     0.0000     4.0000 </r>
       <r>   -11.2813     0.0000     4.0000 </r>
       <r>   -11.1414     0.0000     4.0000 </r>
       <r>   -11.0016     0.0000     4.0000 </r>
       <r>   -10.8618     0.0000     4.0000 </r>
       <r>   -10.7219     0.0000     4.0000 </r>
       <r>   -10.5821     0.0000     4.0000 </r>
       <r>   -10.4423     0.0000     4.0000 </r>
       <r>   -10.3025     0.0000     4.0000 </r>
       <r>   -10.1626     0.0000     4.0000 </r>
       <r>   -10.0228     0.0000     4.0000 </r>
       <r>    -9.8830     0.0000     4.0000 </r>
       <r>    -9.7432     0.0000     4.0000 </r>
       <r>    -9.6033     0.0000     4.0000 </r>
       <r>    -9.4635     0.0000     4.0000 </r>
       <r>    -9.3237     0.0000     4.0000 </r>
       <r>    -9.1838     0.0000     4.0000 </r>
       <r>    -9.0440     0.0000     4.0000 </r>
       <r>    -8.9042     0.0000     4.0000 </r>
       <r>    -8.7644     0.0000     4.0000 </r>
       <r>    -8.6245     0.0000     4.0000 </r>
       <r>    -8.4847     0.0000     4.0000 </r>
       <r>    -8.3449     0.0000     4.0000 </r>
       <r>    -8.2051     0.0000     4.0000 </r>
       <r>    -8.0652     0.0000     4.0000 </r>
       <r>    -7.9254     0.0000     4.0000 </r>
       <r>    -7.7856     0.0000     4.0000 </r>
       <r>    -7.6458     0.0000     4.0000 </r>
       <r>    -7.5059     0.0000     4.0000 </r>
       <r>    -7.3661     0.0000     4.0000 </r>
       <r>    -7.2263     0.0000     4.0000 </r>
       <r>    -7.0864     0.0000     4.0000 </r>
       <r>    -6.9466     0.0000     4.0000 </r>
       <r>    -6.8068     0.0000     4.0000 </r>
       <r>    -6.6670     0.0000     4.0000 </r>
       <r>    -6.5271     0.0000     4.0000 </r>
       <r>    -6.3873     0.0000     4.0000 </r>
       <r>    -6.2475     0.0000     4.0000 </r>
       <r>    -6.1077     0.0000     4.0000 </r>
       <r>    -5.9678     0.0000     4.0000 </r>
       <r>    -5.8280     0.0000     4.0000 </r>
       <r>    -5.6882     0.0000     4.0000 </r>
       <r>    -5.5483     0.0000     4.0000 </r>
       <r>    -5.4085     0.0000     4.0000 </r>
       <r>    -5.2687     0.0000     4.0000 </r>
       <r>    -5.1289     0.0000     4.0000 </r>
       <r>    -4.9890     0.0000     4.0000 </r>
       <r>    -4.8492     0.0000     4.0000 </r>
       <r>    -4.7094     0.0000     4.0000 </r>
       <r>    -4.5696     0.0000     4.0000 </r>
       <r>    -4.4297     0.0000     4.0000 </r>
       <r>    -4.2899     0.0000     4.0000 </r>
       <r>    -4.1501     0.0000     4.0000 </r>
       <r>    -4.0102     0.0000     4.0000 </r>
       <r>    -3.8704     0.0000     4.0000 </r>
       <r>    -3.7306     0.0000     4.0000 </r>
       <r>    -3.5908     0.0000     4.0000 </r>
       <r>    -3.4509     0.0000     4.0000 </r>
       <r>    -3.3111     0.0000     4.0000 </r>
       <r>    -3.1713     0.0000     4.0000 </r>
       <r>    -3.0315     0.0000     4.0000 </r>
       <r>    -2.8916     0.0000     4.0000 </r>
       <r>    -2.7518     0.0000     4.0000 </r>
       <r>    -2.6120     0.0000     4.0000 </r>
       <r>    -2.4721     0.0000     4.0000 </r>
       <r>    -2.3323     0.0000     4.0000 </r>
       <r>    -2.1925     0.0000     4.0000 </r>
       <r>    -2.0527     0.0000     4.0000 </r>
       <r>    -1.9128     0.0000     4.0000 </r>
       <r>    -1.7730     0.0000     4.0000 </r>
       <r>    -1.6332     0.0000     4.0000 </r>
       <r>    -1.4934     0.0010     4.0001 </r>
       <r>    -1.3535     4.4578     4.6235 </r>
       <r>    -1.2137     2.6928     5.0000 </r>
       <r>    -1.0739     0.0001     5.0000 </r>
       <r>    -0.9340     0.0000     5.0000 </r>
       <r>    -0.7942     0.0000     5.0000 </r>
       <r>    -0.6544     0.0000     5.0000 </r>
       <r>    -0.5146     0.0000     5.0000 </r>
       <r>    -0.3747     0.0000     5.0000 </r>
       <r>    -0.2349     0.0000     5.0000 </r>
       <r>    -0.0951     0.0000     5.0000 </r>
       <r>     0.0447     0.0000     5.0000 </r>
       <r>     0.1846     0.0000     5.0000 </r>
       <r>     0.3244     0.0000     5.0000 </r>
       <r>     0.4642     0.0000     5.0000 </r>
       <r>     0.6041     0.0000     5.0000 </r>
       <r>     0.7439     2.1056     5.2944 </r>
       <r>     0.8837    19.2615     7.9877 </r>
       <r>     1.0235     0.0880     8.0000 </r>
       <r>     1.1634     2.8944     8.4047 </r>
       <r>     1.3032    30.6766    12.6942 </r>
       <r>     1.4430     9.3387    14.0000 </r>
       <r>     1.5828     0.0003    14.0000 </r>
       <r>     1.7227     0.0000    14.0000 </r>
       <r>     1.8625     0.0000    14.0000 </r>
       <r>     2.0023     0.0000    14.0000 </r>
       <r>     2.1421     0.0000    14.0000 </r>
       <r>     2.2820     0.0000    14.0000 </r>
       <r>     2.4218     0.0000    14.0000 </r>
       <r>     2.5616     0.0000    14.0000 </r>
       <r>     2.7015     0.0004    14.0001 </r>
       <r>     2.8413    13.0830    15.8294 </r>
       <r>     2.9811    22.6684    18.9991 </r>
       <r>     3.1209     0.2983    19.0408 </r>
       <r>     3.2608     6.7639    19.9866 </r>
       <r>     3.4006     0.0961    20.0000 </r>
       <r>     3.5404     0.0747    20.0104 </r>
       <r>     3.6802    17.2530    22.4229 </r>
       <r>     3.8201     4.1944    23.0094 </r>
       <r>     3.9599    12.5283    24.7612 </r>
       <r>     4.0997     8.9725    26.0158 </r>
       <r>     4.2396    12.7678    27.8010 </r>
       <r>     4.3794     1.4741    28.0072 </r>
       <r>     4.5192     6.6278    28.9339 </r>
       <r>     4.6590     0.4728    29.0000 </r>
       <r>     4.7989     0.0001    29.0000 </r>
       <r>     4.9387     4.2702    29.5971 </r>
       <r>     5.0785    12.3808    31.3283 </r>
       <r>     5.2183    12.4199    33.0649 </r>
       <r>     5.3582     6.6401    33.9934 </r>
       <r>     5.4980     0.0472    34.0000 </r>
       <r>     5.6378     0.0000    34.0000 </r>
       <r>     5.7777     0.0000    34.0000 </r>
       <r>     5.9175     0.0000    34.0000 </r>
       <r>     6.0573     0.0000    34.0000 </r>
       <r>     6.1971     0.9639    34.1348 </r>
       <r>     6.3370     6.7099    35.0730 </r>
       <r>     6.4768     6.5871    35.9941 </r>
       <r>     6.6166     0.0424    36.0000 </r>
       <r>     6.7564     0.0000    36.0000 </r>
       <r>     6.8963     0.0000    36.0000 </r>
       <r>     7.0361     0.0000    36.0000 </r>
       <r>     7.1759     0.0000    36.0000 </r>
       <r>     7.3158     0.0000    36.0000 </r>
       <r>     7.4556     0.0000    36.0000 </r>
       <r>     7.5954     0.0000    36.0000 </r>
       <r>     7.7352     0.0000    36.0000 </r>
       <r>     7.8751     0.0000    36.0000 </r>
       <r>     8.0149     0.0000    36.0000 </r>
       <r>     8.1547     0.0000    36.0000 </r>
       <r>     8.2945     0.0000    36.0000 </r>
      </set>
     </set>
    </array>
   </total>
   <partial>
    <array>
     <dimension dim="1">gridpoints</dimension>
     <dimension dim="2">spin</dimension>
     <dimension dim="3">ion</dimension>
     <field>energy</field>
     <field>    s</field>
     <field>   py</field>
     <field>   pz</field>
     <field>   px</field>
     <field>  dxy</field>
     <field>  dyz</field>
     <field>  dz2</field>
     <field>  dxz</field>
     <field>x2-y2</field>
     <set>
      <set comment="ion 1">
       <set comment="spin 1">
        <r>   -33.6536     0.0000     0.0000     0.0000     0.0000     0.0000     0.0000     0.0000     0.0000     0.0000 </r>
        <r>   -33.5138     0.0000     0.0000     0.0000     0.0000     0.0000     0.0000     0.0000     0.0000     0.0000 </r>
        <r>   -33.3739     0.0000     0.0000     0.0000     0.0000     0.0000     0.0000     0.0000     0.0000     0.0000 </r>
        <r>   -33.2341     0.0000     0.0000     0.0000     0.0000     0.0000     0.0000     0.0000     0.0000     0.0000 </r>
        <r>   -33.0943     0.0000     0.0000     0.0000     0.0000     0.0000     0.0000     0.0000     0.0000     0.0000 </r>
        <r>   -32.9545     0.0000     0.0000     0.0000     0.0000     0.0000     0.0000     0.0000     0.0000     0.0000 </r>
        <r>   -32.8146     0.0000     0.0000     0.0000     0.0000     0.0000     0.0000     0.0000     0.0000     0.0000 </r>
        <r>   -32.6748     0.0000     0.0000     0.0000     0.0000     0.0000     0.0000     0.0000     0.0000     0.0000 </r>
        <r>   -32.5350     0.0000     0.0000     0.0000     0.0000     0.0000     0.0000     0.0000     0.0000     0.0000 </r>
        <r>   -32.3952     0.0000     0.0000     0.0000     0.0000     0.0000     0.0000     0.0000     0.0000     0.0000 </r>
        <r>   -32.2553     0.0000     0.0000     0.0000     0.0000     0.0000     0.0000     0.0000     0.0000     0.0000 </r>
        <r>   -32.1155     0.0000     0.0000     0.0000     0.0000     0.0000     0.0000     0.0000     0.0000     0.0000 </r>
        <r>   -31.9757     0.0000     0.0000     0.0000     0.0000     0.0000     0.0000     0.0000     0.0000     0.0000 </r>
        <r>   -31.8358     0.0407     0.0000     0.0000     0.0000     0.0000     0.0000     0.0000     0.0000     0.0000 </r>
        <r>   -31.6960     6.3223     0.0000     0.0000     0.0000     0.0000     0.0000     0.0000     0.0000     0.0000 </r>
        <r>   -31.5562     0.5174     0.0000     0.0000     0.0000     0.0000     0.0000     0.0000     0.0000     0.0000 </r>
        <r>   -31.4164     0.0000     0.0000     0.0000     0.0000     0.0000     0.0000     0.0000     0.0000     0.0000 </r>
        <r>   -31.2765     0.0000     0.0000     0.0000     0.0000     0.0000     0.0000     0.0000     0.0000     0.0000 </r>
        <r>   -31.1367     0.0000     0.0000     0.0000     0.0000     0.0000     0.0000     0.0000     0.0000     0.0000 </r>
        <r>   -30.9969     0.0000     0.0000     0.0000     0.0000     0.0000     0.0000     0.0000     0.0000     0.0000 </r>
        <r>   -30.8571     0.0000     0.0000     0.0000     0.0000     0.0000     0.0000     0.0000     0.0000     0.0000 </r>
        <r>   -30.7172     0.0000     0.0000     0.0000     0.0000     0.0000     0.0000     0.0000     0.0000     0.0000 </r>
        <r>   -30.5774     0.0000     0.0000     0.0000     0.0000     0.0000     0.0000     0.0000     0.0000     0.0000 </r>
        <r>   -30.4376     0.0000     0.0000     0.0000     0.0000     0.0000     0.0000     0.0000     0.0000     0.0000 </r>
        <r>   -30.2977     0.0000     0.0000     0.0000     0.0000     0.0000     0.0000     0.0000     0.0000     0.0000 </r>
        <r>   -30.1579     0.0000     0.0000     0.0000     0.0000     0.0000     0.0000     0.0000     0.0000     0.0000 </r>
        <r>   -30.0181     0.0000     0.0000     0.0000     0.0000     0.0000     0.0000     0.0000     0.0000     0.0000 </r>
        <r>   -29.8783     0.0000     0.0000     0.0000     0.0000     0.0000     0.0000     0.0000     0.0000     0.0000 </r>
        <r>   -29.7384     0.0000     0.0000     0.0000     0.0000     0.0000     0.0000     0.0000     0.0000     0.0000 </r>
        <r>   -29.5986     0.0000     0.0000     0.0000     0.0000     0.0000     0.0000     0.0000     0.0000     0.0000 </r>
        <r>   -29.4588     0.0000     0.0000     0.0000     0.0000     0.0000     0.0000     0.0000     0.0000     0.0000 </r>
        <r>   -29.3190     0.0000     0.0000     0.0000     0.0000     0.0000     0.0000     0.0000     0.0000     0.0000 </r>
        <r>   -29.1791     0.0000     0.0000     0.0000     0.0000     0.0000     0.0000     0.0000     0.0000     0.0000 </r>
        <r>   -29.0393     0.0000     0.0000     0.0000     0.0000     0.0000     0.0000     0.0000     0.0000     0.0000 </r>
        <r>   -28.8995     0.0000     0.0000     0.0000     0.0000     0.0000     0.0000     0.0000     0.0000     0.0000 </r>
        <r>   -28.7597     0.0000     0.0000     0.0000     0.0000     0.0000     0.0000     0.0000     0.0000     0.0000 </r>
        <r>   -28.6198     0.0000     0.0000     0.0000     0.0000     0.0000     0.0000     0.0000     0.0000     0.0000 </r>
        <r>   -28.4800     0.0000     0.0000     0.0000     0.0000     0.0000     0.0000     0.0000     0.0000     0.0000 </r>
        <r>   -28.3402     0.0000     0.0000     0.0000     0.0000     0.0000     0.0000     0.0000     0.0000     0.0000 </r>
        <r>   -28.2003     0.0000     0.0000     0.0000     0.0000     0.0000     0.0000     0.0000     0.0000     0.0000 </r>
        <r>   -28.0605     0.0000     0.0000     0.0000     0.0000     0.0000     0.0000     0.0000     0.0000     0.0000 </r>
        <r>   -27.9207     0.0000     0.0000     0.0000     0.0000     0.0000     0.0000     0.0000     0.0000     0.0000 </r>
        <r>   -27.7809     0.0000     0.0000     0.0000     0.0000     0.0000     0.0000     0.0000     0.0000     0.0000 </r>
        <r>   -27.6410     0.0000     0.0000     0.0000     0.0000     0.0000     0.0000     0.0000     0.0000     0.0000 </r>
        <r>   -27.5012     0.0000     0.0000     0.0000     0.0000     0.0000     0.0000     0.0000     0.0000     0.0000 </r>
        <r>   -27.3614     0.0000     0.0000     0.0000     0.0000     0.0000     0.0000     0.0000     0.0000     0.0000 </r>
        <r>   -27.2216     0.0000     0.0000     0.0000     0.0000     0.0000     0.0000     0.0000     0.0000     0.0000 </r>
        <r>   -27.0817     0.0000     0.0000     0.0000     0.0000     0.0000     0.0000     0.0000     0.0000     0.0000 </r>
        <r>   -26.9419     0.0000     0.0000     0.0000     0.0000     0.0000     0.0000     0.0000     0.0000     0.0000 </r>
        <r>   -26.8021     0.0000     0.0000     0.0000     0.0000     0.0000     0.0000     0.0000     0.0000     0.0000 </r>
        <r>   -26.6622     0.0000     0.0000     0.0000     0.0000     0.0000     0.0000     0.0000     0.0000     0.0000 </r>
        <r>   -26.5224     0.0000     0.0000     0.0000     0.0000     0.0000     0.0000     0.0000     0.0000     0.0000 </r>
        <r>   -26.3826     0.0000     0.0000     0.0000     0.0000     0.0000     0.0000     0.0000     0.0000     0.0000 </r>
        <r>   -26.2428     0.0000     0.0000     0.0000     0.0000     0.0000     0.0000     0.0000     0.0000     0.0000 </r>
        <r>   -26.1029     0.0000     0.0000     0.0000     0.0000     0.0000     0.0000     0.0000     0.0000     0.0000 </r>
        <r>   -25.9631     0.0000     0.0000     0.0000     0.0000     0.0000     0.0000     0.0000     0.0000     0.0000 </r>
        <r>   -25.8233     0.0000     0.0000     0.0000     0.0000     0.0000     0.0000     0.0000     0.0000     0.0000 </r>
        <r>   -25.6835     0.0000     0.0000     0.0000     0.0000     0.0000     0.0000     0.0000     0.0000     0.0000 </r>
        <r>   -25.5436     0.0000     0.0000     0.0000     0.0000     0.0000     0.0000     0.0000     0.0000     0.0000 </r>
        <r>   -25.4038     0.0000     0.0000     0.0000     0.0000     0.0000     0.0000     0.0000     0.0000     0.0000 </r>
        <r>   -25.2640     0.0000     0.0000     0.0000     0.0000     0.0000     0.0000     0.0000     0.0000     0.0000 </r>
        <r>   -25.1241     0.0000     0.0000     0.0000     0.0000     0.0000     0.0000     0.0000     0.0000     0.0000 </r>
        <r>   -24.9843     0.0000     0.0000     0.0000     0.0000     0.0000     0.0000     0.0000     0.0000     0.0000 </r>
        <r>   -24.8445     0.0000     0.0000     0.0000     0.0000     0.0000     0.0000     0.0000     0.0000     0.0000 </r>
        <r>   -24.7047     0.0000     0.0000     0.0000     0.0000     0.0000     0.0000     0.0000     0.0000     0.0000 </r>
        <r>   -24.5648     0.0000     0.0000     0.0000     0.0000     0.0000     0.0000     0.0000     0.0000     0.0000 </r>
        <r>   -24.4250     0.0000     0.0000     0.0000     0.0000     0.0000     0.0000     0.0000     0.0000     0.0000 </r>
        <r>   -24.2852     0.0000     0.0000     0.0000     0.0000     0.0000     0.0000     0.0000     0.0000     0.0000 </r>
        <r>   -24.1454     0.0000     0.0000     0.0000     0.0000     0.0000     0.0000     0.0000     0.0000     0.0000 </r>
        <r>   -24.0055     0.0000     0.0000     0.0000     0.0000     0.0000     0.0000     0.0000     0.0000     0.0000 </r>
        <r>   -23.8657     0.0000     0.0000     0.0000     0.0000     0.0000     0.0000     0.0000     0.0000     0.0000 </r>
        <r>   -23.7259     0.0000     0.0000     0.0000     0.0000     0.0000     0.0000     0.0000     0.0000     0.0000 </r>
        <r>   -23.5860     0.0000     0.0000     0.0000     0.0000     0.0000     0.0000     0.0000     0.0000     0.0000 </r>
        <r>   -23.4462     0.0000     0.0000     0.0000     0.0000     0.0000     0.0000     0.0000     0.0000     0.0000 </r>
        <r>   -23.3064     0.0000     0.0000     0.0000     0.0000     0.0000     0.0000     0.0000     0.0000     0.0000 </r>
        <r>   -23.1666     0.0000     0.0000     0.0000     0.0000     0.0000     0.0000     0.0000     0.0000     0.0000 </r>
        <r>   -23.0267     0.0000     0.0000     0.0000     0.0000     0.0000     0.0000     0.0000     0.0000     0.0000 </r>
        <r>   -22.8869     0.0000     0.0000     0.0000     0.0000     0.0000     0.0000     0.0000     0.0000     0.0000 </r>
        <r>   -22.7471     0.0000     0.0000     0.0000     0.0000     0.0000     0.0000     0.0000     0.0000     0.0000 </r>
        <r>   -22.6073     0.0000     0.0000     0.0000     0.0000     0.0000     0.0000     0.0000     0.0000     0.0000 </r>
        <r>   -22.4674     0.0000     0.0000     0.0000     0.0000     0.0000     0.0000     0.0000     0.0000     0.0000 </r>
        <r>   -22.3276     0.0000     0.0000     0.0000     0.0000     0.0000     0.0000     0.0000     0.0000     0.0000 </r>
        <r>   -22.1878     0.0000     0.0000     0.0000     0.0000     0.0000     0.0000     0.0000     0.0000     0.0000 </r>
        <r>   -22.0479     0.0000     0.0000     0.0000     0.0000     0.0000     0.0000     0.0000     0.0000     0.0000 </r>
        <r>   -21.9081     0.0000     0.0000     0.0000     0.0000     0.0000     0.0000     0.0000     0.0000     0.0000 </r>
        <r>   -21.7683     0.0000     0.0000     0.0000     0.0000     0.0000     0.0000     0.0000     0.0000     0.0000 </r>
        <r>   -21.6285     0.0000     0.0000     0.0000     0.0000     0.0000     0.0000     0.0000     0.0000     0.0000 </r>
        <r>   -21.4886     0.0000     0.0000     0.0000     0.0000     0.0000     0.0000     0.0000     0.0000     0.0000 </r>
        <r>   -21.3488     0.0000     0.0000     0.0000     0.0000     0.0000     0.0000     0.0000     0.0000     0.0000 </r>
        <r>   -21.2090     0.0000     0.0000     0.0000     0.0000     0.0000     0.0000     0.0000     0.0000     0.0000 </r>
        <r>   -21.0692     0.0000     0.0000     0.0000     0.0000     0.0000     0.0000     0.0000     0.0000     0.0000 </r>
        <r>   -20.9293     0.0000     0.0000     0.0000     0.0000     0.0000     0.0000     0.0000     0.0000     0.0000 </r>
        <r>   -20.7895     0.0000     0.0000     0.0000     0.0000     0.0000     0.0000     0.0000     0.0000     0.0000 </r>
        <r>   -20.6497     0.0000     0.0000     0.0000     0.0000     0.0000     0.0000     0.0000     0.0000     0.0000 </r>
        <r>   -20.5098     0.0000     0.0000     0.0000     0.0000     0.0000     0.0000     0.0000     0.0000     0.0000 </r>
        <r>   -20.3700     0.0000     0.0000     0.0000     0.0000     0.0000     0.0000     0.0000     0.0000     0.0000 </r>
        <r>   -20.2302     0.0000     0.0000     0.0000     0.0000     0.0000     0.0000     0.0000     0.0000     0.0000 </r>
        <r>   -20.0904     0.0000     0.0000     0.0000     0.0000     0.0000     0.0000     0.0000     0.0000     0.0000 </r>
        <r>   -19.9505     0.0000     0.0000     0.0000     0.0000     0.0000     0.0000     0.0000     0.0000     0.0000 </r>
        <r>   -19.8107     0.0000     0.0000     0.0000     0.0000     0.0000     0.0000     0.0000     0.0000     0.0000 </r>
        <r>   -19.6709     0.0000     0.0000     0.0000     0.0000     0.0000     0.0000     0.0000     0.0000     0.0000 </r>
        <r>   -19.5311     0.0000     0.0000     0.0000     0.0000     0.0000     0.0000     0.0000     0.0000     0.0000 </r>
        <r>   -19.3912     0.0000     0.0000     0.0000     0.0000     0.0000     0.0000     0.0000     0.0000     0.0000 </r>
        <r>   -19.2514     0.0000     0.0000     0.0000     0.0000     0.0000     0.0000     0.0000     0.0000     0.0000 </r>
        <r>   -19.1116     0.0000     0.0000     0.0000     0.0000     0.0000     0.0000     0.0000     0.0000     0.0000 </r>
        <r>   -18.9718     0.0000     0.0000     0.0000     0.0000     0.0000     0.0000     0.0000     0.0000     0.0000 </r>
        <r>   -18.8319     0.0000     0.0000     0.0000     0.0000     0.0000     0.0000     0.0000     0.0000     0.0000 </r>
        <r>   -18.6921     0.0000     0.0000     0.0000     0.0000     0.0000     0.0000     0.0000     0.0000     0.0000 </r>
        <r>   -18.5523     0.0000     0.0000     0.0000     0.0000     0.0000     0.0000     0.0000     0.0000     0.0000 </r>
        <r>   -18.4124     0.0000     0.0000     0.0000     0.0000     0.0000     0.0000     0.0000     0.0000     0.0000 </r>
        <r>   -18.2726     0.0000     0.0000     0.0000     0.0000     0.0000     0.0000     0.0000     0.0000     0.0000 </r>
        <r>   -18.1328     0.0000     0.0000     0.0000     0.0000     0.0000     0.0000     0.0000     0.0000     0.0000 </r>
        <r>   -17.9930     0.0000     0.0000     0.0000     0.0000     0.0000     0.0000     0.0000     0.0000     0.0000 </r>
        <r>   -17.8531     0.0000     0.0000     0.0000     0.0000     0.0000     0.0000     0.0000     0.0000     0.0000 </r>
        <r>   -17.7133     0.0000     0.0000     0.0000     0.0000     0.0000     0.0000     0.0000     0.0000     0.0000 </r>
        <r>   -17.5735     0.0000     0.0000     0.0000     0.0000     0.0000     0.0000     0.0000     0.0000     0.0000 </r>
        <r>   -17.4337     0.0000     0.0000     0.0000     0.0000     0.0000     0.0000     0.0000     0.0000     0.0000 </r>
        <r>   -17.2938     0.0000     0.0000     0.0000     0.0000     0.0000     0.0000     0.0000     0.0000     0.0000 </r>
        <r>   -17.1540     0.0000     0.0000     0.0000     0.0000     0.0000     0.0000     0.0000     0.0000     0.0000 </r>
        <r>   -17.0142     0.0000     0.0000     0.0000     0.0000     0.0000     0.0000     0.0000     0.0000     0.0000 </r>
        <r>   -16.8743     0.0000     0.0000     0.0000     0.0000     0.0000     0.0000     0.0000     0.0000     0.0000 </r>
        <r>   -16.7345     0.0000     0.0000     0.0000     0.0000     0.0000     0.0000     0.0000     0.0000     0.0000 </r>
        <r>   -16.5947     0.0000     0.0000     0.0000     0.0000     0.0000     0.0000     0.0000     0.0000     0.0000 </r>
        <r>   -16.4549     0.0000     0.0000     0.0000     0.0000     0.0000     0.0000     0.0000     0.0000     0.0000 </r>
        <r>   -16.3150     0.0000     0.0000     0.0000     0.0000     0.0000     0.0000     0.0000     0.0000     0.0000 </r>
        <r>   -16.1752     0.0000     0.0000     0.0000     0.0000     0.0000     0.0000     0.0000     0.0000     0.0000 </r>
        <r>   -16.0354     0.0000     0.0000     0.0000     0.0000     0.0000     0.0000     0.0000     0.0000     0.0000 </r>
        <r>   -15.8956     0.0000     0.2322     0.2322     0.2322     0.0000     0.0000     0.0000     0.0000     0.0000 </r>
        <r>   -15.7557     0.0000     5.9991     5.9991     5.9991     0.0000     0.0000     0.0000     0.0000     0.0000 </r>
        <r>   -15.6159     0.0000     0.0962     0.0962     0.0962     0.0000     0.0000     0.0000     0.0000     0.0000 </r>
        <r>   -15.4761     0.0000     0.0000     0.0000     0.0000     0.0000     0.0000     0.0000     0.0000     0.0000 </r>
        <r>   -15.3362     0.0000     0.0000     0.0000     0.0000     0.0000     0.0000     0.0000     0.0000     0.0000 </r>
        <r>   -15.1964     0.0000     0.0000     0.0000     0.0000     0.0000     0.0000     0.0000     0.0000     0.0000 </r>
        <r>   -15.0566     0.0000     0.0000     0.0000     0.0000     0.0000     0.0000     0.0000     0.0000     0.0000 </r>
        <r>   -14.9168     0.0000     0.0000     0.0000     0.0000     0.0000     0.0000     0.0000     0.0000     0.0000 </r>
        <r>   -14.7769     0.0000     0.0000     0.0000     0.0000     0.0000     0.0000     0.0000     0.0000     0.0000 </r>
        <r>   -14.6371     0.0000     0.0000     0.0000     0.0000     0.0000     0.0000     0.0000     0.0000     0.0000 </r>
        <r>   -14.4973     0.0000     0.0000     0.0000     0.0000     0.0000     0.0000     0.0000     0.0000     0.0000 </r>
        <r>   -14.3575     0.0000     0.0000     0.0000     0.0000     0.0000     0.0000     0.0000     0.0000     0.0000 </r>
        <r>   -14.2176     0.0000     0.0000     0.0000     0.0000     0.0000     0.0000     0.0000     0.0000     0.0000 </r>
        <r>   -14.0778     0.0000     0.0000     0.0000     0.0000     0.0000     0.0000     0.0000     0.0000     0.0000 </r>
        <r>   -13.9380     0.0000     0.0000     0.0000     0.0000     0.0000     0.0000     0.0000     0.0000     0.0000 </r>
        <r>   -13.7981     0.0000     0.0000     0.0000     0.0000     0.0000     0.0000     0.0000     0.0000     0.0000 </r>
        <r>   -13.6583     0.0000     0.0000     0.0000     0.0000     0.0000     0.0000     0.0000     0.0000     0.0000 </r>
        <r>   -13.5185     0.0000     0.0000     0.0000     0.0000     0.0000     0.0000     0.0000     0.0000     0.0000 </r>
        <r>   -13.3787     0.0000     0.0000     0.0000     0.0000     0.0000     0.0000     0.0000     0.0000     0.0000 </r>
        <r>   -13.2388     0.0000     0.0000     0.0000     0.0000     0.0000     0.0000     0.0000     0.0000     0.0000 </r>
        <r>   -13.0990     0.0000     0.0000     0.0000     0.0000     0.0000     0.0000     0.0000     0.0000     0.0000 </r>
        <r>   -12.9592     0.0000     0.0000     0.0000     0.0000     0.0000     0.0000     0.0000     0.0000     0.0000 </r>
        <r>   -12.8194     0.0000     0.0000     0.0000     0.0000     0.0000     0.0000     0.0000     0.0000     0.0000 </r>
        <r>   -12.6795     0.0000     0.0000     0.0000     0.0000     0.0000     0.0000     0.0000     0.0000     0.0000 </r>
        <r>   -12.5397     0.0000     0.0000     0.0000     0.0000     0.0000     0.0000     0.0000     0.0000     0.0000 </r>
        <r>   -12.3999     0.0000     0.0000     0.0000     0.0000     0.0000     0.0000     0.0000     0.0000     0.0000 </r>
        <r>   -12.2600     0.0000     0.0000     0.0000     0.0000     0.0000     0.0000     0.0000     0.0000     0.0000 </r>
        <r>   -12.1202     0.0000     0.0000     0.0000     0.0000     0.0000     0.0000     0.0000     0.0000     0.0000 </r>
        <r>   -11.9804     0.0000     0.0000     0.0000     0.0000     0.0000     0.0000     0.0000     0.0000     0.0000 </r>
        <r>   -11.8406     0.0000     0.0000     0.0000     0.0000     0.0000     0.0000     0.0000     0.0000     0.0000 </r>
        <r>   -11.7007     0.0000     0.0000     0.0000     0.0000     0.0000     0.0000     0.0000     0.0000     0.0000 </r>
        <r>   -11.5609     0.0000     0.0000     0.0000     0.0000     0.0000     0.0000     0.0000     0.0000     0.0000 </r>
        <r>   -11.4211     0.0000     0.0000     0.0000     0.0000     0.0000     0.0000     0.0000     0.0000     0.0000 </r>
        <r>   -11.2813     0.0000     0.0000     0.0000     0.0000     0.0000     0.0000     0.0000     0.0000     0.0000 </r>
        <r>   -11.1414     0.0000     0.0000     0.0000     0.0000     0.0000     0.0000     0.0000     0.0000     0.0000 </r>
        <r>   -11.0016     0.0000     0.0000     0.0000     0.0000     0.0000     0.0000     0.0000     0.0000     0.0000 </r>
        <r>   -10.8618     0.0000     0.0000     0.0000     0.0000     0.0000     0.0000     0.0000     0.0000     0.0000 </r>
        <r>   -10.7219     0.0000     0.0000     0.0000     0.0000     0.0000     0.0000     0.0000     0.0000     0.0000 </r>
        <r>   -10.5821     0.0000     0.0000     0.0000     0.0000     0.0000     0.0000     0.0000     0.0000     0.0000 </r>
        <r>   -10.4423     0.0000     0.0000     0.0000     0.0000     0.0000     0.0000     0.0000     0.0000     0.0000 </r>
        <r>   -10.3025     0.0000     0.0000     0.0000     0.0000     0.0000     0.0000     0.0000     0.0000     0.0000 </r>
        <r>   -10.1626     0.0000     0.0000     0.0000     0.0000     0.0000     0.0000     0.0000     0.0000     0.0000 </r>
        <r>   -10.0228     0.0000     0.0000     0.0000     0.0000     0.0000     0.0000     0.0000     0.0000     0.0000 </r>
        <r>    -9.8830     0.0000     0.0000     0.0000     0.0000     0.0000     0.0000     0.0000     0.0000     0.0000 </r>
        <r>    -9.7432     0.0000     0.0000     0.0000     0.0000     0.0000     0.0000     0.0000     0.0000     0.0000 </r>
        <r>    -9.6033     0.0000     0.0000     0.0000     0.0000     0.0000     0.0000     0.0000     0.0000     0.0000 </r>
        <r>    -9.4635     0.0000     0.0000     0.0000     0.0000     0.0000     0.0000     0.0000     0.0000     0.0000 </r>
        <r>    -9.3237     0.0000     0.0000     0.0000     0.0000     0.0000     0.0000     0.0000     0.0000     0.0000 </r>
        <r>    -9.1838     0.0000     0.0000     0.0000     0.0000     0.0000     0.0000     0.0000     0.0000     0.0000 </r>
        <r>    -9.0440     0.0000     0.0000     0.0000     0.0000     0.0000     0.0000     0.0000     0.0000     0.0000 </r>
        <r>    -8.9042     0.0000     0.0000     0.0000     0.0000     0.0000     0.0000     0.0000     0.0000     0.0000 </r>
        <r>    -8.7644     0.0000     0.0000     0.0000     0.0000     0.0000     0.0000     0.0000     0.0000     0.0000 </r>
        <r>    -8.6245     0.0000     0.0000     0.0000     0.0000     0.0000     0.0000     0.0000     0.0000     0.0000 </r>
        <r>    -8.4847     0.0000     0.0000     0.0000     0.0000     0.0000     0.0000     0.0000     0.0000     0.0000 </r>
        <r>    -8.3449     0.0000     0.0000     0.0000     0.0000     0.0000     0.0000     0.0000     0.0000     0.0000 </r>
        <r>    -8.2051     0.0000     0.0000     0.0000     0.0000     0.0000     0.0000     0.0000     0.0000     0.0000 </r>
        <r>    -8.0652     0.0000     0.0000     0.0000     0.0000     0.0000     0.0000     0.0000     0.0000     0.0000 </r>
        <r>    -7.9254     0.0000     0.0000     0.0000     0.0000     0.0000     0.0000     0.0000     0.0000     0.0000 </r>
        <r>    -7.7856     0.0000     0.0000     0.0000     0.0000     0.0000     0.0000     0.0000     0.0000     0.0000 </r>
[...]
        <r>     2.0023     0.0000     0.0000     0.0000     0.0000     0.0000     0.0000     0.0000     0.0000     0.0000 </r>
        <r>     2.1421     0.0000     0.0000     0.0000     0.0000     0.0000     0.0000     0.0000     0.0000     0.0000 </r>
        <r>     2.2820     0.0000     0.0000     0.0000     0.0000     0.0000     0.0000     0.0000     0.0000     0.0000 </r>
        <r>     2.4218     0.0000     0.0000     0.0000     0.0000     0.0000     0.0000     0.0000     0.0000     0.0000 </r>
        <r>     2.5616     0.0000     0.0000     0.0000     0.0000     0.0000     0.0000     0.0000     0.0000     0.0000 </r>
        <r>     2.7015     0.0000     0.0000     0.0000     0.0000     0.0000     0.0000     0.0000     0.0000     0.0000 </r>
        <r>     2.8413     0.0003     0.0421     0.0401     0.0319     0.0004     0.0003     0.2325     0.0002     0.2406 </r>
        <r>     2.9811     0.0005     0.0545     0.0525     0.0569     0.0007     0.0004     0.5486     0.0003     0.5472 </r>
        <r>     3.1209     0.0063     0.0000     0.0000     0.0000     0.0000     0.0000     0.0002     0.0000     0.0002 </r>
        <r>     3.2608     0.1456     0.0001     0.0004     0.0002     0.0001     0.0001     0.0000     0.0000     0.0000 </r>
        <r>     3.4006     0.0021     0.0000     0.0000     0.0000     0.0000     0.0000     0.0000     0.0000     0.0000 </r>
        <r>     3.5404     0.0000     0.0000     0.0000     0.0000     0.0000     0.0000     0.0000     0.0001     0.0000 </r>
        <r>     3.6802     0.0001     0.0002     0.0004     0.0005     0.0080     0.0154     0.0036     0.0395     0.0027 </r>
        <r>     3.8201     0.0000     0.0001     0.0001     0.0000     0.0099     0.0095     0.0025     0.0200     0.0003 </r>
        <r>     3.9599     0.0001     0.0002     0.0000     0.0001     0.6080     0.5130     0.0475     0.0316     0.0624 </r>
        <r>     4.0997     0.0001     0.0002     0.0000     0.0000     0.0649     0.1549     0.0996     0.3716     0.2043 </r>
        <r>     4.2396     0.0001     0.0000     0.0002     0.0000     0.0141     0.0455     0.6455     0.1711     0.6415 </r>
        <r>     4.3794     0.0000     0.0000     0.0000     0.0000     0.0023     0.0049     0.1268     0.0191     0.0178 </r>
        <r>     4.5192     0.0017     0.0043     0.0002     0.0000     0.0519     0.0015     0.0029     0.0060     0.0045 </r>
        <r>     4.6590     0.0001     0.0003     0.0000     0.0000     0.0037     0.0001     0.0002     0.0004     0.0003 </r>
        <r>     4.7989     0.0000     0.0000     0.0000     0.0000     0.0000     0.0000     0.0000     0.0000     0.0000 </r>
        <r>     4.9387     0.0003     0.0059     0.0030     0.0104     0.0104     0.0521     0.0036     0.0429     0.0001 </r>
        <r>     5.0785     0.0005     0.0129     0.0175     0.0223     0.1018     0.2597     0.0052     0.1987     0.0010 </r>
        <r>     5.2183     0.0093     0.0001     0.0323     0.0045     0.2233     0.3705     0.0002     0.6094     0.0029 </r>
        <r>     5.3582     0.1068     0.0007     0.0002     0.0008     0.0119     0.0020     0.0001     0.0042     0.0002 </r>
        <r>     5.4980     0.0008     0.0000     0.0000     0.0000     0.0001     0.0000     0.0000     0.0000     0.0000 </r>
        <r>     5.6378     0.0000     0.0000     0.0000     0.0000     0.0000     0.0000     0.0000     0.0000     0.0000 </r>
        <r>     5.7777     0.0000     0.0000     0.0000     0.0000     0.0000     0.0000     0.0000     0.0000     0.0000 </r>
        <r>     5.9175     0.0000     0.0000     0.0000     0.0000     0.0000     0.0000     0.0000     0.0000     0.0000 </r>
        <r>     6.0573     0.0000     0.0000     0.0000     0.0000     0.0000     0.0000     0.0000     0.0000     0.0000 </r>
        <r>     6.1971     0.0065     0.0007     0.0018     0.0002     0.0022     0.0000     0.0011     0.0014     0.0022 </r>
        <r>     6.3370     0.0420     0.0047     0.0126     0.0018     0.0149     0.0002     0.0079     0.0090     0.0234 </r>
        <r>     6.4768     0.0037     0.0006     0.0156     0.0034     0.0126     0.0029     0.0101     0.0001     0.1170 </r>
        <r>     6.6166     0.0000     0.0000     0.0001     0.0000     0.0001     0.0000     0.0001     0.0000     0.0008 </r>
        <r>     6.7564     0.0000     0.0000     0.0000     0.0000     0.0000     0.0000     0.0000     0.0000     0.0000 </r>
        <r>     6.8963     0.0000     0.0000     0.0000     0.0000     0.0000     0.0000     0.0000     0.0000     0.0000 </r>
        <r>     7.0361     0.0000     0.0000     0.0000     0.0000     0.0000     0.0000     0.0000     0.0000     0.0000 </r>
        <r>     7.1759     0.0000     0.0000     0.0000     0.0000     0.0000     0.0000     0.0000     0.0000     0.0000 </r>
        <r>     7.3158     0.0000     0.0000     0.0000     0.0000     0.0000     0.0000     0.0000     0.0000     0.0000 </r>
        <r>     7.4556     0.0000     0.0000     0.0000     0.0000     0.0000     0.0000     0.0000     0.0000     0.0000 </r>
        <r>     7.5954     0.0000     0.0000     0.0000     0.0000     0.0000     0.0000     0.0000     0.0000     0.0000 </r>
        <r>     7.7352     0.0000     0.0000     0.0000     0.0000     0.0000     0.0000     0.0000     0.0000     0.0000 </r>
        <r>     7.8751     0.0000     0.0000     0.0000     0.0000     0.0000     0.0000     0.0000     0.0000     0.0000 </r>
        <r>     8.0149     0.0000     0.0000     0.0000     0.0000     0.0000     0.0000     0.0000     0.0000     0.0000 </r>
        <r>     8.1547     0.0000     0.0000     0.0000     0.0000     0.0000     0.0000     0.0000     0.0000     0.0000 </r>
        <r>     8.2945     0.0000     0.0000     0.0000     0.0000     0.0000     0.0000     0.0000     0.0000     0.0000 </r>
       </set>
      </set>
     </set>
    </array>
   </partial>
  </dos>
  <projected>
   <eigenvalues>
    <array>
     <dimension dim="1">band</dimension>
     <dimension dim="2">kpoint</dimension>
     <dimension dim="3">spin</dimension>
     <field>eigene</field>
     <field>occ</field>
     <set>
      <set comment="spin 1">
       <set comment="kpoint 1">
        <r>  -31.7469    1.0000 </r>
        <r>  -15.8323    1.0000 </r>
        <r>  -15.8323    1.0000 </r>
        <r>  -15.8323    1.0000 </r>
        <r>   -2.2968    1.0000 </r>
        <r>   -0.4010    0.0000 </r>
        <r>   -0.3958    0.0000 </r>
        <r>   -0.3957    0.0000 </r>
        <r>   -0.0813    0.0000 </r>
        <r>   -0.0800    0.0000 </r>
        <r>   -0.0024    0.0000 </r>
        <r>    0.4667    0.0000 </r>
        <r>    0.4677    0.0000 </r>
        <r>    0.4696    0.0000 </r>
        <r>    1.5932    0.0000 </r>
        <r>    1.6108    0.0000 </r>
        <r>    1.6174    0.0000 </r>
        <r>    1.6259    0.0000 </r>
        <r>    1.7439    0.0000 </r>
        <r>    1.7998    0.0000 </r>
        <r>    1.8555    0.0000 </r>
        <r>    1.8646    0.0000 </r>
        <r>    1.8916    0.0000 </r>
        <r>    2.5436    0.0000 </r>
        <r>    2.6007    0.0000 </r>
        <r>    2.6341    0.0000 </r>
        <r>    2.6671    0.0000 </r>
        <r>    2.6966    0.0000 </r>
        <r>    3.1188    0.0000 </r>
        <r>    3.5707    0.0000 </r>
        <r>    3.6076    0.0000 </r>
        <r>    3.7188    0.0000 </r>
        <r>    3.8904    0.0000 </r>
        <r>    3.8963    0.0000 </r>
        <r>    4.1905    0.0000 </r>
        <r>    4.7602    0.0000 </r>
       </set>
      </set>
      <set comment="spin 2">
       <set comment="kpoint 1">
        <r>  -31.7006    1.0000 </r>
        <r>  -15.7500    1.0000 </r>
        <r>  -15.7500    1.0000 </r>
        <r>  -15.7500    1.0000 </r>
        <r>   -1.3647    0.0000 </r>
        <r>    0.7864    0.0000 </r>
        <r>    0.7884    0.0000 </r>
        <r>    0.7945    0.0000 </r>
        <r>    1.1894    0.0000 </r>
        <r>    1.1969    0.0000 </r>
        <r>    1.2631    0.0000 </r>
        <r>    1.2880    0.0000 </r>
        <r>    1.2940    0.0000 </r>
        <r>    1.2982    0.0000 </r>
        <r>    2.8466    0.0000 </r>
        <r>    2.8469    0.0000 </r>
        <r>    2.8544    0.0000 </r>
        <r>    2.8595    0.0000 </r>
        <r>    2.8606    0.0000 </r>
        <r>    3.1825    0.0000 </r>
        <r>    3.6289    0.0000 </r>
        <r>    3.6337    0.0000 </r>
        <r>    3.6722    0.0000 </r>
        <r>    3.9040    0.0000 </r>
        <r>    3.9346    0.0000 </r>
        <r>    4.0164    0.0000 </r>
        <r>    4.1698    0.0000 </r>
        <r>    4.2065    0.0000 </r>
        <r>    4.4660    0.0000 </r>
        <r>    4.9471    0.0000 </r>
        <r>    4.9696    0.0000 </r>
        <r>    5.1038    0.0000 </r>
        <r>    5.1256    0.0000 </r>
        <r>    5.2706    0.0000 </r>
        <r>    6.2362    0.0000 </r>
        <r>    6.3878    0.0000 </r>
       </set>
      </set>
     </set>
    </array>
   </eigenvalues>
   <array>
    <dimension dim="1">ion</dimension>
    <dimension dim="2">band</dimension>
    <dimension dim="3">kpoint</dimension>
    <dimension dim="4">spin</dimension>
    <field>    s</field>
    <field>   py</field>
    <field>   pz</field>
    <field>   px</field>
    <field>  dxy</field>
    <field>  dyz</field>
    <field>  dz2</field>
    <field>  dxz</field>
    <field>x2-y2</field>
    <set>
     <set comment="spin1">
      <set comment="kpoint 1">
       <set comment="band 1">
        <r>  0.9621  0.0000  0.0000  0.0000  0.0000  0.0000  0.0000  0.0000  0.0000 </r>
       </set>
       <set comment="band 2">
        <r>  0.0000  0.8335  0.0405  0.0107  0.0000  0.0000  0.0000  0.0000  0.0000 </r>
       </set>
       <set comment="band 3">
        <r>  0.0000  0.0286  0.1026  0.7535  0.0000  0.0000  0.0000  0.0000  0.0000 </r>
       </set>
       <set comment="band 4">
        <r>  0.0000  0.0227  0.7416  0.1205  0.0000  0.0000  0.0000  0.0000  0.0000 </r>
       </set>
       <set comment="band 5">
        <r>  0.0431  0.0000  0.0000  0.0000  0.0000  0.0000  0.0000  0.0000  0.0000 </r>
       </set>
       <set comment="band 6">
        <r>  0.0000  0.0008  0.0008  0.0223  0.0000  0.0000  0.0000  0.0000  0.0000 </r>
       </set>
       <set comment="band 7">
        <r>  0.0000  0.0028  0.0193  0.0014  0.0000  0.0001  0.0000  0.0001  0.0001 </r>
       </set>
       <set comment="band 8">
        <r>  0.0000  0.0199  0.0029  0.0003  0.0000  0.0000  0.0004  0.0000  0.0000 </r>
       </set>
       <set comment="band 9">
        <r>  0.0000  0.0000  0.0000  0.0000  0.0000  0.0000  0.0188  0.0000  0.0305 </r>
       </set>
       <set comment="band 10">
        <r>  0.0000  0.0001  0.0000  0.0000  0.0000  0.0000  0.0277  0.0000  0.0177 </r>
       </set>
       <set comment="band 11">
        <r>  0.0232  0.0000  0.0000  0.0000  0.0000  0.0000  0.0001  0.0000  0.0000 </r>
       </set>
       <set comment="band 12">
        <r>  0.0000  0.0000  0.0000  0.0000  0.0311  0.0062  0.0000  0.0834  0.0000 </r>
       </set>
       <set comment="band 13">
        <r>  0.0000  0.0000  0.0000  0.0000  0.0859  0.0114  0.0000  0.0222  0.0000 </r>
       </set>
       <set comment="band 14">
        <r>  0.0000  0.0000  0.0000  0.0000  0.0031  0.1020  0.0000  0.0138  0.0000 </r>
       </set>
       <set comment="band 15">
        <r>  0.0001  0.0051  0.0030  0.0037  0.0000  0.0000  0.0000  0.0000  0.0015 </r>
       </set>
       <set comment="band 16">
        <r>  0.0000  0.0003  0.0001  0.0000  0.0000  0.0000  0.0192  0.0000  0.0855 </r>
       </set>
       <set comment="band 17">
        <r>  0.0001  0.0000  0.0001  0.0002  0.0000  0.0001  0.0763  0.0001  0.0168 </r>
       </set>
       <set comment="band 18">
        <r>  0.0001  0.0028  0.0011  0.0066  0.0000  0.0004  0.0021  0.0000  0.0004 </r>
       </set>
       <set comment="band 19">
        <r>  0.0038  0.0024  0.0044  0.0000  0.0000  0.0000  0.0000  0.0003  0.0003 </r>
       </set>
       <set comment="band 20">
        <r>  0.0001  0.0015  0.0019  0.0004  0.0001  0.0002  0.0001  0.0002  0.0003 </r>
       </set>
       <set comment="band 21">
        <r>  0.0000  0.0003  0.0009  0.0014  0.0000  0.0015  0.0039  0.0000  0.0042 </r>
       </set>
       <set comment="band 22">
        <r>  0.0158  0.0003  0.0018  0.0000  0.0000  0.0001  0.0001  0.0001  0.0002 </r>
       </set>
       <set comment="band 23">
        <r>  0.0001  0.0002  0.0000  0.0001  0.0002  0.0000  0.0010  0.0000  0.0001 </r>
       </set>
       <set comment="band 24">
        <r>  0.0000  0.0002  0.0001  0.0001  0.0017  0.0023  0.0078  0.0120  0.0972 </r>
       </set>
       <set comment="band 25">
        <r>  0.0000  0.0001  0.0002  0.0000  0.0013  0.0245  0.0680  0.0180  0.0041 </r>
       </set>
       <set comment="band 26">
        <r>  0.0000  0.0000  0.0000  0.0000  0.0098  0.0441  0.0562  0.0061  0.0020 </r>
       </set>
       <set comment="band 27">
        <r>  0.0001  0.0001  0.0001  0.0000  0.0039  0.0117  0.0034  0.0610  0.0279 </r>
       </set>
       <set comment="band 28">
        <r>  0.0000  0.0000  0.0000  0.0000  0.0838  0.0137  0.0016  0.0014  0.0002 </r>
       </set>
       <set comment="band 29">
        <r>  0.0000  0.0000  0.0001  0.0006  0.0002  0.0013  0.0002  0.0002  0.0001 </r>
       </set>
       <set comment="band 30">
        <r>  0.0025  0.0000  0.0001  0.0001  0.0091  0.0104  0.0001  0.0026  0.0005 </r>
       </set>
       <set comment="band 31">
        <r>  0.0001  0.0015  0.0007  0.0000  0.0255  0.0017  0.0013  0.0310  0.0000 </r>
       </set>
       <set comment="band 32">
        <r>  0.0047  0.0000  0.0001  0.0001  0.0000  0.0002  0.0000  0.0003  0.0000 </r>
       </set>
       <set comment="band 33">
        <r>  0.0000  0.0000  0.0001  0.0008  0.0096  0.1162  0.0001  0.0067  0.0001 </r>
       </set>
       <set comment="band 34">
        <r>  0.0001  0.0001  0.0001  0.0002  0.0984  0.0080  0.0000  0.0223  0.0001 </r>
       </set>
       <set comment="band 35">
        <r>  0.0105  0.0004  0.0002  0.0012  0.0028  0.0033  0.0000  0.0077  0.0000 </r>
       </set>
       <set comment="band 36">
        <r>  0.0024  0.0014  0.0000  0.0002  0.0002  0.0075  0.0142  0.0007  0.0003 </r>
       </set>
      </set>
     </set>
     <set comment="spin2">
      <set comment="kpoint 1">
       <set comment="band 1">
        <r>  0.9646  0.0000  0.0000  0.0000  0.0000  0.0000  0.0000  0.0000  0.0000 </r>
       </set>
       <set comment="band 2">
        <r>  0.0000  0.4461  0.2100  0.2300  0.0000  0.0000  0.0000  0.0000  0.0000 </r>
       </set>
       <set comment="band 3">
        <r>  0.0000  0.4283  0.1181  0.3399  0.0000  0.0000  0.0000  0.0000  0.0000 </r>
       </set>
       <set comment="band 4">
        <r>  0.0000  0.0118  0.5581  0.3163  0.0000  0.0000  0.0000  0.0000  0.0000 </r>
       </set>
       <set comment="band 5">
        <r>  0.0564  0.0000  0.0000  0.0000  0.0000  0.0000  0.0000  0.0000  0.0000 </r>
       </set>
       <set comment="band 6">
        <r>  0.0000  0.0017  0.0070  0.0220  0.0001  0.0000  0.0000  0.0001  0.0001 </r>
       </set>
       <set comment="band 7">
        <r>  0.0000  0.0000  0.0226  0.0079  0.0003  0.0000  0.0001  0.0001  0.0000 </r>
       </set>
       <set comment="band 8">
        <r>  0.0000  0.0284  0.0006  0.0010  0.0007  0.0001  0.0002  0.0006  0.0008 </r>
       </set>
       <set comment="band 9">
        <r>  0.0000  0.0001  0.0000  0.0000  0.0001  0.0003  0.0818  0.0003  0.0378 </r>
       </set>
       <set comment="band 10">
        <r>  0.0000  0.0000  0.0000  0.0000  0.0002  0.0014  0.0376  0.0002  0.0787 </r>
       </set>
       <set comment="band 11">
        <r>  0.0151  0.0000  0.0000  0.0000  0.0000  0.0000  0.0000  0.0000  0.0000 </r>
       </set>
       <set comment="band 12">
        <r>  0.0000  0.0000  0.0000  0.0000  0.1514  0.0090  0.0000  0.0253  0.0001 </r>
       </set>
       <set comment="band 13">
        <r>  0.0000  0.0000  0.0000  0.0000  0.0002  0.1157  0.0000  0.0639  0.0006 </r>
       </set>
       <set comment="band 14">
        <r>  0.0000  0.0001  0.0000  0.0000  0.0326  0.0539  0.0000  0.0874  0.0000 </r>
       </set>
       <set comment="band 15">
        <r>  0.0000  0.0128  0.0001  0.0004  0.0000  0.0001  0.0001  0.0000  0.0024 </r>
       </set>
       <set comment="band 16">
        <r>  0.0000  0.0001  0.0124  0.0001  0.0000  0.0000  0.0000  0.0001  0.0029 </r>
       </set>
       <set comment="band 17">
        <r>  0.0001  0.0003  0.0002  0.0119  0.0001  0.0000  0.0001  0.0000  0.0001 </r>
       </set>
       <set comment="band 18">
        <r>  0.0000  0.0001  0.0002  0.0000  0.0000  0.0000  0.0502  0.0000  0.0581 </r>
       </set>
       <set comment="band 19">
        <r>  0.0000  0.0002  0.0001  0.0000  0.0000  0.0000  0.0589  0.0000  0.0467 </r>
       </set>
       <set comment="band 20">
        <r>  0.0215  0.0000  0.0001  0.0000  0.0000  0.0000  0.0000  0.0000  0.0000 </r>
       </set>
       <set comment="band 21">
        <r>  0.0000  0.0000  0.0000  0.0001  0.0000  0.0007  0.0000  0.0001  0.0004 </r>
       </set>
       <set comment="band 22">
        <r>  0.0000  0.0000  0.0001  0.0000  0.0001  0.0000  0.0000  0.0019  0.0000 </r>
       </set>
       <set comment="band 23">
        <r>  0.0000  0.0000  0.0000  0.0000  0.0017  0.0025  0.0008  0.0063  0.0000 </r>
       </set>
       <set comment="band 24">
        <r>  0.0000  0.0000  0.0000  0.0000  0.0761  0.0243  0.0011  0.0011  0.0012 </r>
       </set>
       <set comment="band 25">
        <r>  0.0000  0.0000  0.0000  0.0000  0.0183  0.0639  0.0065  0.0004  0.0081 </r>
       </set>
       <set comment="band 26">
        <r>  0.0000  0.0000  0.0000  0.0000  0.0004  0.0054  0.0129  0.0550  0.0260 </r>
       </set>
       <set comment="band 27">
        <r>  0.0000  0.0000  0.0000  0.0000  0.0008  0.0037  0.0077  0.0129  0.0928 </r>
       </set>
       <set comment="band 28">
        <r>  0.0000  0.0000  0.0000  0.0000  0.0014  0.0034  0.1004  0.0135  0.0013 </r>
       </set>
       <set comment="band 29">
        <r>  0.0003  0.0006  0.0000  0.0000  0.0078  0.0002  0.0004  0.0009  0.0007 </r>
       </set>
       <set comment="band 30">
        <r>  0.0001  0.0015  0.0000  0.0028  0.0014  0.0000  0.0012  0.0147  0.0000 </r>
       </set>
       <set comment="band 31">
        <r>  0.0000  0.0011  0.0021  0.0016  0.0046  0.0382  0.0000  0.0002  0.0000 </r>
       </set>
       <set comment="band 32">
        <r>  0.0000  0.0000  0.0015  0.0007  0.0408  0.0012  0.0000  0.0643  0.0005 </r>
       </set>
       <set comment="band 33">
        <r>  0.0002  0.0000  0.0037  0.0001  0.0000  0.0562  0.0000  0.0401  0.0001 </r>
       </set>
       <set comment="band 34">
        <r>  0.0162  0.0001  0.0000  0.0001  0.0018  0.0000  0.0000  0.0004  0.0000 </r>
       </set>
       <set comment="band 35">
        <r>  0.0068  0.0008  0.0018  0.0002  0.0022  0.0000  0.0011  0.0015  0.0022 </r>
       </set>
       <set comment="band 36">
        <r>  0.0005  0.0001  0.0024  0.0005  0.0019  0.0004  0.0015  0.0000  0.0178 </r>
       </set>
      </set>
     </set>
    </set>
   </array>
  </projected>
 </calculation>
 <structure name="finalpos" >
  <crystal>
   <varray name="basis" >
    <v>      10.00000000       0.00000000       0.00000000 </v>
    <v>       0.00000000      10.00000000       0.00000000 </v>
    <v>       0.00000000       0.00000000      10.00000000 </v>
   </varray>
   <i name="volume">   1000.00000000 </i>
   <varray name="rec_basis" >
    <v>       0.10000000       0.00000000       0.00000000 </v>
    <v>       0.00000000       0.10000000       0.00000000 </v>
    <v>       0.00000000       0.00000000       0.10000000 </v>
   </varray>
  </crystal>
  <varray name="positions" >
   <v>       0.50000000       0.50000000       0.50000000 </v>
  </varray>
 </structure>
</modeling>
