       N       E                     dE             d eps       ncg     rms          ort
DAV:   1     0.896779513422E+02    0.89678E+02   -0.35870E+03    36   0.216E+02
DAV:   2     0.784289164849E+01   -0.81835E+02   -0.81835E+02    36   0.605E+01
DAV:   3    -0.795380124894E+00   -0.86383E+01   -0.83576E+01    36   0.240E+01
DAV:   4    -0.187689747345E+01   -0.10815E+01   -0.10735E+01    36   0.959E+00
DAV:   5    -0.211707889517E+01   -0.24018E+00   -0.23565E+00    36   0.284E+00
SDA:   6    -0.882671655814E+00    0.12344E+01   -0.22995E+01    36   0.575E+01 0.000E+00
DMP:   7    -0.127312585013E+01   -0.39045E+00   -0.17417E+01    36   0.569E+01-0.349E+01
DMP:   8    -0.146939417830E+01   -0.19627E+00   -0.13700E+01    36   0.474E+01-0.344E+01
DMP:   9    -0.309791333794E+00    0.11596E+01   -0.55012E+01    36   0.165E+02-0.713E+01
DMP:  10    -0.369657587358E+00   -0.59866E-01   -0.41193E+01    36   0.139E+02-0.936E+01
DMP:  11    -0.207031646365E+01   -0.17007E+01   -0.61515E+00    36   0.294E+01-0.367E+01
DMP:  12    -0.191668647971E+01    0.15363E+00   -0.46521E+01    36   0.125E+02-0.229E+01
DMP:  13    -0.182959240687E+01    0.87094E-01   -0.10805E+01    36   0.373E+01-0.271E+01
DMP:  14    -0.236202029177E+01   -0.53243E+00   -0.51000E-01    36   0.514E+00-0.101E+01
DMP:  15    -0.184102011701E+01    0.52100E+00   -0.57194E+01    36   0.154E+02-0.298E+01
DMP:  16    -0.188308209444E+01   -0.42062E-01   -0.68791E+00    36   0.263E+01-0.237E+01
DMP:  17    -0.238529727014E+01   -0.50222E+00   -0.35440E+00    36   0.496E+00 0.102E+01
DMP:  18    -0.736430168470E+00    0.16489E+01   -0.36159E+01    36   0.102E+02-0.298E+01
DMP:  19    -0.166633896123E+01   -0.92991E+00   -0.73898E+00    36   0.330E+01-0.380E+01
DMP:  20    -0.219701390096E+01   -0.53067E+00   -0.38834E+00    36   0.681E+00 0.759E+00
DMP:  21    -0.218516578674E+01    0.11848E-01   -0.94114E+00    36   0.484E+01-0.650E+01
DMP:  22    -0.238092761243E+01   -0.19576E+00   -0.51383E-01    36   0.223E+00-0.248E+00
DMP:  23    -0.242377859399E+01   -0.42851E-01   -0.15507E-01    36   0.808E-01-0.110E+00
DMP:  24    -0.243365286626E+01   -0.98743E-02   -0.44818E-02    36   0.694E-02 0.112E-01
DMP:  25    -0.243452763807E+01   -0.87477E-03   -0.11024E-01    36   0.301E-01-0.669E-02
DMP:  26    -0.242725336871E+01    0.72743E-02   -0.72487E-01    36   0.210E+00-0.744E-01
DMP:  27    -0.239738139166E+01    0.29872E-01   -0.18485E+00    36   0.552E+00-0.235E+00
DMP:  28    -0.217501851163E+01    0.22236E+00   -0.23559E+01    36   0.675E+01-0.225E+01
DMP:  29    -0.213207727139E+01    0.42941E-01   -0.28799E+00    36   0.102E+01-0.782E+00
DMP:  30    -0.234671706817E+01   -0.21464E+00   -0.44036E+00    36   0.226E+01-0.302E+01
DMP:  31    -0.237466755123E+01   -0.27950E-01   -0.23810E+00    36   0.767E+00-0.449E+00
DMP:  32    -0.211431752812E+01    0.26035E+00   -0.28852E+01    36   0.833E+01-0.292E+01
DMP:  33    -0.210066830931E+01    0.13649E-01   -0.29553E+00    36   0.107E+01-0.866E+00
DMP:  34    -0.239828895228E+01   -0.29762E+00   -0.72890E-01    36   0.932E+00-0.196E+01
DMP:  35    -0.243701902608E+01   -0.38730E-01   -0.10184E-01    36   0.169E-01 0.223E-01
DMP:  36    -0.242146817152E+01    0.15551E-01   -0.99101E-01    36   0.283E+00-0.913E-01
DMP:  37    -0.230121825417E+01    0.12025E+00   -0.12337E+01    36   0.350E+01-0.109E+01
DMP:  38    -0.217909586507E+01    0.12212E+00   -0.33416E+00    36   0.110E+01-0.684E+00
DMP:  39    -0.190671389001E+01    0.27238E+00   -0.39578E+01    36   0.125E+02-0.683E+01
DMP:  40    -0.206378062432E+01   -0.15707E+00   -0.30677E+00    36   0.115E+01-0.998E+00
DMP:  41    -0.243685375688E+01   -0.37307E+00    0.15892E-02    36   0.407E-02-0.210E-01
DMP:  42    -0.183355690228E+01    0.60330E+00   -0.51780E+01    36   0.141E+02-0.289E+01
DMP:  43    -0.197548870453E+01   -0.14193E+00   -0.36633E+00    36   0.145E+01-0.140E+01
DMP:  44    -0.234100413259E+01   -0.36552E+00   -0.59084E+00    36   0.955E+00 0.137E+01
DMP:  45    -0.879244469540E+00    0.14618E+01   -0.17937E+01    36   0.523E+01-0.194E+01
DMP:  46    -0.188650664296E+01   -0.10073E+01   -0.36275E+00    36   0.179E+01-0.231E+01
DMP:  47    -0.234947868277E+01   -0.46297E+00   -0.75444E+00    36   0.122E+01 0.175E+01
DMP:  48    -0.111014630029E+01    0.12393E+01   -0.14688E+01    36   0.434E+01-0.175E+01
DMP:  49    -0.183109160325E+01   -0.72095E+00   -0.47262E+00    36   0.206E+01-0.229E+01
DMP:  50    -0.233631449207E+01   -0.50522E+00   -0.37036E+00    36   0.234E+01-0.370E+01
DMP:  51    -0.237925245753E+01   -0.42938E-01   -0.30625E+00    36   0.948E+00-0.477E+00
DMP:  52    -0.203428386472E+01    0.34497E+00   -0.33068E+01    36   0.930E+01-0.269E+01
DMP:  53    -0.192321325907E+01    0.11107E+00   -0.49279E+00    36   0.166E+01-0.113E+01
DMP:  54    -0.221320147304E+01   -0.28999E+00   -0.13265E+01    36   0.576E+01-0.640E+01
DMP:  55    -0.221551641911E+01   -0.23149E-02   -0.49238E+00    36   0.156E+01-0.855E+00
DMP:  56    -0.155775598877E+01    0.65776E+00   -0.48219E+01    36   0.142E+02-0.572E+01
DMP:  57    -0.187553357194E+01   -0.31778E+00   -0.47137E+00    36   0.184E+01-0.173E+01
DMP:  58    -0.234339044644E+01   -0.46786E+00   -0.69026E+00    36   0.107E+01 0.170E+01
DMP:  59    -0.897016649781E+00    0.14464E+01   -0.17588E+01    36   0.516E+01-0.201E+01
DMP:  60    -0.186221100130E+01   -0.96519E+00   -0.40048E+00    36   0.192E+01-0.241E+01
DMP:  61    -0.241604578541E+01   -0.55383E+00   -0.29486E+00    36   0.321E+00 0.109E+01
DMP:  62    -0.134737541664E+01    0.10687E+01   -0.23053E+01    36   0.653E+01-0.200E+01
DMP:  63    -0.172453879745E+01   -0.37716E+00   -0.61558E+00    36   0.243E+01-0.233E+01
DMP:  64    -0.241362236430E+01   -0.68908E+00   -0.36529E+00    36   0.370E+00 0.142E+01
DMP:  65    -0.118400943887E+01    0.12296E+01   -0.17769E+01    36   0.509E+01-0.169E+01
DMP:  66    -0.174187406776E+01   -0.55786E+00   -0.57617E+00    36   0.239E+01-0.247E+01
DMP:  67    -0.243059092379E+01   -0.68872E+00   -0.40487E-01    36   0.158E-01 0.224E+00
DMP:  68    -0.151137214773E+01    0.91922E+00   -0.38886E+01    36   0.107E+02-0.256E+01
DMP:  69    -0.171147757401E+01   -0.20011E+00   -0.66128E+00    36   0.251E+01-0.224E+01
DMP:  70    -0.236268963232E+01   -0.65121E+00   -0.74465E+00    36   0.104E+01 0.215E+01
DMP:  71    -0.926424935037E+00    0.14363E+01   -0.17603E+01    36   0.518E+01-0.205E+01
DMP:  72    -0.183449257618E+01   -0.90807E+00   -0.61540E+00    36   0.271E+01-0.308E+01
DMP:  73    -0.187023423010E+01   -0.35742E-01   -0.20310E+01    36   0.682E+01-0.457E+01
DMP:  74    -0.177850507332E+01    0.91729E-01   -0.81262E+00    36   0.263E+01-0.158E+01
DMP:  75    -0.157016507348E+01    0.20834E+00   -0.15829E+01    36   0.547E+01-0.396E+01
DMP:  76    -0.183005482534E+01   -0.25989E+00   -0.63826E+00    36   0.226E+01-0.173E+01
DMP:  77    -0.181770618163E+01    0.12349E-01   -0.28971E+01    36   0.994E+01-0.705E+01
DMP:  78    -0.189432305720E+01   -0.76617E-01   -0.55852E+00    36   0.189E+01-0.129E+01
DMP:  79    -0.194695405877E+01   -0.52631E-01   -0.30082E+01    36   0.107E+02-0.822E+01
DMP:  80    -0.200724003510E+01   -0.60286E-01   -0.44644E+00    36   0.151E+01-0.102E+01
DMP:  81    -0.195906495745E+01    0.48175E-01   -0.32692E+01    36   0.112E+02-0.788E+01
DMP:  82    -0.203271948544E+01   -0.73655E-01   -0.39115E+00    36   0.136E+01-0.989E+00
DMP:  83    -0.217658651325E+01   -0.14387E+00   -0.17520E+01    36   0.673E+01-0.615E+01
DMP:  84    -0.216988371821E+01    0.67028E-02   -0.40218E+00    36   0.132E+01-0.814E+00
DMP:  85    -0.171334821612E+01    0.45654E+00   -0.48667E+01    36   0.148E+02-0.702E+01
DMP:  86    -0.194348447693E+01   -0.23014E+00   -0.42833E+00    36   0.163E+01-0.147E+01
DMP:  87    -0.241035367899E+01   -0.46687E+00   -0.34993E+00    36   0.416E+00 0.120E+01
DMP:  88    -0.106577302796E+01    0.13446E+01   -0.26416E+01    36   0.746E+01-0.223E+01
DMP:  89    -0.177314810459E+01   -0.70738E+00   -0.52225E+00    36   0.231E+01-0.262E+01
DMP:  90    -0.224938427857E+01   -0.47624E+00   -0.86230E+00    36   0.151E+01 0.169E+01
DMP:  91    -0.808569528431E+00    0.14408E+01   -0.18005E+01    36   0.553E+01-0.268E+01
DMP:  92    -0.194343766192E+01   -0.11349E+01   -0.63259E+00    36   0.292E+01-0.350E+01
DMP:  93    -0.191735592547E+01    0.26082E-01   -0.22638E+01    36   0.729E+01-0.428E+01
DMP:  94    -0.177484081247E+01    0.14252E+00   -0.78698E+00    36   0.254E+01-0.150E+01
DMP:  95    -0.159172308173E+01    0.18312E+00   -0.19397E+01    36   0.668E+01-0.480E+01
DMP:  96    -0.184333793883E+01   -0.25161E+00   -0.59494E+00    36   0.210E+01-0.160E+01
DMP:  97    -0.195561792258E+01   -0.11228E+00   -0.27961E+01    36   0.100E+02-0.793E+01
DMP:  98    -0.198164701248E+01   -0.26029E-01   -0.50385E+00    36   0.167E+01-0.107E+01
DMP:  99    -0.178892338930E+01    0.19272E+00   -0.38585E+01    36   0.127E+02-0.797E+01
DMP: 100    -0.194773178379E+01   -0.15881E+00   -0.45154E+00    36   0.161E+01-0.126E+01
DMP: 101    -0.236810828951E+01   -0.42038E+00   -0.18272E+00    36   0.167E+01-0.318E+01
DMP: 102    -0.243273950238E+01   -0.64631E-01   -0.16394E-01    36   0.707E-01-0.777E-01
DMP: 103    -0.243143039153E+01    0.13091E-02   -0.46998E-01    36   0.138E+00-0.536E-01
DMP: 104    -0.240544829197E+01    0.25982E-01   -0.18834E+00    36   0.546E+00-0.196E+00
DMP: 105    -0.215837866324E+01    0.24707E+00   -0.25228E+01    36   0.711E+01-0.211E+01
DMP: 106    -0.205405342329E+01    0.10433E+00   -0.38360E+00    36   0.131E+01-0.908E+00
DMP: 107    -0.218471317046E+01   -0.13066E+00   -0.16974E+01    36   0.654E+01-0.601E+01
DMP: 108    -0.219155749708E+01   -0.68443E-02   -0.36855E+00    36   0.122E+01-0.770E+00
DMP: 109    -0.180998597177E+01    0.38157E+00   -0.46053E+01    36   0.141E+02-0.686E+01
DMP: 110    -0.199518549099E+01   -0.18520E+00   -0.37992E+00    36   0.144E+01-0.128E+01
DMP: 111    -0.242703965226E+01   -0.43185E+00   -0.18428E+00    36   0.169E+00 0.763E+00
DMP: 112    -0.125482095046E+01    0.11722E+01   -0.48314E+01    36   0.134E+02-0.338E+01
DMP: 113    -0.178334392277E+01   -0.52852E+00   -0.53265E+00    36   0.227E+01-0.246E+01
DMP: 114    -0.221290666174E+01   -0.42956E+00   -0.57455E+00    36   0.103E+01 0.108E+01
DMP: 115    -0.699639924083E+00    0.15133E+01   -0.19170E+01    36   0.592E+01-0.294E+01
DMP: 116    -0.194587245063E+01   -0.12462E+01   -0.46561E+00    36   0.229E+01-0.295E+01
DMP: 117    -0.208234056840E+01   -0.13647E+00   -0.20683E+01    36   0.708E+01-0.499E+01
DMP: 118    -0.191285689546E+01    0.16948E+00   -0.76518E+00    36   0.241E+01-0.130E+01
DMP: 119    -0.147399023709E+01    0.43887E+00   -0.16061E+01    36   0.531E+01-0.340E+01
DMP: 120    -0.181948877254E+01   -0.34550E+00   -0.59751E+00    36   0.220E+01-0.185E+01
DMP: 121    -0.201200648487E+01   -0.19252E+00   -0.24437E+01    36   0.900E+01-0.757E+01
DMP: 122    -0.199455225376E+01    0.17454E-01   -0.55710E+00    36   0.180E+01-0.107E+01
DMP: 123    -0.158904425914E+01    0.40551E+00   -0.36965E+01    36   0.118E+02-0.661E+01
DMP: 124    -0.186378399585E+01   -0.27474E+00   -0.51958E+00    36   0.192E+01-0.162E+01
DMP: 125    -0.243230133192E+01   -0.56852E+00    0.52560E-01    36   0.404E-01-0.450E+00
DMP: 126    -0.178187691264E+01    0.65042E+00   -0.51630E+01    36   0.139E+02-0.271E+01
DMP: 127    -0.186513100660E+01   -0.83254E-01   -0.50632E+00    36   0.192E+01-0.171E+01
DMP: 128    -0.237591465844E+01   -0.51078E+00   -0.58876E+00    36   0.824E+00 0.170E+01
DMP: 129    -0.931165820040E+00    0.14447E+01   -0.18347E+01    36   0.530E+01-0.186E+01
DMP: 130    -0.181137780271E+01   -0.88021E+00   -0.46412E+00    36   0.215E+01-0.259E+01
DMP: 131    -0.240075978947E+01   -0.58938E+00   -0.47069E+00    36   0.590E+00 0.154E+01
DMP: 132    -0.122285660778E+01    0.11779E+01   -0.16367E+01    36   0.472E+01-0.165E+01
DMP: 133    -0.173502966259E+01   -0.51217E+00   -0.60149E+00    36   0.245E+01-0.247E+01
DMP: 134    -0.239295474345E+01   -0.65793E+00    0.21642E-01    36   0.937E+00-0.260E+01
DMP: 135    -0.236544797462E+01    0.27507E-01   -0.67463E+00    36   0.172E+01-0.783E-01
DMP: 136    -0.213833989424E+01    0.22711E+00   -0.66297E+00    36   0.198E+01-0.857E+00
DMP: 137    -0.134295394319E+01    0.79539E+00   -0.25882E+01    36   0.785E+01-0.361E+01
DMP: 138    -0.179088309324E+01   -0.44793E+00   -0.56530E+00    36   0.222E+01-0.210E+01
DMP: 139    -0.242501913365E+01   -0.63414E+00   -0.22733E+00    36   0.191E+00 0.988E+00
DMP: 140    -0.124642296056E+01    0.11786E+01   -0.26008E+01    36   0.732E+01-0.214E+01
DMP: 141    -0.172613347594E+01   -0.47971E+00   -0.60447E+00    36   0.248E+01-0.253E+01
DMP: 142    -0.233958190988E+01   -0.61345E+00   -0.85819E+00    36   0.130E+01 0.222E+01
DMP: 143    -0.945207967607E+00    0.13944E+01   -0.17006E+01    36   0.508E+01-0.216E+01
DMP: 144    -0.186550447929E+01   -0.92030E+00   -0.69248E+00    36   0.301E+01-0.334E+01
DMP: 145    -0.182660768671E+01    0.38897E-01   -0.17628E+01    36   0.580E+01-0.365E+01
DMP: 146    -0.174227641310E+01    0.84331E-01   -0.86065E+00    36   0.281E+01-0.173E+01
DMP: 147    -0.158427677147E+01    0.15800E+00   -0.13171E+01    36   0.463E+01-0.351E+01
DMP: 148    -0.183279294505E+01   -0.24852E+00   -0.71653E+00    36   0.251E+01-0.188E+01
DMP: 149    -0.167790147336E+01    0.15489E+00   -0.21174E+01    36   0.712E+01-0.478E+01
DMP: 150    -0.181813595335E+01   -0.14023E+00   -0.63924E+00    36   0.221E+01-0.161E+01
DMP: 151    -0.188139164219E+01   -0.63256E-01   -0.29327E+01    36   0.104E+02-0.794E+01
DMP: 152    -0.194502902604E+01   -0.63637E-01   -0.51953E+00    36   0.174E+01-0.115E+01
DMP: 153    -0.187754904091E+01    0.67480E-01   -0.34894E+01    36   0.119E+02-0.826E+01
DMP: 154    -0.198161661860E+01   -0.10407E+00   -0.43757E+00    36   0.152E+01-0.111E+01
DMP: 155    -0.220870743170E+01   -0.22709E+00   -0.14266E+01    36   0.586E+01-0.601E+01
DMP: 156    -0.219883412410E+01    0.98733E-02   -0.46592E+00    36   0.149E+01-0.853E+00
DMP: 157    -0.158672452858E+01    0.61211E+00   -0.49526E+01    36   0.147E+02-0.620E+01
DMP: 158    -0.187805699161E+01   -0.29133E+00   -0.48707E+00    36   0.189E+01-0.175E+01
DMP: 159    -0.236591753135E+01   -0.48786E+00   -0.61698E+00    36   0.907E+00 0.166E+01
DMP: 160    -0.914207743953E+00    0.14517E+01   -0.18372E+01    36   0.533E+01-0.194E+01
DMP: 161    -0.182273395463E+01   -0.90853E+00   -0.45154E+00    36   0.211E+01-0.257E+01
DMP: 162    -0.239975724384E+01   -0.57702E+00   -0.47503E+00    36   0.605E+00 0.152E+01
DMP: 163    -0.122042736221E+01    0.11793E+01   -0.16541E+01    36   0.477E+01-0.166E+01
DMP: 164    -0.173566126891E+01   -0.51523E+00   -0.60095E+00    36   0.245E+01-0.247E+01
DMP: 165    -0.240067308269E+01   -0.66501E+00    0.53528E-01    36   0.744E+00-0.230E+01
DMP: 166    -0.231636831554E+01    0.84305E-01   -0.11574E+01    36   0.300E+01-0.282E+00
DMP: 167    -0.206810879237E+01    0.24826E+00   -0.56570E+00    36   0.174E+01-0.856E+00
DMP: 168    -0.141266615219E+01    0.65544E+00   -0.32723E+01    36   0.101E+02-0.510E+01
DMP: 169    -0.182393800882E+01   -0.41127E+00   -0.53933E+00    36   0.208E+01-0.192E+01
DMP: 170    -0.241511495499E+01   -0.59118E+00   -0.34007E+00    36   0.359E+00 0.129E+01
DMP: 171    -0.113826919730E+01    0.12768E+01   -0.21725E+01    36   0.616E+01-0.192E+01
DMP: 172    -0.174757248316E+01   -0.60930E+00   -0.56402E+00    36   0.240E+01-0.258E+01
DMP: 173    -0.235599825138E+01   -0.60843E+00   -0.79230E+00    36   0.117E+01 0.213E+01
DMP: 174    -0.101959540274E+01    0.13364E+01   -0.16231E+01    36   0.482E+01-0.199E+01
DMP: 175    -0.183761315274E+01   -0.81802E+00   -0.70092E+00    36   0.297E+01-0.320E+01
DMP: 176    -0.180623570508E+01    0.31377E-01   -0.16455E+01    36   0.548E+01-0.358E+01
DMP: 177    -0.174841248968E+01    0.57823E-01   -0.87024E+00    36   0.286E+01-0.178E+01
DMP: 178    -0.158276612508E+01    0.16565E+00   -0.12348E+01    36   0.434E+01-0.329E+01
DMP: 179    -0.183227848007E+01   -0.24951E+00   -0.75232E+00    36   0.264E+01-0.198E+01
DMP: 180    -0.165557639230E+01    0.17670E+00   -0.17784E+01    36   0.599E+01-0.404E+01
DMP: 181    -0.180429251868E+01   -0.14872E+00   -0.67577E+00    36   0.234E+01-0.172E+01
DMP: 182    -0.176871929804E+01    0.35573E-01   -0.28081E+01    36   0.968E+01-0.696E+01
DMP: 183    -0.187736328310E+01   -0.10864E+00   -0.57124E+00    36   0.194E+01-0.135E+01
DMP: 184    -0.196768910471E+01   -0.90326E-01   -0.28985E+01    36   0.104E+02-0.825E+01
DMP: 185    -0.201419806766E+01   -0.46509E-01   -0.45385E+00    36   0.152E+01-0.998E+00
DMP: 186    -0.189579334308E+01    0.11840E+00   -0.36166E+01    36   0.121E+02-0.794E+01
DMP: 187    -0.200330538584E+01   -0.10751E+00   -0.40548E+00    36   0.143E+01-0.109E+01
DMP: 188    -0.229691453320E+01   -0.29361E+00   -0.73647E+00    36   0.358E+01-0.455E+01
DMP: 189    -0.231256134126E+01   -0.15647E-01   -0.42460E+00    36   0.133E+01-0.712E+00
DMP: 190    -0.175146927211E+01    0.56109E+00   -0.49842E+01    36   0.143E+02-0.492E+01
DMP: 191    -0.190923675301E+01   -0.15777E+00   -0.46664E+00    36   0.177E+01-0.158E+01
DMP: 192    -0.239655063193E+01   -0.48731E+00   -0.45891E+00    36   0.598E+00 0.144E+01
DMP: 193    -0.990905975665E+00    0.14056E+01   -0.20569E+01    36   0.587E+01-0.192E+01
DMP: 194    -0.179480782794E+01   -0.80390E+00   -0.49074E+00    36   0.222E+01-0.260E+01
DMP: 195    -0.231850203448E+01   -0.52369E+00   -0.89204E+00    36   0.146E+01 0.202E+01
DMP: 196    -0.967344237004E+00    0.13512E+01   -0.16498E+01    36   0.496E+01-0.219E+01
DMP: 197    -0.187586679679E+01   -0.90852E+00   -0.67728E+00    36   0.294E+01-0.327E+01
DMP: 198    -0.184041359637E+01    0.35453E-01   -0.19380E+01    36   0.636E+01-0.398E+01
DMP: 199    -0.175718332464E+01    0.83230E-01   -0.81512E+00    36   0.266E+01-0.164E+01
DMP: 200    -0.159824302291E+01    0.15894E+00   -0.16736E+01    36   0.582E+01-0.428E+01
DMP: 201    -0.183500984010E+01   -0.23677E+00   -0.63469E+00    36   0.222E+01-0.167E+01
DMP: 202    -0.179304576518E+01    0.41964E-01   -0.30177E+01    36   0.103E+02-0.726E+01
DMP: 203    -0.188838923514E+01   -0.95343E-01   -0.55334E+00    36   0.188E+01-0.131E+01
DMP: 204    -0.201200851028E+01   -0.12362E+00   -0.26934E+01    36   0.983E+01-0.812E+01
DMP: 205    -0.204291659630E+01   -0.30908E-01   -0.44461E+00    36   0.147E+01-0.948E+00
DMP: 206    -0.181603621533E+01    0.22688E+00   -0.40544E+01    36   0.131E+02-0.788E+01
DMP: 207    -0.197082483377E+01   -0.15479E+00   -0.42230E+00    36   0.153E+01-0.123E+01
DMP: 208    -0.240340317379E+01   -0.43258E+00    0.56391E-02    36   0.774E+00-0.206E+01
DMP: 209    -0.239661878019E+01    0.67844E-02   -0.38785E+00    36   0.976E+00-0.173E-01
DMP: 210    -0.225512829615E+01    0.14149E+00   -0.47678E+00    36   0.145E+01-0.664E+00
DMP: 211    -0.153560432827E+01    0.71952E+00   -0.50237E+01    36   0.147E+02-0.557E+01
DMP: 212    -0.186579798835E+01   -0.33019E+00   -0.49206E+00    36   0.194E+01-0.185E+01
DMP: 213    -0.232635927193E+01   -0.46056E+00   -0.69869E+00    36   0.112E+01 0.163E+01
DMP: 214    -0.833025062992E+00    0.14933E+01   -0.18411E+01    36   0.545E+01-0.223E+01
DMP: 215    -0.187362587908E+01   -0.10406E+01   -0.45224E+00    36   0.217E+01-0.271E+01
DMP: 216    -0.220126839938E+01   -0.32764E+00   -0.13129E+01    36   0.518E+01-0.497E+01
DMP: 217    -0.208224308454E+01    0.11903E+00   -0.89559E+00    36   0.274E+01-0.131E+01
DMP: 218    -0.143146386771E+01    0.65078E+00   -0.14862E+01    36   0.467E+01-0.251E+01
DMP: 219    -0.178862964119E+01   -0.35717E+00   -0.61455E+00    36   0.231E+01-0.204E+01
DMP: 220    -0.205143058861E+01   -0.26280E+00   -0.21628E+01    36   0.821E+01-0.735E+01
DMP: 221    -0.201161848564E+01    0.39812E-01   -0.61564E+00    36   0.196E+01-0.111E+01
DMP: 222    -0.148791853250E+01    0.52370E+00   -0.29735E+01    36   0.938E+01-0.509E+01
DMP: 223    -0.182438828868E+01   -0.33647E+00   -0.55163E+00    36   0.207E+01-0.181E+01
DMP: 224    -0.243058342321E+01   -0.60620E+00    0.70012E-01    36   0.727E-01-0.649E+00
DMP: 225    -0.183817104597E+01    0.59241E+00   -0.48132E+01    36   0.130E+02-0.245E+01
DMP: 226    -0.186663241924E+01   -0.28461E-01   -0.51488E+00    36   0.191E+01-0.162E+01
DMP: 227    -0.241331452731E+01   -0.54668E+00   -0.34693E+00    36   0.375E+00 0.129E+01
DMP: 228    -0.107326974115E+01    0.13400E+01   -0.22856E+01    36   0.646E+01-0.196E+01
DMP: 229    -0.176030524399E+01   -0.68704E+00   -0.53796E+00    36   0.235E+01-0.263E+01
DMP: 230    -0.230327873524E+01   -0.54297E+00   -0.93521E+00    36   0.154E+01 0.210E+01
DMP: 231    -0.913721852539E+00    0.13896E+01   -0.17043E+01    36   0.515E+01-0.234E+01
DMP: 232    -0.190365065510E+01   -0.98993E+00   -0.70773E+00    36   0.311E+01-0.352E+01
DMP: 233    -0.184160202115E+01    0.62049E-01   -0.18773E+01    36   0.609E+01-0.365E+01
DMP: 234    -0.173856508690E+01    0.10304E+00   -0.84178E+00    36   0.275E+01-0.168E+01
DMP: 235    -0.159443048909E+01    0.14413E+00   -0.14928E+01    36   0.524E+01-0.395E+01
DMP: 236    -0.183492593611E+01   -0.24050E+00   -0.66675E+00    36   0.233E+01-0.174E+01
DMP: 237    -0.174248088563E+01    0.92445E-01   -0.26804E+01    36   0.905E+01-0.614E+01
DMP: 238    -0.185819373596E+01   -0.11571E+00   -0.58533E+00    36   0.201E+01-0.143E+01
DMP: 239    -0.200477253403E+01   -0.14658E+00   -0.25987E+01    36   0.955E+01-0.800E+01
DMP: 240    -0.202987941711E+01   -0.25107E-01   -0.47595E+00    36   0.157E+01-0.995E+00
DMP: 241    -0.175365022025E+01    0.27623E+00   -0.40818E+01    36   0.131E+02-0.768E+01
DMP: 242    -0.193804576541E+01   -0.18440E+00   -0.45217E+00    36   0.164E+01-0.135E+01
DMP: 243    -0.241926095752E+01   -0.48122E+00    0.70534E-01    36   0.371E+00-0.143E+01
DMP: 244    -0.224658695431E+01    0.17267E+00   -0.18636E+01    36   0.493E+01-0.697E+00
DMP: 245    -0.208761944274E+01    0.15897E+00   -0.36560E+00    36   0.123E+01-0.815E+00
DMP: 246    -0.201738139483E+01    0.70238E-01   -0.30527E+01    36   0.104E+02-0.728E+01
DMP: 247    -0.208657378590E+01   -0.69192E-01   -0.33594E+00    36   0.118E+01-0.888E+00
DMP: 248    -0.223448488392E+01   -0.14791E+00   -0.13319E+01    36   0.527E+01-0.509E+01
DMP: 249    -0.222450299849E+01    0.99819E-02   -0.39009E+00    36   0.127E+01-0.767E+00
DMP: 250    -0.173213721778E+01    0.49237E+00   -0.50030E+01    36   0.150E+02-0.649E+01
DMP: 251    -0.195584714860E+01   -0.22371E+00   -0.41155E+00    36   0.159E+01-0.146E+01
DMP: 252    -0.239420180909E+01   -0.43835E+00   -0.44897E+00    36   0.608E+00 0.135E+01
DMP: 253    -0.987092914348E+00    0.14071E+01   -0.21769E+01    36   0.620E+01-0.200E+01
DMP: 254    -0.179987561265E+01   -0.81278E+00   -0.48235E+00    36   0.220E+01-0.259E+01
DMP: 255    -0.228483603256E+01   -0.48496E+00   -0.91409E+00    36   0.157E+01 0.188E+01
DMP: 256    -0.901723175666E+00    0.13831E+01   -0.17015E+01    36   0.517E+01-0.240E+01
DMP: 257    -0.191242118143E+01   -0.10107E+01   -0.66057E+00    36   0.294E+01-0.338E+01
DMP: 258    -0.187375927182E+01    0.38662E-01   -0.21157E+01    36   0.687E+01-0.413E+01
DMP: 259    -0.176342014446E+01    0.11034E+00   -0.79547E+00    36   0.259E+01-0.157E+01
DMP: 260    -0.160536952124E+01    0.15805E+00   -0.18813E+01    36   0.651E+01-0.473E+01
DMP: 261    -0.184262550634E+01   -0.23726E+00   -0.60518E+00    36   0.212E+01-0.159E+01
DMP: 262    -0.189794393285E+01   -0.55318E-01   -0.29798E+01    36   0.105E+02-0.788E+01
DMP: 263    -0.194951063208E+01   -0.51567E-01   -0.51132E+00    36   0.171E+01-0.113E+01
DMP: 264    -0.188149358329E+01    0.68017E-01   -0.35040E+01    36   0.119E+02-0.830E+01
DMP: 265    -0.198530805901E+01   -0.10381E+00   -0.43212E+00    36   0.150E+01-0.110E+01
DMP: 266    -0.221338986715E+01   -0.22808E+00   -0.13952E+01    36   0.576E+01-0.594E+01
DMP: 267    -0.220352394728E+01    0.98659E-02   -0.46496E+00    36   0.149E+01-0.847E+00
DMP: 268    -0.158689976274E+01    0.61662E+00   -0.49821E+01    36   0.148E+02-0.617E+01
DMP: 269    -0.187881588664E+01   -0.29192E+00   -0.48503E+00    36   0.188E+01-0.175E+01
DMP: 270    -0.236289658884E+01   -0.48408E+00   -0.62677E+00    36   0.930E+00 0.167E+01
DMP: 271    -0.906953042721E+00    0.14559E+01   -0.18336E+01    36   0.533E+01-0.195E+01
DMP: 272    -0.182688080700E+01   -0.91993E+00   -0.44588E+00    36   0.209E+01-0.256E+01
DMP: 273    -0.240071882052E+01   -0.57384E+00   -0.46479E+00    36   0.590E+00 0.150E+01
DMP: 274    -0.122723923143E+01    0.11735E+01   -0.16723E+01    36   0.482E+01-0.167E+01
DMP: 275    -0.173415417529E+01   -0.50691E+00   -0.60264E+00    36   0.245E+01-0.247E+01
DMP: 276    -0.240692933296E+01   -0.67278E+00    0.75899E-01    36   0.589E+00-0.204E+01
DMP: 277    -0.225727956117E+01    0.14965E+00   -0.17216E+01    36   0.451E+01-0.551E+00
DMP: 278    -0.201488940942E+01    0.24239E+00   -0.50969E+00    36   0.161E+01-0.884E+00
DMP: 279    -0.158690600515E+01    0.42798E+00   -0.41634E+01    36   0.132E+02-0.741E+01
DMP: 280    -0.188798189648E+01   -0.30108E+00   -0.48959E+00    36   0.183E+01-0.158E+01
DMP: 281    -0.243073833588E+01   -0.54276E+00   -0.12543E+00    36   0.831E-01 0.603E+00
DMP: 282    -0.132089727238E+01    0.11098E+01   -0.44915E+01    36   0.124E+02-0.304E+01
DMP: 283    -0.174973466817E+01   -0.42884E+00   -0.58320E+00    36   0.240E+01-0.247E+01
DMP: 284    -0.223804312342E+01   -0.48831E+00   -0.74243E+00    36   0.129E+01 0.149E+01
DMP: 285    -0.715865125629E+00    0.15222E+01   -0.19204E+01    36   0.589E+01-0.285E+01
DMP: 286    -0.194627162848E+01   -0.12304E+01   -0.56221E+00    36   0.269E+01-0.336E+01
DMP: 287    -0.197731703537E+01   -0.31045E-01   -0.23117E+01    36   0.755E+01-0.464E+01
DMP: 288    -0.181167697804E+01    0.16564E+00   -0.77842E+00    36   0.249E+01-0.142E+01
DMP: 289    -0.154655930263E+01    0.26512E+00   -0.17918E+01    36   0.611E+01-0.427E+01
DMP: 290    -0.183396102393E+01   -0.28740E+00   -0.59968E+00    36   0.215E+01-0.169E+01
DMP: 291    -0.196460679061E+01   -0.13065E+00   -0.27211E+01    36   0.980E+01-0.784E+01
DMP: 292    -0.197850267068E+01   -0.13896E-01   -0.52123E+00    36   0.171E+01-0.108E+01
DMP: 293    -0.173101084202E+01    0.24749E+00   -0.39272E+01    36   0.128E+02-0.778E+01
DMP: 294    -0.192138378781E+01   -0.19037E+00   -0.47392E+00    36   0.171E+01-0.137E+01
DMP: 295    -0.240031569931E+01   -0.47893E+00    0.92190E-02    36   0.832E+00-0.224E+01
DMP: 296    -0.238924720173E+01    0.11068E-01   -0.45720E+00    36   0.115E+01-0.293E-01
DMP: 297    -0.223219769667E+01    0.15705E+00   -0.50055E+00    36   0.152E+01-0.705E+00
DMP: 298    -0.149327495335E+01    0.73892E+00   -0.47162E+01    36   0.139E+02-0.546E+01
DMP: 299    -0.184886595256E+01   -0.35559E+00   -0.50838E+00    36   0.200E+01-0.192E+01
DMP: 300    -0.232946762362E+01   -0.48060E+00   -0.71927E+00    36   0.114E+01 0.171E+01
   1 F= -.23294676E+01 E0= -.23101791E+01  d E =-.232947E+01  mag=     3.9998
