<?xml version="1.0" encoding="ISO-8859-1"?>
<modeling>
 <generator>
  <i name="program" type="string">vasp </i>
  <i name="version" type="string">5.4.4.18Apr17-6-g9f103f2a35  </i>
  <i name="subversion" type="string">(build Nov 08 2019 15:19:53) gamma-only         parallel </i>
  <i name="platform" type="string">LinuxIFC </i>
  <i name="date" type="string">2020 11 30 </i>
  <i name="time" type="string">09:31:50 </i>
 </generator>
 <incar>
  <i type="string" name="PREC">accurate</i>
  <i type="string" name="ALGO"> D</i>
  <i type="int" name="ISPIN">     2</i>
  <i type="int" name="NELM">   300</i>
  <i type="int" name="IBRION">     2</i>
  <i name="EDIFF">      0.00005000</i>
  <i type="int" name="NSW">    99</i>
  <i type="int" name="ISIF">     2</i>
  <i name="ENCUT">    520.00000000</i>
  <v name="MAGMOM">      0.60000000</v>
  <i type="string" name="LREAL"> Auto</i>
  <i type="int" name="ISMEAR">     0</i>
  <i name="SIGMA">      0.05000000</i>
  <i type="logical" name="LWAVE"> F  </i>
  <i type="int" name="LORBIT">    11</i>
  <i type="logical" name="LASPH"> T  </i>
  <v type="int" name="KPOINT_BSE">    -1     0     0     0</v>
  <i type="int" name="NELM">   300</i>
  <i type="logical" name="LASPH"> T  </i>
 </incar>
 <structure name="primitive_cell" >
  <crystal>
   <varray name="basis" >
    <v>      10.00000000       0.00000000       0.00000000 </v>
    <v>       0.00000000      10.00000000       0.00000000 </v>
    <v>       0.00000000       0.00000000      10.00000000 </v>
   </varray>
   <i name="volume">   1000.00000000 </i>
   <varray name="rec_basis" >
    <v>       0.10000000       0.00000000       0.00000000 </v>
    <v>       0.00000000       0.10000000       0.00000000 </v>
    <v>       0.00000000       0.00000000       0.10000000 </v>
   </varray>
  </crystal>
  <varray name="positions" >
   <v>      -0.50000000      -0.50000000      -0.50000000 </v>
  </varray>
 </structure>
 <varray name="primitive_index" >
  <v type="int" >        1 </v>
 </varray>
 <kpoints>
  <generation param="Gamma">
   <v type="int" name="divisions">       1        1        1 </v>
   <v name="usershift">      0.00000000       0.00000000       0.00000000 </v>
   <v name="genvec1">      1.00000000       0.00000000       0.00000000 </v>
   <v name="genvec2">      0.00000000       1.00000000       0.00000000 </v>
   <v name="genvec3">      0.00000000       0.00000000       1.00000000 </v>
   <v name="shift">      0.00000000       0.00000000       0.00000000 </v>
  </generation>
  <varray name="kpointlist" >
   <v>       0.00000000       0.00000000       0.00000000 </v>
  </varray>
  <varray name="weights" >
   <v>       1.00000000 </v>
  </varray>
 </kpoints>
 <parameters>
  <separator name="general" >
   <i type="string" name="SYSTEM">unknown system</i>
   <i type="logical" name="LCOMPAT"> F  </i>
  </separator>
  <separator name="electronic" >
   <i type="string" name="PREC">accura</i>
   <i name="ENMAX">    520.00000000</i>
   <i name="ENAUG">    482.84800000</i>
   <i name="EDIFF">      0.00005000</i>
   <i type="int" name="IALGO">    53</i>
   <i type="int" name="IWAVPR">    11</i>
   <i type="int" name="NBANDS">    36</i>
   <i name="NELECT">     10.00000000</i>
   <i type="int" name="TURBO">     0</i>
   <i type="int" name="IRESTART">     0</i>
   <i type="int" name="NREBOOT">     0</i>
   <i type="int" name="NMIN">     0</i>
   <i name="EREF">      0.00000000</i>
   <separator name="electronic smearing" >
    <i type="int" name="ISMEAR">     0</i>
    <i name="SIGMA">      0.05000000</i>
    <i name="KSPACING">      0.50000000</i>
    <i type="logical" name="KGAMMA"> T  </i>
   </separator>
   <separator name="electronic projectors" >
    <i type="logical" name="LREAL"> T  </i>
    <v name="ROPT">     -0.00025000</v>
    <i type="int" name="LMAXPAW">  -100</i>
    <i type="int" name="LMAXMIX">     2</i>
    <i type="logical" name="NLSPLINE"> F  </i>
   </separator>
   <separator name="electronic startup" >
    <i type="int" name="ISTART">     0</i>
    <i type="int" name="ICHARG">     2</i>
    <i type="int" name="INIWAV">     1</i>
   </separator>
   <separator name="electronic spin" >
    <i type="int" name="ISPIN">     2</i>
    <i type="logical" name="LNONCOLLINEAR"> F  </i>
    <v name="MAGMOM">      0.60000000</v>
    <i name="NUPDOWN">     -1.00000000</i>
    <i type="logical" name="LSORBIT"> F  </i>
    <v name="SAXIS">      0.00000000      0.00000000      1.00000000</v>
    <i type="logical" name="LSPIRAL"> F  </i>
    <v name="QSPIRAL">      0.00000000      0.00000000      0.00000000</v>
    <i type="logical" name="LZEROZ"> F  </i>
   </separator>
   <separator name="electronic exchange-correlation" >
    <i type="logical" name="LASPH"> T  </i>
    <i type="logical" name="LMETAGGA"> F  </i>
   </separator>
   <separator name="electronic convergence" >
    <i type="int" name="NELM">   300</i>
    <i type="int" name="NELMDL">    -5</i>
    <i type="int" name="NELMIN">     2</i>
    <i name="ENINI">    520.00000000</i>
    <separator name="electronic convergence detail" >
     <i type="logical" name="LDIAG"> T  </i>
     <i type="logical" name="LSUBROT"> F  </i>
     <i name="WEIMIN">      0.00100000</i>
     <i name="EBREAK">      0.00000035</i>
     <i name="DEPER">      0.30000000</i>
     <i type="int" name="NRMM">     4</i>
     <i name="TIME">      0.40000000</i>
    </separator>
   </separator>
   <separator name="electronic mixer" >
    <i name="AMIX">      0.40000000</i>
    <i name="BMIX">      1.00000000</i>
    <i name="AMIN">      0.10000000</i>
    <i name="AMIX_MAG">      1.60000000</i>
    <i name="BMIX_MAG">      1.00000000</i>
    <separator name="electronic mixer details" >
     <i type="int" name="IMIX">     4</i>
     <i type="logical" name="MIXFIRST"> F  </i>
     <i type="int" name="MAXMIX">   -45</i>
     <i name="WC">    100.00000000</i>
     <i type="int" name="INIMIX">     1</i>
     <i type="int" name="MIXPRE">     1</i>
     <i type="int" name="MREMOVE">     5</i>
    </separator>
   </separator>
   <separator name="electronic dipolcorrection" >
    <i type="logical" name="LDIPOL"> F  </i>
    <i type="logical" name="LMONO"> F  </i>
    <i type="int" name="IDIPOL">     0</i>
    <i name="EPSILON">      1.00000000</i>
    <v name="DIPOL">   -100.00000000   -100.00000000   -100.00000000</v>
    <i name="EFIELD">      0.00000000</i>
   </separator>
  </separator>
  <separator name="grids" >
   <i type="int" name="NGX">    80</i>
   <i type="int" name="NGY">    80</i>
   <i type="int" name="NGZ">    80</i>
   <i type="int" name="NGXF">   160</i>
   <i type="int" name="NGYF">   160</i>
   <i type="int" name="NGZF">   160</i>
   <i type="logical" name="ADDGRID"> F  </i>
  </separator>
  <separator name="ionic" >
   <i type="int" name="NSW">    99</i>
   <i type="int" name="IBRION">     2</i>
   <i type="int" name="MDALGO">     0</i>
   <i type="int" name="ISIF">     2</i>
   <i name="PSTRESS">      0.00000000</i>
   <i name="EDIFFG">      0.00050000</i>
   <i type="int" name="NFREE">     1</i>
   <i name="POTIM">      0.50000000</i>
   <i name="SMASS">     -3.00000000</i>
   <i name="SCALEE">      1.00000000</i>
  </separator>
  <separator name="ionic md" >
   <i name="TEBEG">      0.00010000</i>
   <i name="TEEND">      0.00010000</i>
   <i type="int" name="NBLOCK">     1</i>
   <i type="int" name="KBLOCK">    99</i>
   <i type="int" name="NPACO">   256</i>
   <i name="APACO">     16.00000000</i>
  </separator>
  <separator name="symmetry" >
   <i type="int" name="ISYM">     2</i>
   <i name="SYMPREC">      0.00001000</i>
  </separator>
  <separator name="dos" >
   <i type="int" name="LORBIT">    11</i>
   <v name="RWIGS">     -1.00000000</v>
   <i type="int" name="NEDOS">   301</i>
   <i name="EMIN">     10.00000000</i>
   <i name="EMAX">    -10.00000000</i>
   <i name="EFERMI">      0.00000000</i>
  </separator>
  <separator name="writing" >
   <i type="int" name="NWRITE">     2</i>
   <i type="logical" name="LWAVE"> F  </i>
   <i type="logical" name="LDOWNSAMPLE"> F  </i>
   <i type="logical" name="LCHARG"> T  </i>
   <i type="logical" name="LPARD"> F  </i>
   <i type="logical" name="LVTOT"> F  </i>
   <i type="logical" name="LVHAR"> F  </i>
   <i type="logical" name="LELF"> F  </i>
   <i type="logical" name="LOPTICS"> F  </i>
   <v name="STM">      0.00000000      0.00000000      0.00000000      0.00000000      0.00000000      0.00000000      0.00000000</v>
  </separator>
  <separator name="performance" >
   <i type="int" name="NPAR">    36</i>
   <i type="int" name="NSIM">     4</i>
   <i type="int" name="NBLK">    -1</i>
   <i type="logical" name="LPLANE"> T  </i>
   <i type="logical" name="LSCALAPACK"> T  </i>
   <i type="logical" name="LSCAAWARE"> F  </i>
   <i type="logical" name="LSCALU"> F  </i>
   <i type="logical" name="LASYNC"> F  </i>
   <i type="logical" name="LORBITALREAL"> F  </i>
  </separator>
  <separator name="miscellaneous" >
   <i type="int" name="IDIOT">     3</i>
   <i type="int" name="ISPECIAL">     0</i>
   <i type="logical" name="LMUSIC"> F  </i>
   <v name="POMASS">     47.88000000</v>
   <v name="DARWINR">      0.00000000</v>
   <v name="DARWINV">      1.00000000</v>
   <i type="logical" name="LCORR"> T  </i>
  </separator>
  <i type="logical" name="GGA_COMPAT"> T  </i>
  <i type="logical" name="LBERRY"> F  </i>
  <i type="int" name="ICORELEVEL">     0</i>
  <i type="logical" name="LDAU"> F  </i>
  <i type="int" name="I_CONSTRAINED_M">     0</i>
  <separator name="electronic exchange-correlation" >
   <i type="string" name="GGA">--</i>
   <i type="int" name="VOSKOWN">     0</i>
   <i type="logical" name="LHFCALC"> F  </i>
   <i type="string" name="PRECFOCK"></i>
   <i type="logical" name="LSYMGRAD"> F  </i>
   <i type="logical" name="LHFONE"> F  </i>
   <i type="logical" name="LRHFCALC"> F  </i>
   <i type="logical" name="LTHOMAS"> F  </i>
   <i type="logical" name="LMODELHF"> F  </i>
   <i name="ENCUT4O">     -1.00000000</i>
   <i type="int" name="EXXOEP">     0</i>
   <i type="int" name="FOURORBIT">     0</i>
   <i name="AEXX">      0.00000000</i>
   <i name="HFALPHA">      0.00000000</i>
   <i name="MCALPHA">      0.00000000</i>
   <i name="ALDAX">      1.00000000</i>
   <i name="AGGAX">      1.00000000</i>
   <i name="ALDAC">      1.00000000</i>
   <i name="AGGAC">      1.00000000</i>
   <i type="int" name="NKREDX">     1</i>
   <i type="int" name="NKREDY">     1</i>
   <i type="int" name="NKREDZ">     1</i>
   <i type="logical" name="SHIFTRED"> F  </i>
   <i type="logical" name="ODDONLY"> F  </i>
   <i type="logical" name="EVENONLY"> F  </i>
   <i type="int" name="LMAXFOCK">     0</i>
   <i type="int" name="NMAXFOCKAE">     0</i>
   <i type="logical" name="LFOCKAEDFT"> F  </i>
   <i name="HFSCREEN">      0.00000000</i>
   <i name="HFSCREENC">      0.00000000</i>
   <i type="int" name="NBANDSGWLOW">     0</i>
  </separator>
  <separator name="vdW DFT" >
   <i type="logical" name="LUSE_VDW"> F  </i>
   <i name="Zab_VDW">     -0.84910000</i>
   <i name="PARAM1">      0.12340000</i>
   <i name="PARAM2">      1.00000000</i>
   <i name="PARAM3">      0.00000000</i>
  </separator>
  <separator name="model GW" >
   <i type="int" name="MODEL_GW">     0</i>
   <i name="MODEL_EPS0">    600.00000000</i>
   <i name="MODEL_ALPHA">      1.00000000</i>
  </separator>
  <separator name="linear response parameters" >
   <i type="logical" name="LEPSILON"> F  </i>
   <i type="logical" name="LRPA"> F  </i>
   <i type="logical" name="LNABLA"> F  </i>
   <i type="logical" name="LVEL"> F  </i>
   <i type="int" name="KINTER">     0</i>
   <i name="CSHIFT">      0.10000000</i>
   <i name="OMEGAMAX">     -1.00000000</i>
   <i name="DEG_THRESHOLD">      0.00200000</i>
   <i name="RTIME">     -0.10000000</i>
   <i name="WPLASMAI">      0.00000000</i>
   <v name="DFIELD">      0.00000000      0.00000000      0.00000000</v>
   <v name="WPLASMA">      0.00000000      0.00000000      0.00000000      0.00000000      0.00000000      0.00000000      0.00000000      0.00000000      0.00000000</v>
  </separator>
  <separator name="orbital magnetization" >
   <i type="logical" name="NUCIND"> F  </i>
   <v name="MAGPOS">      0.00000000      0.00000000      0.00000000</v>
   <i type="logical" name="LNICSALL"> T  </i>
   <i type="logical" name="ORBITALMAG"> F  </i>
   <i type="logical" name="LMAGBLOCH"> F  </i>
   <i type="logical" name="LCHIMAG"> F  </i>
   <i type="logical" name="LGAUGE"> T  </i>
   <i type="int" name="MAGATOM">     0</i>
   <v name="MAGDIPOL">      0.00000000      0.00000000      0.00000000</v>
   <v name="AVECCONST">      0.00000000      0.00000000      0.00000000</v>
  </separator>
  <separator name="response functions" >
   <i type="logical" name="LADDER"> F  </i>
   <i type="logical" name="LRPAFORCE"> F  </i>
   <i type="logical" name="LFXC"> F  </i>
   <i type="logical" name="LHARTREE"> T  </i>
   <i type="int" name="IBSE">     0</i>
   <v type="int" name="KPOINT">    -1     0     0     0</v>
   <i type="logical" name="LTCTE"> F  </i>
   <i type="logical" name="LTETE"> F  </i>
   <i type="logical" name="LTRIPLET"> F  </i>
   <i type="logical" name="LFXCEPS"> F  </i>
   <i type="logical" name="LFXHEG"> F  </i>
   <i type="int" name="NATURALO">     2</i>
   <i type="logical" name="L2ORDER"> F  </i>
   <i type="logical" name="LMP2LT"> F  </i>
   <i type="logical" name="LUSEW"> F  </i>
   <i name="ENCUTGW">     -2.00000000</i>
   <i name="ENCUTGWSOFT">     -2.00000000</i>
   <i name="ENCUTLF">     -1.00000000</i>
   <i type="int" name="LMAXMP2">    -1</i>
   <i name="SCISSOR">      0.00000000</i>
   <i type="int" name="NOMEGA">     0</i>
   <i type="int" name="NOMEGAR">     0</i>
   <i type="int" name="NBANDSGW">    -1</i>
   <i type="int" name="NBANDSO">    -1</i>
   <i type="int" name="NBANDSV">    -1</i>
   <i type="int" name="NELM">   300</i>
   <i type="int" name="NELMHF">     1</i>
   <i type="int" name="DIM">     3</i>
   <i type="int" name="ANTIRES">     0</i>
   <i name="OMEGAMAX">    -30.00000000</i>
   <i name="OMEGAMIN">    -30.00000000</i>
   <i name="OMEGATL">   -200.00000000</i>
   <i type="int" name="OMEGAGRID">   140</i>
   <i name="CSHIFT">     -0.10000000</i>
   <i type="logical" name="SELFENERGY"> F  </i>
   <i type="logical" name="LSPECTRAL"> F  </i>
   <i type="logical" name="LSPECTRALGW"> F  </i>
   <i type="logical" name="LSINGLES"> F  </i>
   <i type="logical" name="LFERMIGW"> F  </i>
   <i type="logical" name="ODDONLYGW"> F  </i>
   <i type="logical" name="EVENONLYGW"> F  </i>
   <i type="int" name="NKREDLFX">     1</i>
   <i type="int" name="NKREDLFY">     1</i>
   <i type="int" name="NKREDLFZ">     1</i>
   <i type="int" name="MAXMEM">  2800</i>
   <i type="int" name="TELESCOPE">     0</i>
   <i type="int" name="TAUPAR">     1</i>
   <i type="int" name="OMEGAPAR">    -1</i>
   <i name="LAMBDA">      1.00000000</i>
  </separator>
  <separator name="External order field" >
   <i name="OFIELD_KAPPA">      0.00000000</i>
   <v name="OFIELD_K">      0.00000000      0.00000000      0.00000000</v>
   <i name="OFIELD_Q6_NEAR">      0.00000000</i>
   <i name="OFIELD_Q6_FAR">      0.00000000</i>
   <i name="OFIELD_A">      0.00000000</i>
  </separator>
 </parameters>
 <atominfo>
  <atoms>       1 </atoms>
  <types>       1 </types>
  <array name="atoms" >
   <dimension dim="1">ion</dimension>
   <field type="string">element</field>
   <field type="int">atomtype</field>
   <set>
    <rc><c>Ti</c><c>   1</c></rc>
   </set>
  </array>
  <array name="atomtypes" >
   <dimension dim="1">type</dimension>
   <field type="int">atomspertype</field>
   <field type="string">element</field>
   <field>mass</field>
   <field>valence</field>
   <field type="string">pseudopotential</field>
   <set>
    <rc><c>   1</c><c>Ti</c><c>     47.88000000</c><c>     10.00000000</c><c>  PAW_PBE Ti_pv 07Sep2000               </c></rc>
   </set>
  </array>
 </atominfo>
 <structure name="initialpos" >
  <crystal>
   <varray name="basis" >
    <v>      10.00000000       0.00000000       0.00000000 </v>
    <v>       0.00000000      10.00000000       0.00000000 </v>
    <v>       0.00000000       0.00000000      10.00000000 </v>
   </varray>
   <i name="volume">   1000.00000000 </i>
   <varray name="rec_basis" >
    <v>       0.10000000       0.00000000       0.00000000 </v>
    <v>       0.00000000       0.10000000       0.00000000 </v>
    <v>       0.00000000       0.00000000       0.10000000 </v>
   </varray>
  </crystal>
  <varray name="positions" >
   <v>       0.50000000       0.50000000       0.50000000 </v>
  </varray>
 </structure>
 <calculation>
  <scstep>
   <time name="total">    0.99    1.00</time>
   <energy>
    <i name="alphaZ">      1.09052110 </i>
    <i name="ewald">   -204.28240005 </i>
    <i name="hartreedc">   -652.27532073 </i>
    <i name="XCdc">     33.52509933 </i>
    <i name="pawpsdc">    818.84268626 </i>
    <i name="pawaedc">   -818.20730616 </i>
    <i name="eentropy">     -0.00000000 </i>
    <i name="bandstr">   -131.61291567 </i>
    <i name="atom">   1042.59758728 </i>
    <i name="e_fr_energy">     89.67795134 </i>
    <i name="e_wo_entrp">     89.67795134 </i>
    <i name="e_0_energy">     89.67795134 </i>
   </energy>
  </scstep>
  <scstep>
   <time name="total">    0.31    0.31</time>
   <energy>
    <i name="e_fr_energy">      7.84289165 </i>
    <i name="e_wo_entrp">      7.84289222 </i>
    <i name="e_0_energy">      7.84289193 </i>
   </energy>
  </scstep>
  <scstep>
   <time name="total">    0.41    0.41</time>
   <energy>
    <i name="e_fr_energy">     -0.79538012 </i>
    <i name="e_wo_entrp">     -0.76846908 </i>
    <i name="e_0_energy">     -0.78192460 </i>
   </energy>
  </scstep>
  <scstep>
   <time name="total">    0.39    0.39</time>
   <energy>
    <i name="e_fr_energy">     -1.87689747 </i>
    <i name="e_wo_entrp">     -1.82698993 </i>
    <i name="e_0_energy">     -1.85194370 </i>
   </energy>
  </scstep>
  <scstep>
   <time name="total">    0.61    0.61</time>
   <energy>
    <i name="e_fr_energy">     -2.11707890 </i>
    <i name="e_wo_entrp">     -2.05405819 </i>
    <i name="e_0_energy">     -2.08556854 </i>
   </energy>
  </scstep>
  <scstep>
   <time name="total">    0.98    0.99</time>
   <energy>
    <i name="e_fr_energy">     -0.88267166 </i>
    <i name="e_wo_entrp">     -0.81866296 </i>
    <i name="e_0_energy">     -0.85066731 </i>
   </energy>
  </scstep>
  <scstep>
   <time name="total">    0.95    0.95</time>
   <energy>
    <i name="e_fr_energy">     -1.27312585 </i>
    <i name="e_wo_entrp">     -1.20908627 </i>
    <i name="e_0_energy">     -1.24110606 </i>
   </energy>
  </scstep>
  <scstep>
   <time name="total">    0.94    0.94</time>
   <energy>
    <i name="e_fr_energy">     -1.46939418 </i>
    <i name="e_wo_entrp">     -1.40735550 </i>
    <i name="e_0_energy">     -1.43837484 </i>
   </energy>
  </scstep>
  <scstep>
   <time name="total">    0.92    0.92</time>
   <energy>
    <i name="e_fr_energy">     -0.30979133 </i>
    <i name="e_wo_entrp">     -0.26400598 </i>
    <i name="e_0_energy">     -0.28689866 </i>
   </energy>
  </scstep>
  <scstep>
   <time name="total">    0.93    0.93</time>
   <energy>
    <i name="e_fr_energy">     -0.36965759 </i>
    <i name="e_wo_entrp">     -0.34325908 </i>
    <i name="e_0_energy">     -0.35645833 </i>
   </energy>
  </scstep>
  <scstep>
   <time name="total">    0.93    0.93</time>
   <energy>
    <i name="e_fr_energy">     -2.07031646 </i>
    <i name="e_wo_entrp">     -2.02838639 </i>
    <i name="e_0_energy">     -2.04935143 </i>
   </energy>
  </scstep>
  <scstep>
   <time name="total">    0.94    0.94</time>
   <energy>
    <i name="e_fr_energy">     -1.91668648 </i>
    <i name="e_wo_entrp">     -1.91662927 </i>
    <i name="e_0_energy">     -1.91665787 </i>
   </energy>
  </scstep>
  <scstep>
   <time name="total">    0.93    0.93</time>
   <energy>
    <i name="e_fr_energy">     -1.82959241 </i>
    <i name="e_wo_entrp">     -1.80639854 </i>
    <i name="e_0_energy">     -1.81799547 </i>
   </energy>
  </scstep>
  <scstep>
   <time name="total">    0.93    0.93</time>
   <energy>
    <i name="e_fr_energy">     -2.36202029 </i>
    <i name="e_wo_entrp">     -2.31784694 </i>
    <i name="e_0_energy">     -2.33993362 </i>
   </energy>
  </scstep>
  <scstep>
   <time name="total">    0.95    0.95</time>
   <energy>
    <i name="e_fr_energy">     -1.84102012 </i>
    <i name="e_wo_entrp">     -1.84101546 </i>
    <i name="e_0_energy">     -1.84101779 </i>
   </energy>
  </scstep>
  <scstep>
   <time name="total">    0.92    0.92</time>
   <energy>
    <i name="e_fr_energy">     -1.88308209 </i>
    <i name="e_wo_entrp">     -1.86921402 </i>
    <i name="e_0_energy">     -1.87614806 </i>
   </energy>
  </scstep>
  <scstep>
   <time name="total">    0.92    0.92</time>
   <energy>
    <i name="e_fr_energy">     -2.38529727 </i>
    <i name="e_wo_entrp">     -2.34594702 </i>
    <i name="e_0_energy">     -2.36562214 </i>
   </energy>
  </scstep>
  <scstep>
   <time name="total">    0.92    0.92</time>
   <energy>
    <i name="e_fr_energy">     -0.73643017 </i>
    <i name="e_wo_entrp">     -0.73637027 </i>
    <i name="e_0_energy">     -0.73640022 </i>
   </energy>
  </scstep>
  <scstep>
   <time name="total">    0.92    0.92</time>
   <energy>
    <i name="e_fr_energy">     -1.66633896 </i>
    <i name="e_wo_entrp">     -1.66633623 </i>
    <i name="e_0_energy">     -1.66633759 </i>
   </energy>
  </scstep>
  <scstep>
   <time name="total">    0.92    0.92</time>
   <energy>
    <i name="e_fr_energy">     -2.19701390 </i>
    <i name="e_wo_entrp">     -2.16326856 </i>
    <i name="e_0_energy">     -2.18014123 </i>
   </energy>
  </scstep>
  <scstep>
   <time name="total">    0.92    0.93</time>
   <energy>
    <i name="e_fr_energy">     -2.18516579 </i>
    <i name="e_wo_entrp">     -2.17935191 </i>
    <i name="e_0_energy">     -2.18225885 </i>
   </energy>
  </scstep>
  <scstep>
   <time name="total">    0.95    0.95</time>
   <energy>
    <i name="e_fr_energy">     -2.38092761 </i>
    <i name="e_wo_entrp">     -2.35644378 </i>
    <i name="e_0_energy">     -2.36868569 </i>
   </energy>
  </scstep>
  <scstep>
   <time name="total">    0.94    0.94</time>
   <energy>
    <i name="e_fr_energy">     -2.42377859 </i>
    <i name="e_wo_entrp">     -2.39871632 </i>
    <i name="e_0_energy">     -2.41124746 </i>
   </energy>
  </scstep>
  <scstep>
   <time name="total">    0.90    0.90</time>
   <energy>
    <i name="e_fr_energy">     -2.43365287 </i>
    <i name="e_wo_entrp">     -2.40904493 </i>
    <i name="e_0_energy">     -2.42134890 </i>
   </energy>
  </scstep>
  <scstep>
   <time name="total">    0.92    0.92</time>
   <energy>
    <i name="e_fr_energy">     -2.43452764 </i>
    <i name="e_wo_entrp">     -2.40292836 </i>
    <i name="e_0_energy">     -2.41872800 </i>
   </energy>
  </scstep>
  <scstep>
   <time name="total">    0.92    0.92</time>
   <energy>
    <i name="e_fr_energy">     -2.42725337 </i>
    <i name="e_wo_entrp">     -2.40927117 </i>
    <i name="e_0_energy">     -2.41826227 </i>
   </energy>
  </scstep>
  <scstep>
   <time name="total">    0.92    0.92</time>
   <energy>
    <i name="e_fr_energy">     -2.39738139 </i>
    <i name="e_wo_entrp">     -2.35427405 </i>
    <i name="e_0_energy">     -2.37582772 </i>
   </energy>
  </scstep>
  <scstep>
   <time name="total">    0.93    0.93</time>
   <energy>
    <i name="e_fr_energy">     -2.17501851 </i>
    <i name="e_wo_entrp">     -2.17460316 </i>
    <i name="e_0_energy">     -2.17481084 </i>
   </energy>
  </scstep>
  <scstep>
   <time name="total">    0.93    0.93</time>
   <energy>
    <i name="e_fr_energy">     -2.13207727 </i>
    <i name="e_wo_entrp">     -2.09346416 </i>
    <i name="e_0_energy">     -2.11277071 </i>
   </energy>
  </scstep>
  <scstep>
   <time name="total">    0.93    0.93</time>
   <energy>
    <i name="e_fr_energy">     -2.34671707 </i>
    <i name="e_wo_entrp">     -2.33143351 </i>
    <i name="e_0_energy">     -2.33907529 </i>
   </energy>
  </scstep>
  <scstep>
   <time name="total">    0.92    0.92</time>
   <energy>
    <i name="e_fr_energy">     -2.37466755 </i>
    <i name="e_wo_entrp">     -2.33077617 </i>
    <i name="e_0_energy">     -2.35272186 </i>
   </energy>
  </scstep>
  <scstep>
   <time name="total">    0.92    0.92</time>
   <energy>
    <i name="e_fr_energy">     -2.11431753 </i>
    <i name="e_wo_entrp">     -2.11410746 </i>
    <i name="e_0_energy">     -2.11421249 </i>
   </energy>
  </scstep>
  <scstep>
   <time name="total">    0.93    0.93</time>
   <energy>
    <i name="e_fr_energy">     -2.10066831 </i>
    <i name="e_wo_entrp">     -2.06473731 </i>
    <i name="e_0_energy">     -2.08270281 </i>
   </energy>
  </scstep>
  <scstep>
   <time name="total">    0.92    0.92</time>
   <energy>
    <i name="e_fr_energy">     -2.39828895 </i>
    <i name="e_wo_entrp">     -2.36843338 </i>
    <i name="e_0_energy">     -2.38336116 </i>
   </energy>
  </scstep>
  <scstep>
   <time name="total">    0.95    0.95</time>
   <energy>
    <i name="e_fr_energy">     -2.43701903 </i>
    <i name="e_wo_entrp">     -2.41389511 </i>
    <i name="e_0_energy">     -2.42545707 </i>
   </energy>
  </scstep>
  <scstep>
   <time name="total">    0.92    0.92</time>
   <energy>
    <i name="e_fr_energy">     -2.42146817 </i>
    <i name="e_wo_entrp">     -2.38036552 </i>
    <i name="e_0_energy">     -2.40091685 </i>
   </energy>
  </scstep>
  <scstep>
   <time name="total">    0.92    0.92</time>
   <energy>
    <i name="e_fr_energy">     -2.30121825 </i>
    <i name="e_wo_entrp">     -2.29900977 </i>
    <i name="e_0_energy">     -2.30011401 </i>
   </energy>
  </scstep>
  <scstep>
   <time name="total">    0.92    0.92</time>
   <energy>
    <i name="e_fr_energy">     -2.17909587 </i>
    <i name="e_wo_entrp">     -2.13415821 </i>
    <i name="e_0_energy">     -2.15662704 </i>
   </energy>
  </scstep>
  <scstep>
   <time name="total">    0.92    0.92</time>
   <energy>
    <i name="e_fr_energy">     -1.90671389 </i>
    <i name="e_wo_entrp">     -1.90663409 </i>
    <i name="e_0_energy">     -1.90667399 </i>
   </energy>
  </scstep>
  <scstep>
   <time name="total">    0.92    0.92</time>
   <energy>
    <i name="e_fr_energy">     -2.06378062 </i>
    <i name="e_wo_entrp">     -2.03497433 </i>
    <i name="e_0_energy">     -2.04937748 </i>
   </energy>
  </scstep>
  <scstep>
   <time name="total">    0.92    0.93</time>
   <energy>
    <i name="e_fr_energy">     -2.43685376 </i>
    <i name="e_wo_entrp">     -2.39192946 </i>
    <i name="e_0_energy">     -2.41439161 </i>
   </energy>
  </scstep>
  <scstep>
   <time name="total">    0.92    0.93</time>
   <energy>
    <i name="e_fr_energy">     -1.83355690 </i>
    <i name="e_wo_entrp">     -1.83355414 </i>
    <i name="e_0_energy">     -1.83355552 </i>
   </energy>
  </scstep>
  <scstep>
   <time name="total">    0.93    0.93</time>
   <energy>
    <i name="e_fr_energy">     -1.97548870 </i>
    <i name="e_wo_entrp">     -1.96364089 </i>
    <i name="e_0_energy">     -1.96956480 </i>
   </energy>
  </scstep>
  <scstep>
   <time name="total">    0.93    0.93</time>
   <energy>
    <i name="e_fr_energy">     -2.34100413 </i>
    <i name="e_wo_entrp">     -2.30237549 </i>
    <i name="e_0_energy">     -2.32168981 </i>
   </energy>
  </scstep>
  <scstep>
   <time name="total">    0.92    0.92</time>
   <energy>
    <i name="e_fr_energy">     -0.87924447 </i>
    <i name="e_wo_entrp">     -0.87922414 </i>
    <i name="e_0_energy">     -0.87923430 </i>
   </energy>
  </scstep>
  <scstep>
   <time name="total">    0.92    0.92</time>
   <energy>
    <i name="e_fr_energy">     -1.88650664 </i>
    <i name="e_wo_entrp">     -1.86703719 </i>
    <i name="e_0_energy">     -1.87677192 </i>
   </energy>
  </scstep>
  <scstep>
   <time name="total">    0.92    0.92</time>
   <energy>
    <i name="e_fr_energy">     -2.34947868 </i>
    <i name="e_wo_entrp">     -2.31087739 </i>
    <i name="e_0_energy">     -2.33017804 </i>
   </energy>
  </scstep>
  <scstep>
   <time name="total">    0.92    0.92</time>
   <energy>
    <i name="e_fr_energy">     -1.11014630 </i>
    <i name="e_wo_entrp">     -1.10991011 </i>
    <i name="e_0_energy">     -1.11002820 </i>
   </energy>
  </scstep>
  <scstep>
   <time name="total">    0.92    0.92</time>
   <energy>
    <i name="e_fr_energy">     -1.83109160 </i>
    <i name="e_wo_entrp">     -1.78819888 </i>
    <i name="e_0_energy">     -1.80964524 </i>
   </energy>
  </scstep>
  <scstep>
   <time name="total">    0.92    0.92</time>
   <energy>
    <i name="e_fr_energy">     -2.33631449 </i>
    <i name="e_wo_entrp">     -2.31073008 </i>
    <i name="e_0_energy">     -2.32352229 </i>
   </energy>
  </scstep>
  <scstep>
   <time name="total">    0.93    0.93</time>
   <energy>
    <i name="e_fr_energy">     -2.37925246 </i>
    <i name="e_wo_entrp">     -2.33431739 </i>
    <i name="e_0_energy">     -2.35678493 </i>
   </energy>
  </scstep>
  <scstep>
   <time name="total">    0.92    0.92</time>
   <energy>
    <i name="e_fr_energy">     -2.03428386 </i>
    <i name="e_wo_entrp">     -2.03416998 </i>
    <i name="e_0_energy">     -2.03422692 </i>
   </energy>
  </scstep>
  <scstep>
   <time name="total">    0.92    0.92</time>
   <energy>
    <i name="e_fr_energy">     -1.92321326 </i>
    <i name="e_wo_entrp">     -1.87952534 </i>
    <i name="e_0_energy">     -1.90136930 </i>
   </energy>
  </scstep>
  <scstep>
   <time name="total">    0.93    0.93</time>
   <energy>
    <i name="e_fr_energy">     -2.21320147 </i>
    <i name="e_wo_entrp">     -2.20641819 </i>
    <i name="e_0_energy">     -2.20980983 </i>
   </energy>
  </scstep>
  <scstep>
   <time name="total">    0.95    0.96</time>
   <energy>
    <i name="e_fr_energy">     -2.21551642 </i>
    <i name="e_wo_entrp">     -2.17233776 </i>
    <i name="e_0_energy">     -2.19392709 </i>
   </energy>
  </scstep>
  <scstep>
   <time name="total">    0.92    0.92</time>
   <energy>
    <i name="e_fr_energy">     -1.55775599 </i>
    <i name="e_wo_entrp">     -1.55775412 </i>
    <i name="e_0_energy">     -1.55775505 </i>
   </energy>
  </scstep>
  <scstep>
   <time name="total">    0.92    0.92</time>
   <energy>
    <i name="e_fr_energy">     -1.87553357 </i>
    <i name="e_wo_entrp">     -1.86109345 </i>
    <i name="e_0_energy">     -1.86831351 </i>
   </energy>
  </scstep>
  <scstep>
   <time name="total">    0.92    0.92</time>
   <energy>
    <i name="e_fr_energy">     -2.34339045 </i>
    <i name="e_wo_entrp">     -2.30480323 </i>
    <i name="e_0_energy">     -2.32409684 </i>
   </energy>
  </scstep>
  <scstep>
   <time name="total">    0.92    0.92</time>
   <energy>
    <i name="e_fr_energy">     -0.89701665 </i>
    <i name="e_wo_entrp">     -0.89696197 </i>
    <i name="e_0_energy">     -0.89698931 </i>
   </energy>
  </scstep>
  <scstep>
   <time name="total">    0.92    0.92</time>
   <energy>
    <i name="e_fr_energy">     -1.86221100 </i>
    <i name="e_wo_entrp">     -1.83323067 </i>
    <i name="e_0_energy">     -1.84772083 </i>
   </energy>
  </scstep>
  <scstep>
   <time name="total">    0.92    0.92</time>
   <energy>
    <i name="e_fr_energy">     -2.41604579 </i>
    <i name="e_wo_entrp">     -2.37628567 </i>
    <i name="e_0_energy">     -2.39616573 </i>
   </energy>
  </scstep>
  <scstep>
   <time name="total">    0.92    0.92</time>
   <energy>
    <i name="e_fr_energy">     -1.34737542 </i>
    <i name="e_wo_entrp">     -1.34737088 </i>
    <i name="e_0_energy">     -1.34737315 </i>
   </energy>
  </scstep>
  <scstep>
   <time name="total">    0.95    0.95</time>
   <energy>
    <i name="e_fr_energy">     -1.72453880 </i>
    <i name="e_wo_entrp">     -1.69672805 </i>
    <i name="e_0_energy">     -1.71063342 </i>
   </energy>
  </scstep>
  <scstep>
   <time name="total">    0.93    0.93</time>
   <energy>
    <i name="e_fr_energy">     -2.41362236 </i>
    <i name="e_wo_entrp">     -2.37469672 </i>
    <i name="e_0_energy">     -2.39415954 </i>
   </energy>
  </scstep>
  <scstep>
   <time name="total">    0.91    0.92</time>
   <energy>
    <i name="e_fr_energy">     -1.18400944 </i>
    <i name="e_wo_entrp">     -1.18399391 </i>
    <i name="e_0_energy">     -1.18400167 </i>
   </energy>
  </scstep>
  <scstep>
   <time name="total">    0.92    0.92</time>
   <energy>
    <i name="e_fr_energy">     -1.74187407 </i>
    <i name="e_wo_entrp">     -1.70825111 </i>
    <i name="e_0_energy">     -1.72506259 </i>
   </energy>
  </scstep>
  <scstep>
   <time name="total">    0.93    0.93</time>
   <energy>
    <i name="e_fr_energy">     -2.43059092 </i>
    <i name="e_wo_entrp">     -2.38891425 </i>
    <i name="e_0_energy">     -2.40975259 </i>
   </energy>
  </scstep>
  <scstep>
   <time name="total">    0.92    0.93</time>
   <energy>
    <i name="e_fr_energy">     -1.51137215 </i>
    <i name="e_wo_entrp">     -1.51137139 </i>
    <i name="e_0_energy">     -1.51137177 </i>
   </energy>
  </scstep>
  <scstep>
   <time name="total">    0.91    0.91</time>
   <energy>
    <i name="e_fr_energy">     -1.71147757 </i>
    <i name="e_wo_entrp">     -1.69203009 </i>
    <i name="e_0_energy">     -1.70175383 </i>
   </energy>
  </scstep>
  <scstep>
   <time name="total">    0.92    0.92</time>
   <energy>
    <i name="e_fr_energy">     -2.36268963 </i>
    <i name="e_wo_entrp">     -2.32411403 </i>
    <i name="e_0_energy">     -2.34340183 </i>
   </energy>
  </scstep>
  <scstep>
   <time name="total">    0.91    0.92</time>
   <energy>
    <i name="e_fr_energy">     -0.92642494 </i>
    <i name="e_wo_entrp">     -0.92442332 </i>
    <i name="e_0_energy">     -0.92542413 </i>
   </energy>
  </scstep>
  <scstep>
   <time name="total">    0.92    0.93</time>
   <energy>
    <i name="e_fr_energy">     -1.83449258 </i>
    <i name="e_wo_entrp">     -1.79226327 </i>
    <i name="e_0_energy">     -1.81337792 </i>
   </energy>
  </scstep>
  <scstep>
   <time name="total">    0.93    0.93</time>
   <energy>
    <i name="e_fr_energy">     -1.87023423 </i>
    <i name="e_wo_entrp">     -1.86911284 </i>
    <i name="e_0_energy">     -1.86967353 </i>
   </energy>
  </scstep>
  <scstep>
   <time name="total">    0.92    0.92</time>
   <energy>
    <i name="e_fr_energy">     -1.77850507 </i>
    <i name="e_wo_entrp">     -1.73855605 </i>
    <i name="e_0_energy">     -1.75853056 </i>
   </energy>
  </scstep>
  <scstep>
   <time name="total">    0.91    0.92</time>
   <energy>
    <i name="e_fr_energy">     -1.57016507 </i>
    <i name="e_wo_entrp">     -1.56946852 </i>
    <i name="e_0_energy">     -1.56981680 </i>
   </energy>
  </scstep>
  <scstep>
   <time name="total">    0.92    0.92</time>
   <energy>
    <i name="e_fr_energy">     -1.83005483 </i>
    <i name="e_wo_entrp">     -1.78667060 </i>
    <i name="e_0_energy">     -1.80836271 </i>
   </energy>
  </scstep>
  <scstep>
   <time name="total">    0.92    0.92</time>
   <energy>
    <i name="e_fr_energy">     -1.81770618 </i>
    <i name="e_wo_entrp">     -1.81734125 </i>
    <i name="e_0_energy">     -1.81752371 </i>
   </energy>
  </scstep>
  <scstep>
   <time name="total">    0.93    0.93</time>
   <energy>
    <i name="e_fr_energy">     -1.89432306 </i>
    <i name="e_wo_entrp">     -1.84951237 </i>
    <i name="e_0_energy">     -1.87191771 </i>
   </energy>
  </scstep>
  <scstep>
   <time name="total">    0.92    0.92</time>
   <energy>
    <i name="e_fr_energy">     -1.94695406 </i>
    <i name="e_wo_entrp">     -1.94635985 </i>
    <i name="e_0_energy">     -1.94665695 </i>
   </energy>
  </scstep>
  <scstep>
   <time name="total">    0.92    0.92</time>
   <energy>
    <i name="e_fr_energy">     -2.00724004 </i>
    <i name="e_wo_entrp">     -1.96230094 </i>
    <i name="e_0_energy">     -1.98477049 </i>
   </energy>
  </scstep>
  <scstep>
   <time name="total">    0.92    0.92</time>
   <energy>
    <i name="e_fr_energy">     -1.95906496 </i>
    <i name="e_wo_entrp">     -1.95870605 </i>
    <i name="e_0_energy">     -1.95888550 </i>
   </energy>
  </scstep>
  <scstep>
   <time name="total">    0.92    0.92</time>
   <energy>
    <i name="e_fr_energy">     -2.03271949 </i>
    <i name="e_wo_entrp">     -1.98898111 </i>
    <i name="e_0_energy">     -2.01085030 </i>
   </energy>
  </scstep>
  <scstep>
   <time name="total">    0.93    0.93</time>
   <energy>
    <i name="e_fr_energy">     -2.17658651 </i>
    <i name="e_wo_entrp">     -2.17341381 </i>
    <i name="e_0_energy">     -2.17500016 </i>
   </energy>
  </scstep>
  <scstep>
   <time name="total">    0.93    0.93</time>
   <energy>
    <i name="e_fr_energy">     -2.16988372 </i>
    <i name="e_wo_entrp">     -2.12545989 </i>
    <i name="e_0_energy">     -2.14767180 </i>
   </energy>
  </scstep>
  <scstep>
   <time name="total">    0.92    0.93</time>
   <energy>
    <i name="e_fr_energy">     -1.71334822 </i>
    <i name="e_wo_entrp">     -1.71333858 </i>
    <i name="e_0_energy">     -1.71334340 </i>
   </energy>
  </scstep>
  <scstep>
   <time name="total">    0.93    0.93</time>
   <energy>
    <i name="e_fr_energy">     -1.94348448 </i>
    <i name="e_wo_entrp">     -1.92161388 </i>
    <i name="e_0_energy">     -1.93254918 </i>
   </energy>
  </scstep>
  <scstep>
   <time name="total">    0.94    0.94</time>
   <energy>
    <i name="e_fr_energy">     -2.41035368 </i>
    <i name="e_wo_entrp">     -2.37089333 </i>
    <i name="e_0_energy">     -2.39062351 </i>
   </energy>
  </scstep>
  <scstep>
   <time name="total">    0.93    0.93</time>
   <energy>
    <i name="e_fr_energy">     -1.06577303 </i>
    <i name="e_wo_entrp">     -1.06577261 </i>
    <i name="e_0_energy">     -1.06577282 </i>
   </energy>
  </scstep>
  <scstep>
   <time name="total">    0.92    0.92</time>
   <energy>
    <i name="e_fr_energy">     -1.77314810 </i>
    <i name="e_wo_entrp">     -1.76465531 </i>
    <i name="e_0_energy">     -1.76890171 </i>
   </energy>
  </scstep>
  <scstep>
   <time name="total">    0.92    0.92</time>
   <energy>
    <i name="e_fr_energy">     -2.24938428 </i>
    <i name="e_wo_entrp">     -2.21082056 </i>
    <i name="e_0_energy">     -2.23010242 </i>
   </energy>
  </scstep>
  <scstep>
   <time name="total">    0.92    0.92</time>
   <energy>
    <i name="e_fr_energy">     -0.80856953 </i>
    <i name="e_wo_entrp">     -0.80386029 </i>
    <i name="e_0_energy">     -0.80621491 </i>
   </energy>
  </scstep>
  <scstep>
   <time name="total">    0.92    0.92</time>
   <energy>
    <i name="e_fr_energy">     -1.94343766 </i>
    <i name="e_wo_entrp">     -1.90049635 </i>
    <i name="e_0_energy">     -1.92196701 </i>
   </energy>
  </scstep>
  <scstep>
   <time name="total">    0.93    0.93</time>
   <energy>
    <i name="e_fr_energy">     -1.91735593 </i>
    <i name="e_wo_entrp">     -1.91655476 </i>
    <i name="e_0_energy">     -1.91695534 </i>
   </energy>
  </scstep>
  <scstep>
   <time name="total">    0.93    0.93</time>
   <energy>
    <i name="e_fr_energy">     -1.77484081 </i>
    <i name="e_wo_entrp">     -1.73429129 </i>
    <i name="e_0_energy">     -1.75456605 </i>
   </energy>
  </scstep>
  <scstep>
   <time name="total">    0.92    0.92</time>
   <energy>
    <i name="e_fr_energy">     -1.59172308 </i>
    <i name="e_wo_entrp">     -1.59134310 </i>
    <i name="e_0_energy">     -1.59153309 </i>
   </energy>
  </scstep>
  <scstep>
   <time name="total">    0.93    0.93</time>
   <energy>
    <i name="e_fr_energy">     -1.84333794 </i>
    <i name="e_wo_entrp">     -1.79865234 </i>
    <i name="e_0_energy">     -1.82099514 </i>
   </energy>
  </scstep>
  <scstep>
   <time name="total">    0.92    0.92</time>
   <energy>
    <i name="e_fr_energy">     -1.95561792 </i>
    <i name="e_wo_entrp">     -1.95479649 </i>
    <i name="e_0_energy">     -1.95520721 </i>
   </energy>
  </scstep>
  <scstep>
   <time name="total">    0.93    0.93</time>
   <energy>
    <i name="e_fr_energy">     -1.98164701 </i>
    <i name="e_wo_entrp">     -1.93736801 </i>
    <i name="e_0_energy">     -1.95950751 </i>
   </energy>
  </scstep>
  <scstep>
   <time name="total">    0.92    0.92</time>
   <energy>
    <i name="e_fr_energy">     -1.78892339 </i>
    <i name="e_wo_entrp">     -1.78883608 </i>
    <i name="e_0_energy">     -1.78887973 </i>
   </energy>
  </scstep>
  <scstep>
   <time name="total">    0.92    0.93</time>
   <energy>
    <i name="e_fr_energy">     -1.94773178 </i>
    <i name="e_wo_entrp">     -1.90832565 </i>
    <i name="e_0_energy">     -1.92802872 </i>
   </energy>
  </scstep>
  <scstep>
   <time name="total">    0.92    0.92</time>
   <energy>
    <i name="e_fr_energy">     -2.36810829 </i>
    <i name="e_wo_entrp">     -2.33959261 </i>
    <i name="e_0_energy">     -2.35385045 </i>
   </energy>
  </scstep>
  <scstep>
   <time name="total">    0.92    0.92</time>
   <energy>
    <i name="e_fr_energy">     -2.43273950 </i>
    <i name="e_wo_entrp">     -2.39881232 </i>
    <i name="e_0_energy">     -2.41577591 </i>
   </energy>
  </scstep>
  <scstep>
   <time name="total">    0.93    0.93</time>
   <energy>
    <i name="e_fr_energy">     -2.43143039 </i>
    <i name="e_wo_entrp">     -2.40840153 </i>
    <i name="e_0_energy">     -2.41991596 </i>
   </energy>
  </scstep>
  <scstep>
   <time name="total">    0.93    0.93</time>
   <energy>
    <i name="e_fr_energy">     -2.40544829 </i>
    <i name="e_wo_entrp">     -2.36135836 </i>
    <i name="e_0_energy">     -2.38340332 </i>
   </energy>
  </scstep>
  <scstep>
   <time name="total">    0.93    0.93</time>
   <energy>
    <i name="e_fr_energy">     -2.15837866 </i>
    <i name="e_wo_entrp">     -2.15800855 </i>
    <i name="e_0_energy">     -2.15819361 </i>
   </energy>
  </scstep>
  <scstep>
   <time name="total">    0.93    0.93</time>
   <energy>
    <i name="e_fr_energy">     -2.05405342 </i>
    <i name="e_wo_entrp">     -2.01055766 </i>
    <i name="e_0_energy">     -2.03230554 </i>
   </energy>
  </scstep>
  <scstep>
   <time name="total">    0.92    0.93</time>
   <energy>
    <i name="e_fr_energy">     -2.18471317 </i>
    <i name="e_wo_entrp">     -2.18148315 </i>
    <i name="e_0_energy">     -2.18309816 </i>
   </energy>
  </scstep>
  <scstep>
   <time name="total">    0.92    0.92</time>
   <energy>
    <i name="e_fr_energy">     -2.19155750 </i>
    <i name="e_wo_entrp">     -2.14670999 </i>
    <i name="e_0_energy">     -2.16913374 </i>
   </energy>
  </scstep>
  <scstep>
   <time name="total">    0.92    0.92</time>
   <energy>
    <i name="e_fr_energy">     -1.80998597 </i>
    <i name="e_wo_entrp">     -1.80996393 </i>
    <i name="e_0_energy">     -1.80997495 </i>
   </energy>
  </scstep>
  <scstep>
   <time name="total">    0.93    0.93</time>
   <energy>
    <i name="e_fr_energy">     -1.99518549 </i>
    <i name="e_wo_entrp">     -1.97068844 </i>
    <i name="e_0_energy">     -1.98293697 </i>
   </energy>
  </scstep>
  <scstep>
   <time name="total">    0.92    0.92</time>
   <energy>
    <i name="e_fr_energy">     -2.42703965 </i>
    <i name="e_wo_entrp">     -2.38552201 </i>
    <i name="e_0_energy">     -2.40628083 </i>
   </energy>
  </scstep>
  <scstep>
   <time name="total">    0.92    0.92</time>
   <energy>
    <i name="e_fr_energy">     -1.25482095 </i>
    <i name="e_wo_entrp">     -1.25482092 </i>
    <i name="e_0_energy">     -1.25482094 </i>
   </energy>
  </scstep>
  <scstep>
   <time name="total">    0.93    0.93</time>
   <energy>
    <i name="e_fr_energy">     -1.78334392 </i>
    <i name="e_wo_entrp">     -1.78048246 </i>
    <i name="e_0_energy">     -1.78191319 </i>
   </energy>
  </scstep>
  <scstep>
   <time name="total">    0.91    0.91</time>
   <energy>
    <i name="e_fr_energy">     -2.21290666 </i>
    <i name="e_wo_entrp">     -2.17434031 </i>
    <i name="e_0_energy">     -2.19362349 </i>
   </energy>
  </scstep>
  <scstep>
   <time name="total">    0.92    0.92</time>
   <energy>
    <i name="e_fr_energy">     -0.69963992 </i>
    <i name="e_wo_entrp">     -0.69725019 </i>
    <i name="e_0_energy">     -0.69844506 </i>
   </energy>
  </scstep>
  <scstep>
   <time name="total">    0.93    0.93</time>
   <energy>
    <i name="e_fr_energy">     -1.94587245 </i>
    <i name="e_wo_entrp">     -1.90114733 </i>
    <i name="e_0_energy">     -1.92350989 </i>
   </energy>
  </scstep>
  <scstep>
   <time name="total">    0.93    0.93</time>
   <energy>
    <i name="e_fr_energy">     -2.08234057 </i>
    <i name="e_wo_entrp">     -2.08001798 </i>
    <i name="e_0_energy">     -2.08117927 </i>
   </energy>
  </scstep>
  <scstep>
   <time name="total">    0.93    0.93</time>
   <energy>
    <i name="e_fr_energy">     -1.91285690 </i>
    <i name="e_wo_entrp">     -1.87325196 </i>
    <i name="e_0_energy">     -1.89305443 </i>
   </energy>
  </scstep>
  <scstep>
   <time name="total">    0.92    0.92</time>
   <energy>
    <i name="e_fr_energy">     -1.47399024 </i>
    <i name="e_wo_entrp">     -1.47363320 </i>
    <i name="e_0_energy">     -1.47381172 </i>
   </energy>
  </scstep>
  <scstep>
   <time name="total">    0.93    0.93</time>
   <energy>
    <i name="e_fr_energy">     -1.81948877 </i>
    <i name="e_wo_entrp">     -1.77469804 </i>
    <i name="e_0_energy">     -1.79709341 </i>
   </energy>
  </scstep>
  <scstep>
   <time name="total">    0.93    0.95</time>
   <energy>
    <i name="e_fr_energy">     -2.01200648 </i>
    <i name="e_wo_entrp">     -2.01047134 </i>
    <i name="e_0_energy">     -2.01123891 </i>
   </energy>
  </scstep>
  <scstep>
   <time name="total">    0.93    0.93</time>
   <energy>
    <i name="e_fr_energy">     -1.99455225 </i>
    <i name="e_wo_entrp">     -1.95205390 </i>
    <i name="e_0_energy">     -1.97330307 </i>
   </energy>
  </scstep>
  <scstep>
   <time name="total">    0.91    0.91</time>
   <energy>
    <i name="e_fr_energy">     -1.58904426 </i>
    <i name="e_wo_entrp">     -1.58902301 </i>
    <i name="e_0_energy">     -1.58903363 </i>
   </energy>
  </scstep>
  <scstep>
   <time name="total">    0.93    0.93</time>
   <energy>
    <i name="e_fr_energy">     -1.86378400 </i>
    <i name="e_wo_entrp">     -1.83073287 </i>
    <i name="e_0_energy">     -1.84725844 </i>
   </energy>
  </scstep>
  <scstep>
   <time name="total">    0.93    0.93</time>
   <energy>
    <i name="e_fr_energy">     -2.43230133 </i>
    <i name="e_wo_entrp">     -2.38769193 </i>
    <i name="e_0_energy">     -2.40999663 </i>
   </energy>
  </scstep>
  <scstep>
   <time name="total">    0.92    0.92</time>
   <energy>
    <i name="e_fr_energy">     -1.78187691 </i>
    <i name="e_wo_entrp">     -1.78187497 </i>
    <i name="e_0_energy">     -1.78187594 </i>
   </energy>
  </scstep>
  <scstep>
   <time name="total">    0.93    0.93</time>
   <energy>
    <i name="e_fr_energy">     -1.86513101 </i>
    <i name="e_wo_entrp">     -1.84716230 </i>
    <i name="e_0_energy">     -1.85614665 </i>
   </energy>
  </scstep>
  <scstep>
   <time name="total">    0.93    0.93</time>
   <energy>
    <i name="e_fr_energy">     -2.37591466 </i>
    <i name="e_wo_entrp">     -2.33727448 </i>
    <i name="e_0_energy">     -2.35659457 </i>
   </energy>
  </scstep>
  <scstep>
   <time name="total">    0.93    0.93</time>
   <energy>
    <i name="e_fr_energy">     -0.93116582 </i>
    <i name="e_wo_entrp">     -0.93114615 </i>
    <i name="e_0_energy">     -0.93115599 </i>
   </energy>
  </scstep>
  <scstep>
   <time name="total">    0.92    0.92</time>
   <energy>
    <i name="e_fr_energy">     -1.81137780 </i>
    <i name="e_wo_entrp">     -1.78487900 </i>
    <i name="e_0_energy">     -1.79812840 </i>
   </energy>
  </scstep>
  <scstep>
   <time name="total">    0.92    0.92</time>
   <energy>
    <i name="e_fr_energy">     -2.40075979 </i>
    <i name="e_wo_entrp">     -2.36190076 </i>
    <i name="e_0_energy">     -2.38133027 </i>
   </energy>
  </scstep>
  <scstep>
   <time name="total">    0.91    0.91</time>
   <energy>
    <i name="e_fr_energy">     -1.22285661 </i>
    <i name="e_wo_entrp">     -1.22281411 </i>
    <i name="e_0_energy">     -1.22283536 </i>
   </energy>
  </scstep>
  <scstep>
   <time name="total">    0.92    0.92</time>
   <energy>
    <i name="e_fr_energy">     -1.73502966 </i>
    <i name="e_wo_entrp">     -1.69458540 </i>
    <i name="e_0_energy">     -1.71480753 </i>
   </energy>
  </scstep>
  <scstep>
   <time name="total">    0.92    0.93</time>
   <energy>
    <i name="e_fr_energy">     -2.39295474 </i>
    <i name="e_wo_entrp">     -2.35169876 </i>
    <i name="e_0_energy">     -2.37232675 </i>
   </energy>
  </scstep>
  <scstep>
   <time name="total">    0.92    0.93</time>
   <energy>
    <i name="e_fr_energy">     -2.36544797 </i>
    <i name="e_wo_entrp">     -2.35952516 </i>
    <i name="e_0_energy">     -2.36248657 </i>
   </energy>
  </scstep>
  <scstep>
   <time name="total">    0.92    0.93</time>
   <energy>
    <i name="e_fr_energy">     -2.13833989 </i>
    <i name="e_wo_entrp">     -2.09817979 </i>
    <i name="e_0_energy">     -2.11825984 </i>
   </energy>
  </scstep>
  <scstep>
   <time name="total">    0.92    0.93</time>
   <energy>
    <i name="e_fr_energy">     -1.34295394 </i>
    <i name="e_wo_entrp">     -1.34294518 </i>
    <i name="e_0_energy">     -1.34294956 </i>
   </energy>
  </scstep>
  <scstep>
   <time name="total">    0.93    0.93</time>
   <energy>
    <i name="e_fr_energy">     -1.79088309 </i>
    <i name="e_wo_entrp">     -1.76227499 </i>
    <i name="e_0_energy">     -1.77657904 </i>
   </energy>
  </scstep>
  <scstep>
   <time name="total">    0.92    0.92</time>
   <energy>
    <i name="e_fr_energy">     -2.42501913 </i>
    <i name="e_wo_entrp">     -2.38526170 </i>
    <i name="e_0_energy">     -2.40514042 </i>
   </energy>
  </scstep>
  <scstep>
   <time name="total">    0.92    0.92</time>
   <energy>
    <i name="e_fr_energy">     -1.24642296 </i>
    <i name="e_wo_entrp">     -1.24642178 </i>
    <i name="e_0_energy">     -1.24642237 </i>
   </energy>
  </scstep>
  <scstep>
   <time name="total">    0.92    0.93</time>
   <energy>
    <i name="e_fr_energy">     -1.72613348 </i>
    <i name="e_wo_entrp">     -1.70823046 </i>
    <i name="e_0_energy">     -1.71718197 </i>
   </energy>
  </scstep>
  <scstep>
   <time name="total">    0.92    0.92</time>
   <energy>
    <i name="e_fr_energy">     -2.33958191 </i>
    <i name="e_wo_entrp">     -2.30101350 </i>
    <i name="e_0_energy">     -2.32029770 </i>
   </energy>
  </scstep>
  <scstep>
   <time name="total">    0.92    0.92</time>
   <energy>
    <i name="e_fr_energy">     -0.94520797 </i>
    <i name="e_wo_entrp">     -0.94176116 </i>
    <i name="e_0_energy">     -0.94348456 </i>
   </energy>
  </scstep>
  <scstep>
   <time name="total">    0.92    0.92</time>
   <energy>
    <i name="e_fr_energy">     -1.86550448 </i>
    <i name="e_wo_entrp">     -1.82416443 </i>
    <i name="e_0_energy">     -1.84483445 </i>
   </energy>
  </scstep>
  <scstep>
   <time name="total">    0.92    0.92</time>
   <energy>
    <i name="e_fr_energy">     -1.82660769 </i>
    <i name="e_wo_entrp">     -1.82544628 </i>
    <i name="e_0_energy">     -1.82602698 </i>
   </energy>
  </scstep>
  <scstep>
   <time name="total">    0.92    0.92</time>
   <energy>
    <i name="e_fr_energy">     -1.74227641 </i>
    <i name="e_wo_entrp">     -1.70265979 </i>
    <i name="e_0_energy">     -1.72246810 </i>
   </energy>
  </scstep>
  <scstep>
   <time name="total">    0.91    0.92</time>
   <energy>
    <i name="e_fr_energy">     -1.58427677 </i>
    <i name="e_wo_entrp">     -1.58277672 </i>
    <i name="e_0_energy">     -1.58352675 </i>
   </energy>
  </scstep>
  <scstep>
   <time name="total">    0.92    0.93</time>
   <energy>
    <i name="e_fr_energy">     -1.83279295 </i>
    <i name="e_wo_entrp">     -1.79165288 </i>
    <i name="e_0_energy">     -1.81222291 </i>
   </energy>
  </scstep>
  <scstep>
   <time name="total">    0.91    0.92</time>
   <energy>
    <i name="e_fr_energy">     -1.67790147 </i>
    <i name="e_wo_entrp">     -1.67749979 </i>
    <i name="e_0_energy">     -1.67770063 </i>
   </energy>
  </scstep>
  <scstep>
   <time name="total">    0.92    0.92</time>
   <energy>
    <i name="e_fr_energy">     -1.81813595 </i>
    <i name="e_wo_entrp">     -1.77396490 </i>
    <i name="e_0_energy">     -1.79605042 </i>
   </energy>
  </scstep>
  <scstep>
   <time name="total">    0.92    0.92</time>
   <energy>
    <i name="e_fr_energy">     -1.88139164 </i>
    <i name="e_wo_entrp">     -1.88085697 </i>
    <i name="e_0_energy">     -1.88112431 </i>
   </energy>
  </scstep>
  <scstep>
   <time name="total">    0.95    0.95</time>
   <energy>
    <i name="e_fr_energy">     -1.94502903 </i>
    <i name="e_wo_entrp">     -1.90034844 </i>
    <i name="e_0_energy">     -1.92268873 </i>
   </energy>
  </scstep>
  <scstep>
   <time name="total">    0.92    0.92</time>
   <energy>
    <i name="e_fr_energy">     -1.87754904 </i>
    <i name="e_wo_entrp">     -1.87732058 </i>
    <i name="e_0_energy">     -1.87743481 </i>
   </energy>
  </scstep>
  <scstep>
   <time name="total">    0.93    0.93</time>
   <energy>
    <i name="e_fr_energy">     -1.98161662 </i>
    <i name="e_wo_entrp">     -1.93809500 </i>
    <i name="e_0_energy">     -1.95985581 </i>
   </energy>
  </scstep>
  <scstep>
   <time name="total">    0.92    0.93</time>
   <energy>
    <i name="e_fr_energy">     -2.20870743 </i>
    <i name="e_wo_entrp">     -2.20332483 </i>
    <i name="e_0_energy">     -2.20601613 </i>
   </energy>
  </scstep>
  <scstep>
   <time name="total">    0.92    0.92</time>
   <energy>
    <i name="e_fr_energy">     -2.19883412 </i>
    <i name="e_wo_entrp">     -2.15530640 </i>
    <i name="e_0_energy">     -2.17707026 </i>
   </energy>
  </scstep>
  <scstep>
   <time name="total">    0.91    0.92</time>
   <energy>
    <i name="e_fr_energy">     -1.58672453 </i>
    <i name="e_wo_entrp">     -1.58672196 </i>
    <i name="e_0_energy">     -1.58672324 </i>
   </energy>
  </scstep>
  <scstep>
   <time name="total">    0.92    0.92</time>
   <energy>
    <i name="e_fr_energy">     -1.87805699 </i>
    <i name="e_wo_entrp">     -1.86150384 </i>
    <i name="e_0_energy">     -1.86978042 </i>
   </energy>
  </scstep>
  <scstep>
   <time name="total">    0.91    0.91</time>
   <energy>
    <i name="e_fr_energy">     -2.36591753 </i>
    <i name="e_wo_entrp">     -2.32728907 </i>
    <i name="e_0_energy">     -2.34660330 </i>
   </energy>
  </scstep>
  <scstep>
   <time name="total">    0.92    0.93</time>
   <energy>
    <i name="e_fr_energy">     -0.91420774 </i>
    <i name="e_wo_entrp">     -0.91418502 </i>
    <i name="e_0_energy">     -0.91419638 </i>
   </energy>
  </scstep>
  <scstep>
   <time name="total">    0.92    0.93</time>
   <energy>
    <i name="e_fr_energy">     -1.82273395 </i>
    <i name="e_wo_entrp">     -1.79650831 </i>
    <i name="e_0_energy">     -1.80962113 </i>
   </energy>
  </scstep>
  <scstep>
   <time name="total">    0.92    0.92</time>
   <energy>
    <i name="e_fr_energy">     -2.39975724 </i>
    <i name="e_wo_entrp">     -2.36088545 </i>
    <i name="e_0_energy">     -2.38032135 </i>
   </energy>
  </scstep>
  <scstep>
   <time name="total">    0.92    0.92</time>
   <energy>
    <i name="e_fr_energy">     -1.22042736 </i>
    <i name="e_wo_entrp">     -1.22038825 </i>
    <i name="e_0_energy">     -1.22040781 </i>
   </energy>
  </scstep>
  <scstep>
   <time name="total">    0.92    0.92</time>
   <energy>
    <i name="e_fr_energy">     -1.73566127 </i>
    <i name="e_wo_entrp">     -1.69576429 </i>
    <i name="e_0_energy">     -1.71571278 </i>
   </energy>
  </scstep>
  <scstep>
   <time name="total">    0.93    0.93</time>
   <energy>
    <i name="e_fr_energy">     -2.40067308 </i>
    <i name="e_wo_entrp">     -2.35799374 </i>
    <i name="e_0_energy">     -2.37933341 </i>
   </energy>
  </scstep>
  <scstep>
   <time name="total">    0.92    0.92</time>
   <energy>
    <i name="e_fr_energy">     -2.31636832 </i>
    <i name="e_wo_entrp">     -2.31371883 </i>
    <i name="e_0_energy">     -2.31504357 </i>
   </energy>
  </scstep>
  <scstep>
   <time name="total">    0.92    0.92</time>
   <energy>
    <i name="e_fr_energy">     -2.06810879 </i>
    <i name="e_wo_entrp">     -2.02700430 </i>
    <i name="e_0_energy">     -2.04755655 </i>
   </energy>
  </scstep>
  <scstep>
   <time name="total">    0.91    0.91</time>
   <energy>
    <i name="e_fr_energy">     -1.41266615 </i>
    <i name="e_wo_entrp">     -1.41265941 </i>
    <i name="e_0_energy">     -1.41266278 </i>
   </energy>
  </scstep>
  <scstep>
   <time name="total">    0.92    0.92</time>
   <energy>
    <i name="e_fr_energy">     -1.82393801 </i>
    <i name="e_wo_entrp">     -1.79837463 </i>
    <i name="e_0_energy">     -1.81115632 </i>
   </energy>
  </scstep>
  <scstep>
   <time name="total">    0.91    0.92</time>
   <energy>
    <i name="e_fr_energy">     -2.41511495 </i>
    <i name="e_wo_entrp">     -2.37591807 </i>
    <i name="e_0_energy">     -2.39551651 </i>
   </energy>
  </scstep>
  <scstep>
   <time name="total">    0.91    0.91</time>
   <energy>
    <i name="e_fr_energy">     -1.13826920 </i>
    <i name="e_wo_entrp">     -1.13826651 </i>
    <i name="e_0_energy">     -1.13826786 </i>
   </energy>
  </scstep>
  <scstep>
   <time name="total">    0.92    0.93</time>
   <energy>
    <i name="e_fr_energy">     -1.74757248 </i>
    <i name="e_wo_entrp">     -1.72739554 </i>
    <i name="e_0_energy">     -1.73748401 </i>
   </energy>
  </scstep>
  <scstep>
   <time name="total">    0.92    0.93</time>
   <energy>
    <i name="e_fr_energy">     -2.35599825 </i>
    <i name="e_wo_entrp">     -2.31742219 </i>
    <i name="e_0_energy">     -2.33671022 </i>
   </energy>
  </scstep>
  <scstep>
   <time name="total">    0.92    0.92</time>
   <energy>
    <i name="e_fr_energy">     -1.01959540 </i>
    <i name="e_wo_entrp">     -1.01672235 </i>
    <i name="e_0_energy">     -1.01815888 </i>
   </energy>
  </scstep>
  <scstep>
   <time name="total">    0.92    0.92</time>
   <energy>
    <i name="e_fr_energy">     -1.83761315 </i>
    <i name="e_wo_entrp">     -1.79658028 </i>
    <i name="e_0_energy">     -1.81709671 </i>
   </energy>
  </scstep>
  <scstep>
   <time name="total">    0.92    0.93</time>
   <energy>
    <i name="e_fr_energy">     -1.80623571 </i>
    <i name="e_wo_entrp">     -1.80487630 </i>
    <i name="e_0_energy">     -1.80555600 </i>
   </energy>
  </scstep>
  <scstep>
   <time name="total">    0.92    0.92</time>
   <energy>
    <i name="e_fr_energy">     -1.74841249 </i>
    <i name="e_wo_entrp">     -1.70894191 </i>
    <i name="e_0_energy">     -1.72867720 </i>
   </energy>
  </scstep>
  <scstep>
   <time name="total">    0.91    0.92</time>
   <energy>
    <i name="e_fr_energy">     -1.58276613 </i>
    <i name="e_wo_entrp">     -1.58087873 </i>
    <i name="e_0_energy">     -1.58182243 </i>
   </energy>
  </scstep>
  <scstep>
   <time name="total">    0.92    0.93</time>
   <energy>
    <i name="e_fr_energy">     -1.83227848 </i>
    <i name="e_wo_entrp">     -1.79175870 </i>
    <i name="e_0_energy">     -1.81201859 </i>
   </energy>
  </scstep>
  <scstep>
   <time name="total">    0.91    0.91</time>
   <energy>
    <i name="e_fr_energy">     -1.65557639 </i>
    <i name="e_wo_entrp">     -1.65495276 </i>
    <i name="e_0_energy">     -1.65526457 </i>
   </energy>
  </scstep>
  <scstep>
   <time name="total">    0.92    0.92</time>
   <energy>
    <i name="e_fr_energy">     -1.80429252 </i>
    <i name="e_wo_entrp">     -1.76142703 </i>
    <i name="e_0_energy">     -1.78285977 </i>
   </energy>
  </scstep>
  <scstep>
   <time name="total">    0.91    0.92</time>
   <energy>
    <i name="e_fr_energy">     -1.76871930 </i>
    <i name="e_wo_entrp">     -1.76841034 </i>
    <i name="e_0_energy">     -1.76856482 </i>
   </energy>
  </scstep>
  <scstep>
   <time name="total">    0.92    0.92</time>
   <energy>
    <i name="e_fr_energy">     -1.87736328 </i>
    <i name="e_wo_entrp">     -1.83249350 </i>
    <i name="e_0_energy">     -1.85492839 </i>
   </energy>
  </scstep>
  <scstep>
   <time name="total">    0.91    0.92</time>
   <energy>
    <i name="e_fr_energy">     -1.96768910 </i>
    <i name="e_wo_entrp">     -1.96695177 </i>
    <i name="e_0_energy">     -1.96732043 </i>
   </energy>
  </scstep>
  <scstep>
   <time name="total">    0.92    0.92</time>
   <energy>
    <i name="e_fr_energy">     -2.01419807 </i>
    <i name="e_wo_entrp">     -1.96934620 </i>
    <i name="e_0_energy">     -1.99177214 </i>
   </energy>
  </scstep>
  <scstep>
   <time name="total">    0.91    0.92</time>
   <energy>
    <i name="e_fr_energy">     -1.89579334 </i>
    <i name="e_wo_entrp">     -1.89560401 </i>
    <i name="e_0_energy">     -1.89569868 </i>
   </energy>
  </scstep>
  <scstep>
   <time name="total">    0.93    0.94</time>
   <energy>
    <i name="e_fr_energy">     -2.00330539 </i>
    <i name="e_wo_entrp">     -1.96163669 </i>
    <i name="e_0_energy">     -1.98247104 </i>
   </energy>
  </scstep>
  <scstep>
   <time name="total">    0.93    0.94</time>
   <energy>
    <i name="e_fr_energy">     -2.29691453 </i>
    <i name="e_wo_entrp">     -2.28412388 </i>
    <i name="e_0_energy">     -2.29051921 </i>
   </energy>
  </scstep>
  <scstep>
   <time name="total">    0.92    0.92</time>
   <energy>
    <i name="e_fr_energy">     -2.31256134 </i>
    <i name="e_wo_entrp">     -2.26802547 </i>
    <i name="e_0_energy">     -2.29029340 </i>
   </energy>
  </scstep>
  <scstep>
   <time name="total">    0.92    0.92</time>
   <energy>
    <i name="e_fr_energy">     -1.75146927 </i>
    <i name="e_wo_entrp">     -1.75146429 </i>
    <i name="e_0_energy">     -1.75146678 </i>
   </energy>
  </scstep>
  <scstep>
   <time name="total">    0.92    0.93</time>
   <energy>
    <i name="e_fr_energy">     -1.90923675 </i>
    <i name="e_wo_entrp">     -1.88929128 </i>
    <i name="e_0_energy">     -1.89926402 </i>
   </energy>
  </scstep>
  <scstep>
   <time name="total">    0.92    0.92</time>
   <energy>
    <i name="e_fr_energy">     -2.39655063 </i>
    <i name="e_wo_entrp">     -2.35765235 </i>
    <i name="e_0_energy">     -2.37710149 </i>
   </energy>
  </scstep>
  <scstep>
   <time name="total">    0.91    0.91</time>
   <energy>
    <i name="e_fr_energy">     -0.99090598 </i>
    <i name="e_wo_entrp">     -0.99090282 </i>
    <i name="e_0_energy">     -0.99090440 </i>
   </energy>
  </scstep>
  <scstep>
   <time name="total">    0.92    0.92</time>
   <energy>
    <i name="e_fr_energy">     -1.79480783 </i>
    <i name="e_wo_entrp">     -1.77878873 </i>
    <i name="e_0_energy">     -1.78679828 </i>
   </energy>
  </scstep>
  <scstep>
   <time name="total">    0.92    0.92</time>
   <energy>
    <i name="e_fr_energy">     -2.31850203 </i>
    <i name="e_wo_entrp">     -2.27993380 </i>
    <i name="e_0_energy">     -2.29921792 </i>
   </energy>
  </scstep>
  <scstep>
   <time name="total">    0.91    0.92</time>
   <energy>
    <i name="e_fr_energy">     -0.96734424 </i>
    <i name="e_wo_entrp">     -0.96390628 </i>
    <i name="e_0_energy">     -0.96562526 </i>
   </energy>
  </scstep>
  <scstep>
   <time name="total">    0.91    0.92</time>
   <energy>
    <i name="e_fr_energy">     -1.87586680 </i>
    <i name="e_wo_entrp">     -1.83411396 </i>
    <i name="e_0_energy">     -1.85499038 </i>
   </energy>
  </scstep>
  <scstep>
   <time name="total">    0.91    0.92</time>
   <energy>
    <i name="e_fr_energy">     -1.84041360 </i>
    <i name="e_wo_entrp">     -1.83947618 </i>
    <i name="e_0_energy">     -1.83994489 </i>
   </energy>
  </scstep>
  <scstep>
   <time name="total">    0.93    0.93</time>
   <energy>
    <i name="e_fr_energy">     -1.75718332 </i>
    <i name="e_wo_entrp">     -1.71697876 </i>
    <i name="e_0_energy">     -1.73708104 </i>
   </energy>
  </scstep>
  <scstep>
   <time name="total">    0.92    0.92</time>
   <energy>
    <i name="e_fr_energy">     -1.59824302 </i>
    <i name="e_wo_entrp">     -1.59758185 </i>
    <i name="e_0_energy">     -1.59791244 </i>
   </energy>
  </scstep>
  <scstep>
   <time name="total">    0.92    0.92</time>
   <energy>
    <i name="e_fr_energy">     -1.83500984 </i>
    <i name="e_wo_entrp">     -1.79167519 </i>
    <i name="e_0_energy">     -1.81334252 </i>
   </energy>
  </scstep>
  <scstep>
   <time name="total">    0.91    0.92</time>
   <energy>
    <i name="e_fr_energy">     -1.79304577 </i>
    <i name="e_wo_entrp">     -1.79278103 </i>
    <i name="e_0_energy">     -1.79291340 </i>
   </energy>
  </scstep>
  <scstep>
   <time name="total">    0.92    0.92</time>
   <energy>
    <i name="e_fr_energy">     -1.88838924 </i>
    <i name="e_wo_entrp">     -1.84345027 </i>
    <i name="e_0_energy">     -1.86591975 </i>
   </energy>
  </scstep>
  <scstep>
   <time name="total">    0.90    0.90</time>
   <energy>
    <i name="e_fr_energy">     -2.01200851 </i>
    <i name="e_wo_entrp">     -2.01095468 </i>
    <i name="e_0_energy">     -2.01148159 </i>
   </energy>
  </scstep>
  <scstep>
   <time name="total">    0.92    0.92</time>
   <energy>
    <i name="e_fr_energy">     -2.04291660 </i>
    <i name="e_wo_entrp">     -1.99829029 </i>
    <i name="e_0_energy">     -2.02060344 </i>
   </energy>
  </scstep>
  <scstep>
   <time name="total">    0.91    0.92</time>
   <energy>
    <i name="e_fr_energy">     -1.81603622 </i>
    <i name="e_wo_entrp">     -1.81596495 </i>
    <i name="e_0_energy">     -1.81600058 </i>
   </energy>
  </scstep>
  <scstep>
   <time name="total">    0.92    0.92</time>
   <energy>
    <i name="e_fr_energy">     -1.97082483 </i>
    <i name="e_wo_entrp">     -1.93404606 </i>
    <i name="e_0_energy">     -1.95243545 </i>
   </energy>
  </scstep>
  <scstep>
   <time name="total">    0.91    0.92</time>
   <energy>
    <i name="e_fr_energy">     -2.40340317 </i>
    <i name="e_wo_entrp">     -2.36609290 </i>
    <i name="e_0_energy">     -2.38474803 </i>
   </energy>
  </scstep>
  <scstep>
   <time name="total">    0.91    0.92</time>
   <energy>
    <i name="e_fr_energy">     -2.39661878 </i>
    <i name="e_wo_entrp">     -2.38849761 </i>
    <i name="e_0_energy">     -2.39255819 </i>
   </energy>
  </scstep>
  <scstep>
   <time name="total">    0.92    0.93</time>
   <energy>
    <i name="e_fr_energy">     -2.25512830 </i>
    <i name="e_wo_entrp">     -2.21191565 </i>
    <i name="e_0_energy">     -2.23352198 </i>
   </energy>
  </scstep>
  <scstep>
   <time name="total">    0.91    0.91</time>
   <energy>
    <i name="e_fr_energy">     -1.53560433 </i>
    <i name="e_wo_entrp">     -1.53560316 </i>
    <i name="e_0_energy">     -1.53560374 </i>
   </energy>
  </scstep>
  <scstep>
   <time name="total">    0.92    0.92</time>
   <energy>
    <i name="e_fr_energy">     -1.86579799 </i>
    <i name="e_wo_entrp">     -1.85380229 </i>
    <i name="e_0_energy">     -1.85980014 </i>
   </energy>
  </scstep>
  <scstep>
   <time name="total">    0.92    0.92</time>
   <energy>
    <i name="e_fr_energy">     -2.32635927 </i>
    <i name="e_wo_entrp">     -2.28778038 </i>
    <i name="e_0_energy">     -2.30706982 </i>
   </energy>
  </scstep>
  <scstep>
   <time name="total">    0.92    0.92</time>
   <energy>
    <i name="e_fr_energy">     -0.83302506 </i>
    <i name="e_wo_entrp">     -0.83218423 </i>
    <i name="e_0_energy">     -0.83260465 </i>
   </energy>
  </scstep>
  <scstep>
   <time name="total">    0.92    0.93</time>
   <energy>
    <i name="e_fr_energy">     -1.87362588 </i>
    <i name="e_wo_entrp">     -1.82873392 </i>
    <i name="e_0_energy">     -1.85117990 </i>
   </energy>
  </scstep>
  <scstep>
   <time name="total">    0.92    0.92</time>
   <energy>
    <i name="e_fr_energy">     -2.20126840 </i>
    <i name="e_wo_entrp">     -2.19307489 </i>
    <i name="e_0_energy">     -2.19717164 </i>
   </energy>
  </scstep>
  <scstep>
   <time name="total">    0.91    0.92</time>
   <energy>
    <i name="e_fr_energy">     -2.08224308 </i>
    <i name="e_wo_entrp">     -2.04300498 </i>
    <i name="e_0_energy">     -2.06262403 </i>
   </energy>
  </scstep>
  <scstep>
   <time name="total">    0.91    0.92</time>
   <energy>
    <i name="e_fr_energy">     -1.43146387 </i>
    <i name="e_wo_entrp">     -1.43115398 </i>
    <i name="e_0_energy">     -1.43130892 </i>
   </energy>
  </scstep>
  <scstep>
   <time name="total">    0.92    0.92</time>
   <energy>
    <i name="e_fr_energy">     -1.78862964 </i>
    <i name="e_wo_entrp">     -1.74378534 </i>
    <i name="e_0_energy">     -1.76620749 </i>
   </energy>
  </scstep>
  <scstep>
   <time name="total">    0.93    0.93</time>
   <energy>
    <i name="e_fr_energy">     -2.05143059 </i>
    <i name="e_wo_entrp">     -2.04894448 </i>
    <i name="e_0_energy">     -2.05018754 </i>
   </energy>
  </scstep>
  <scstep>
   <time name="total">    0.92    0.93</time>
   <energy>
    <i name="e_fr_energy">     -2.01161849 </i>
    <i name="e_wo_entrp">     -1.97046481 </i>
    <i name="e_0_energy">     -1.99104165 </i>
   </energy>
  </scstep>
  <scstep>
   <time name="total">    0.91    0.92</time>
   <energy>
    <i name="e_fr_energy">     -1.48791853 </i>
    <i name="e_wo_entrp">     -1.48789739 </i>
    <i name="e_0_energy">     -1.48790796 </i>
   </energy>
  </scstep>
  <scstep>
   <time name="total">    0.92    0.92</time>
   <energy>
    <i name="e_fr_energy">     -1.82438829 </i>
    <i name="e_wo_entrp">     -1.79000761 </i>
    <i name="e_0_energy">     -1.80719795 </i>
   </energy>
  </scstep>
  <scstep>
   <time name="total">    0.93    0.93</time>
   <energy>
    <i name="e_fr_energy">     -2.43058342 </i>
    <i name="e_wo_entrp">     -2.38587547 </i>
    <i name="e_0_energy">     -2.40822944 </i>
   </energy>
  </scstep>
  <scstep>
   <time name="total">    0.92    0.93</time>
   <energy>
    <i name="e_fr_energy">     -1.83817105 </i>
    <i name="e_wo_entrp">     -1.83816688 </i>
    <i name="e_0_energy">     -1.83816896 </i>
   </energy>
  </scstep>
  <scstep>
   <time name="total">    0.92    0.92</time>
   <energy>
    <i name="e_fr_energy">     -1.86663242 </i>
    <i name="e_wo_entrp">     -1.84291768 </i>
    <i name="e_0_energy">     -1.85477505 </i>
   </energy>
  </scstep>
  <scstep>
   <time name="total">    0.92    0.92</time>
   <energy>
    <i name="e_fr_energy">     -2.41331453 </i>
    <i name="e_wo_entrp">     -2.37412981 </i>
    <i name="e_0_energy">     -2.39372217 </i>
   </energy>
  </scstep>
  <scstep>
   <time name="total">    0.93    0.93</time>
   <energy>
    <i name="e_fr_energy">     -1.07326974 </i>
    <i name="e_wo_entrp">     -1.07326845 </i>
    <i name="e_0_energy">     -1.07326909 </i>
   </energy>
  </scstep>
  <scstep>
   <time name="total">    0.92    0.92</time>
   <energy>
    <i name="e_fr_energy">     -1.76030524 </i>
    <i name="e_wo_entrp">     -1.74582274 </i>
    <i name="e_0_energy">     -1.75306399 </i>
   </energy>
  </scstep>
  <scstep>
   <time name="total">    0.92    0.92</time>
   <energy>
    <i name="e_fr_energy">     -2.30327874 </i>
    <i name="e_wo_entrp">     -2.26471307 </i>
    <i name="e_0_energy">     -2.28399590 </i>
   </energy>
  </scstep>
  <scstep>
   <time name="total">    0.91    0.92</time>
   <energy>
    <i name="e_fr_energy">     -0.91372185 </i>
    <i name="e_wo_entrp">     -0.90915142 </i>
    <i name="e_0_energy">     -0.91143663 </i>
   </energy>
  </scstep>
  <scstep>
   <time name="total">    0.92    0.92</time>
   <energy>
    <i name="e_fr_energy">     -1.90365066 </i>
    <i name="e_wo_entrp">     -1.86204686 </i>
    <i name="e_0_energy">     -1.88284876 </i>
   </energy>
  </scstep>
  <scstep>
   <time name="total">    0.92    0.92</time>
   <energy>
    <i name="e_fr_energy">     -1.84160202 </i>
    <i name="e_wo_entrp">     -1.84065694 </i>
    <i name="e_0_energy">     -1.84112948 </i>
   </energy>
  </scstep>
  <scstep>
   <time name="total">    0.92    0.92</time>
   <energy>
    <i name="e_fr_energy">     -1.73856509 </i>
    <i name="e_wo_entrp">     -1.69863237 </i>
    <i name="e_0_energy">     -1.71859873 </i>
   </energy>
  </scstep>
  <scstep>
   <time name="total">    0.91    0.92</time>
   <energy>
    <i name="e_fr_energy">     -1.59443049 </i>
    <i name="e_wo_entrp">     -1.59344025 </i>
    <i name="e_0_energy">     -1.59393537 </i>
   </energy>
  </scstep>
  <scstep>
   <time name="total">    0.92    0.92</time>
   <energy>
    <i name="e_fr_energy">     -1.83492594 </i>
    <i name="e_wo_entrp">     -1.79251632 </i>
    <i name="e_0_energy">     -1.81372113 </i>
   </energy>
  </scstep>
  <scstep>
   <time name="total">    0.92    0.92</time>
   <energy>
    <i name="e_fr_energy">     -1.74248089 </i>
    <i name="e_wo_entrp">     -1.74219225 </i>
    <i name="e_0_energy">     -1.74233657 </i>
   </energy>
  </scstep>
  <scstep>
   <time name="total">    0.92    0.92</time>
   <energy>
    <i name="e_fr_energy">     -1.85819374 </i>
    <i name="e_wo_entrp">     -1.81329159 </i>
    <i name="e_0_energy">     -1.83574266 </i>
   </energy>
  </scstep>
  <scstep>
   <time name="total">    0.92    0.92</time>
   <energy>
    <i name="e_fr_energy">     -2.00477253 </i>
    <i name="e_wo_entrp">     -2.00353431 </i>
    <i name="e_0_energy">     -2.00415342 </i>
   </energy>
  </scstep>
  <scstep>
   <time name="total">    0.93    0.93</time>
   <energy>
    <i name="e_fr_energy">     -2.02987942 </i>
    <i name="e_wo_entrp">     -1.98570188 </i>
    <i name="e_0_energy">     -2.00779065 </i>
   </energy>
  </scstep>
  <scstep>
   <time name="total">    0.92    0.92</time>
   <energy>
    <i name="e_fr_energy">     -1.75365022 </i>
    <i name="e_wo_entrp">     -1.75360189 </i>
    <i name="e_0_energy">     -1.75362605 </i>
   </energy>
  </scstep>
  <scstep>
   <time name="total">    0.92    0.92</time>
   <energy>
    <i name="e_fr_energy">     -1.93804577 </i>
    <i name="e_wo_entrp">     -1.90267041 </i>
    <i name="e_0_energy">     -1.92035809 </i>
   </energy>
  </scstep>
  <scstep>
   <time name="total">    0.92    0.92</time>
   <energy>
    <i name="e_fr_energy">     -2.41926096 </i>
    <i name="e_wo_entrp">     -2.37654882 </i>
    <i name="e_0_energy">     -2.39790489 </i>
   </energy>
  </scstep>
  <scstep>
   <time name="total">    0.92    0.92</time>
   <energy>
    <i name="e_fr_energy">     -2.24658695 </i>
    <i name="e_wo_entrp">     -2.24588926 </i>
    <i name="e_0_energy">     -2.24623811 </i>
   </energy>
  </scstep>
  <scstep>
   <time name="total">    0.92    0.92</time>
   <energy>
    <i name="e_fr_energy">     -2.08761944 </i>
    <i name="e_wo_entrp">     -2.04284187 </i>
    <i name="e_0_energy">     -2.06523066 </i>
   </energy>
  </scstep>
  <scstep>
   <time name="total">    0.92    0.92</time>
   <energy>
    <i name="e_fr_energy">     -2.01738139 </i>
    <i name="e_wo_entrp">     -2.01691878 </i>
    <i name="e_0_energy">     -2.01715009 </i>
   </energy>
  </scstep>
  <scstep>
   <time name="total">    0.92    0.92</time>
   <energy>
    <i name="e_fr_energy">     -2.08657379 </i>
    <i name="e_wo_entrp">     -2.04397901 </i>
    <i name="e_0_energy">     -2.06527640 </i>
   </energy>
  </scstep>
  <scstep>
   <time name="total">    0.93    0.93</time>
   <energy>
    <i name="e_fr_energy">     -2.23448488 </i>
    <i name="e_wo_entrp">     -2.22956087 </i>
    <i name="e_0_energy">     -2.23202287 </i>
   </energy>
  </scstep>
  <scstep>
   <time name="total">    0.90    0.90</time>
   <energy>
    <i name="e_fr_energy">     -2.22450300 </i>
    <i name="e_wo_entrp">     -2.17989926 </i>
    <i name="e_0_energy">     -2.20220113 </i>
   </energy>
  </scstep>
  <scstep>
   <time name="total">    0.91    0.92</time>
   <energy>
    <i name="e_fr_energy">     -1.73213722 </i>
    <i name="e_wo_entrp">     -1.73212981 </i>
    <i name="e_0_energy">     -1.73213351 </i>
   </energy>
  </scstep>
  <scstep>
   <time name="total">    0.92    0.93</time>
   <energy>
    <i name="e_fr_energy">     -1.95584715 </i>
    <i name="e_wo_entrp">     -1.93698669 </i>
    <i name="e_0_energy">     -1.94641692 </i>
   </energy>
  </scstep>
  <scstep>
   <time name="total">    0.92    0.92</time>
   <energy>
    <i name="e_fr_energy">     -2.39420181 </i>
    <i name="e_wo_entrp">     -2.35520346 </i>
    <i name="e_0_energy">     -2.37470263 </i>
   </energy>
  </scstep>
  <scstep>
   <time name="total">    0.92    0.92</time>
   <energy>
    <i name="e_fr_energy">     -0.98709291 </i>
    <i name="e_wo_entrp">     -0.98709122 </i>
    <i name="e_0_energy">     -0.98709207 </i>
   </energy>
  </scstep>
  <scstep>
   <time name="total">    0.92    0.92</time>
   <energy>
    <i name="e_fr_energy">     -1.79987561 </i>
    <i name="e_wo_entrp">     -1.78750768 </i>
    <i name="e_0_energy">     -1.79369164 </i>
   </energy>
  </scstep>
  <scstep>
   <time name="total">    0.92    0.92</time>
   <energy>
    <i name="e_fr_energy">     -2.28483603 </i>
    <i name="e_wo_entrp">     -2.24627166 </i>
    <i name="e_0_energy">     -2.26555385 </i>
   </energy>
  </scstep>
  <scstep>
   <time name="total">    0.92    0.92</time>
   <energy>
    <i name="e_fr_energy">     -0.90172318 </i>
    <i name="e_wo_entrp">     -0.89755646 </i>
    <i name="e_0_energy">     -0.89963982 </i>
   </energy>
  </scstep>
  <scstep>
   <time name="total">    0.92    0.92</time>
   <energy>
    <i name="e_fr_energy">     -1.91242118 </i>
    <i name="e_wo_entrp">     -1.87012341 </i>
    <i name="e_0_energy">     -1.89127230 </i>
   </energy>
  </scstep>
  <scstep>
   <time name="total">    0.92    0.93</time>
   <energy>
    <i name="e_fr_energy">     -1.87375927 </i>
    <i name="e_wo_entrp">     -1.87295120 </i>
    <i name="e_0_energy">     -1.87335524 </i>
   </energy>
  </scstep>
  <scstep>
   <time name="total">    0.92    0.92</time>
   <energy>
    <i name="e_fr_energy">     -1.76342014 </i>
    <i name="e_wo_entrp">     -1.72288629 </i>
    <i name="e_0_energy">     -1.74315322 </i>
   </energy>
  </scstep>
  <scstep>
   <time name="total">    0.91    0.91</time>
   <energy>
    <i name="e_fr_energy">     -1.60536952 </i>
    <i name="e_wo_entrp">     -1.60491267 </i>
    <i name="e_0_energy">     -1.60514110 </i>
   </energy>
  </scstep>
  <scstep>
   <time name="total">    0.92    0.93</time>
   <energy>
    <i name="e_fr_energy">     -1.84262551 </i>
    <i name="e_wo_entrp">     -1.79827842 </i>
    <i name="e_0_energy">     -1.82045196 </i>
   </energy>
  </scstep>
  <scstep>
   <time name="total">    0.92    0.92</time>
   <energy>
    <i name="e_fr_energy">     -1.89794393 </i>
    <i name="e_wo_entrp">     -1.89742971 </i>
    <i name="e_0_energy">     -1.89768682 </i>
   </energy>
  </scstep>
  <scstep>
   <time name="total">    0.92    0.92</time>
   <energy>
    <i name="e_fr_energy">     -1.94951063 </i>
    <i name="e_wo_entrp">     -1.90479578 </i>
    <i name="e_0_energy">     -1.92715321 </i>
   </energy>
  </scstep>
  <scstep>
   <time name="total">    0.92    0.92</time>
   <energy>
    <i name="e_fr_energy">     -1.88149358 </i>
    <i name="e_wo_entrp">     -1.88126720 </i>
    <i name="e_0_energy">     -1.88138039 </i>
   </energy>
  </scstep>
  <scstep>
   <time name="total">    0.93    0.93</time>
   <energy>
    <i name="e_fr_energy">     -1.98530806 </i>
    <i name="e_wo_entrp">     -1.94187732 </i>
    <i name="e_0_energy">     -1.96359269 </i>
   </energy>
  </scstep>
  <scstep>
   <time name="total">    0.92    0.92</time>
   <energy>
    <i name="e_fr_energy">     -2.21338987 </i>
    <i name="e_wo_entrp">     -2.20782856 </i>
    <i name="e_0_energy">     -2.21060921 </i>
   </energy>
  </scstep>
  <scstep>
   <time name="total">    0.91    0.92</time>
   <energy>
    <i name="e_fr_energy">     -2.20352395 </i>
    <i name="e_wo_entrp">     -2.15997680 </i>
    <i name="e_0_energy">     -2.18175037 </i>
   </energy>
[...]
        <r>    -0.8857     0.0000     0.1112     0.1119     0.1130     0.0000     0.0000     0.0000     0.0000     0.0000 </r>
        <r>    -0.7234     0.0000     0.0000     0.0000     0.0000     0.0000     0.0000     0.0000     0.0000     0.0000 </r>
        <r>    -0.5612     0.0000     0.0000     0.0000     0.0000     0.0000     0.0000     0.0000     0.0000     0.0000 </r>
        <r>    -0.3989     0.0003     0.0000     0.0000     0.0000     0.0000     0.0000     0.0000     0.0000     0.0000 </r>
        <r>    -0.2366     0.1848     0.0000     0.0000     0.0000     0.0000     0.0000     0.0000     0.0000     0.0000 </r>
        <r>    -0.0744     0.0107     0.0000     0.0000     0.0000     0.0000     0.0000     0.0000     0.0000     0.0000 </r>
        <r>     0.0879     0.0000     0.0000     0.0000     0.0000     0.0000     0.0000     0.0000     0.0000     0.0000 </r>
        <r>     0.2501     0.0000     0.0000     0.0000     0.0000     0.0000     0.0000     0.0000     0.0000     0.0000 </r>
        <r>     0.4124     0.0000     0.0000     0.0000     0.0000     0.0000     0.0000     0.0000     0.0000     0.0000 </r>
        <r>     0.5746     0.0000     0.0000     0.0000     0.0000     0.0000     0.0000     0.0013     0.0000     0.0013 </r>
        <r>     0.7369     0.0000     0.0000     0.0000     0.0000     0.0000     0.0000     0.2058     0.0000     0.2058 </r>
        <r>     0.8991     0.0000     0.0000     0.0000     0.0000     0.0000     0.0000     0.0039     0.0000     0.0039 </r>
        <r>     1.0614     0.0000     0.0000     0.0000     0.0000     0.0000     0.0000     0.0000     0.0000     0.0000 </r>
        <r>     1.2236     0.0000     0.0000     0.0000     0.0000     0.0000     0.0000     0.0000     0.0000     0.0000 </r>
        <r>     1.3859     0.0000     0.0130     0.0129     0.0128     0.0000     0.0000     0.0000     0.0000     0.0000 </r>
        <r>     1.5482     0.0000     0.1450     0.1447     0.1442     0.0000     0.0000     0.0000     0.0000     0.0000 </r>
        <r>     1.7104     0.1134     0.0001     0.0001     0.0001     0.0604     0.0605     0.0000     0.0605     0.0000 </r>
        <r>     1.8727     0.0799     0.0000     0.0000     0.0000     0.2155     0.2155     0.0000     0.2155     0.0000 </r>
        <r>     2.0349     0.0000     0.0000     0.0000     0.0000     0.0000     0.0000     0.0000     0.0000     0.0000 </r>
        <r>     2.1972     0.0000     0.0000     0.0000     0.0000     0.0000     0.0000     0.0000     0.0000     0.0000 </r>
        <r>     2.3594     0.0000     0.0000     0.0000     0.0000     0.0000     0.0000     0.0747     0.0000     0.0747 </r>
        <r>     2.5217     0.0000     0.0000     0.0000     0.0000     0.0000     0.0000     0.0120     0.0000     0.0120 </r>
        <r>     2.6839     0.0000     0.0000     0.0000     0.0000     0.0000     0.0000     0.0000     0.0000     0.0000 </r>
        <r>     2.8462     0.0000     0.0000     0.0000     0.0000     0.0000     0.0000     0.0000     0.0000     0.0000 </r>
        <r>     3.0084     0.0000     0.0000     0.0000     0.0000     0.0000     0.0000     0.0000     0.0000     0.0000 </r>
        <r>     3.1707     0.0000     0.0000     0.0000     0.0000     0.0000     0.0000     0.0000     0.0000     0.0000 </r>
        <r>     3.3330     0.0000     0.0007     0.0007     0.0007     0.0000     0.0000     0.0000     0.0000     0.0000 </r>
        <r>     3.4952     0.0000     0.1745     0.1742     0.1736     0.0034     0.0034     0.0000     0.0034     0.0000 </r>
        <r>     3.6575     0.0046     0.0051     0.0050     0.0050     0.1094     0.1094     0.0000     0.1094     0.0000 </r>
        <r>     3.8197     0.1365     0.0000     0.0000     0.0000     0.0004     0.0004     0.0000     0.0004     0.0000 </r>
        <r>     3.9820     0.0004     0.0000     0.0000     0.0000     0.0000     0.0000     0.0000     0.0000     0.0000 </r>
        <r>     4.1442     0.0000     0.0014     0.0028     0.0051     0.0000     0.0000     0.0000     0.0000     0.0000 </r>
        <r>     4.3065     0.0000     0.0273     0.0550     0.1027     0.0000     0.0000     0.0000     0.0000     0.0000 </r>
        <r>     4.4687     0.0000     0.0001     0.0001     0.0002     0.0000     0.0000     0.0000     0.0000     0.0000 </r>
        <r>     4.6310     0.0000     0.0000     0.0000     0.0000     0.0000     0.0000     0.0000     0.0000     0.0000 </r>
        <r>     4.7932     0.0000     0.0000     0.0000     0.0000     0.0000     0.0000     0.0000     0.0000     0.0000 </r>
        <r>     4.9555     0.0000     0.0000     0.0000     0.0000     0.0000     0.0000     0.0000     0.0000     0.0000 </r>
        <r>     5.1178     0.0000     0.0000     0.0000     0.0000     0.0000     0.0000     0.0000     0.0000     0.0000 </r>
        <r>     5.2800     0.0000     0.0000     0.0000     0.0000     0.0000     0.0000     0.0000     0.0000     0.0000 </r>
        <r>     5.4423     0.0000     0.0000     0.0000     0.0000     0.0000     0.0000     0.0000     0.0000     0.0000 </r>
        <r>     5.6045     0.0000     0.0000     0.0000     0.0000     0.0000     0.0000     0.0000     0.0000     0.0000 </r>
        <r>     5.7668     0.0000     0.0000     0.0000     0.0000     0.0000     0.0000     0.0000     0.0000     0.0000 </r>
        <r>     5.9290     0.0000     0.0000     0.0000     0.0000     0.0000     0.0000     0.0000     0.0000     0.0000 </r>
        <r>     6.0913     0.0000     0.0000     0.0000     0.0000     0.0000     0.0000     0.0000     0.0000     0.0000 </r>
        <r>     6.2535     0.0000     0.0000     0.0000     0.0000     0.0000     0.0000     0.0000     0.0000     0.0000 </r>
        <r>     6.4158     0.0000     0.0000     0.0000     0.0000     0.0000     0.0000     0.0000     0.0000     0.0000 </r>
       </set>
      </set>
     </set>
    </array>
   </partial>
  </dos>
  <projected>
   <eigenvalues>
    <array>
     <dimension dim="1">band</dimension>
     <dimension dim="2">kpoint</dimension>
     <dimension dim="3">spin</dimension>
     <field>eigene</field>
     <field>occ</field>
     <set>
      <set comment="spin 1">
       <set comment="kpoint 1">
        <r>  -40.0480    1.0000 </r>
        <r>  -40.0478    1.0000 </r>
        <r>  -40.0475    1.0000 </r>
        <r>   -5.6766    1.0000 </r>
        <r>   -5.6762    1.0000 </r>
        <r>   -4.6444    0.0000 </r>
        <r>   -4.8640    0.6702 </r>
        <r>   -4.8638    0.6682 </r>
        <r>   -4.8631    0.6615 </r>
        <r>   -1.4275    0.0000 </r>
        <r>   -1.4275    0.0000 </r>
        <r>   -1.4267    0.0000 </r>
        <r>   -0.3008    0.0000 </r>
        <r>    0.6069    0.0000 </r>
        <r>    0.6069    0.0000 </r>
        <r>    1.4310    0.0000 </r>
        <r>    1.4310    0.0000 </r>
        <r>    1.4312    0.0000 </r>
        <r>    1.6978    0.0000 </r>
        <r>    1.7099    0.0000 </r>
        <r>    1.7100    0.0000 </r>
        <r>    1.7100    0.0000 </r>
        <r>    2.2612    0.0000 </r>
        <r>    2.2612    0.0000 </r>
        <r>    2.2612    0.0000 </r>
        <r>    2.3299    0.0000 </r>
        <r>    2.3299    0.0000 </r>
        <r>    3.4139    0.0000 </r>
        <r>    3.4144    0.0000 </r>
        <r>    3.4144    0.0000 </r>
        <r>    3.4395    0.0000 </r>
        <r>    3.6112    0.0000 </r>
        <r>    3.6112    0.0000 </r>
        <r>    3.6112    0.0000 </r>
        <r>    3.7404    0.0000 </r>
        <r>    4.1341    0.0000 </r>
       </set>
      </set>
      <set comment="spin 2">
       <set comment="kpoint 1">
        <r>  -38.4237    1.0000 </r>
        <r>  -38.4237    1.0000 </r>
        <r>  -38.4235    1.0000 </r>
        <r>   -4.0290    0.0000 </r>
        <r>   -4.0094    0.0000 </r>
        <r>   -4.0094    0.0000 </r>
        <r>   -4.0093    0.0000 </r>
        <r>   -3.2864    0.0000 </r>
        <r>   -3.2863    0.0000 </r>
        <r>   -1.0725    0.0000 </r>
        <r>   -1.0725    0.0000 </r>
        <r>   -1.0709    0.0000 </r>
        <r>   -0.2933    0.0000 </r>
        <r>    0.6632    0.0000 </r>
        <r>    0.6632    0.0000 </r>
        <r>    1.4350    0.0000 </r>
        <r>    1.4350    0.0000 </r>
        <r>    1.4354    0.0000 </r>
        <r>    1.7027    0.0000 </r>
        <r>    1.7378    0.0000 </r>
        <r>    1.7378    0.0000 </r>
        <r>    1.7378    0.0000 </r>
        <r>    2.2286    0.0000 </r>
        <r>    2.2286    0.0000 </r>
        <r>    2.2286    0.0000 </r>
        <r>    2.3210    0.0000 </r>
        <r>    2.3210    0.0000 </r>
        <r>    3.3894    0.0000 </r>
        <r>    3.4273    0.0000 </r>
        <r>    3.4277    0.0000 </r>
        <r>    3.4277    0.0000 </r>
        <r>    3.5615    0.0000 </r>
        <r>    3.5615    0.0000 </r>
        <r>    3.5615    0.0000 </r>
        <r>    3.7227    0.0000 </r>
        <r>    4.2032    0.0000 </r>
       </set>
      </set>
     </set>
    </array>
   </eigenvalues>
   <array>
    <dimension dim="1">ion</dimension>
    <dimension dim="2">band</dimension>
    <dimension dim="3">kpoint</dimension>
    <dimension dim="4">spin</dimension>
    <field>    s</field>
    <field>   py</field>
    <field>   pz</field>
    <field>   px</field>
    <field>  dxy</field>
    <field>  dyz</field>
    <field>  dz2</field>
    <field>  dxz</field>
    <field>x2-y2</field>
    <set>
     <set comment="spin1">
      <set comment="kpoint 1">
       <set comment="band 1">
        <r>  0.0000  0.0655  0.9253  0.0002  0.0000  0.0000  0.0000  0.0000  0.0000 </r>
       </set>
       <set comment="band 2">
        <r>  0.0000  0.9207  0.0646  0.0057  0.0000  0.0000  0.0000  0.0000  0.0000 </r>
       </set>
       <set comment="band 3">
        <r>  0.0000  0.0048  0.0012  0.9851  0.0000  0.0000  0.0000  0.0000  0.0000 </r>
       </set>
       <set comment="band 4">
        <r>  0.0000  0.0000  0.0000  0.0000  0.0000  0.0000  0.1371  0.0000  0.7156 </r>
       </set>
       <set comment="band 5">
        <r>  0.0000  0.0000  0.0000  0.0000  0.0000  0.0000  0.7156  0.0000  0.1371 </r>
       </set>
       <set comment="band 6">
        <r>  0.2374  0.0000  0.0000  0.0000  0.0000  0.0000  0.0000  0.0000  0.0000 </r>
       </set>
       <set comment="band 7">
        <r>  0.0000  0.0000  0.0000  0.0000  0.0000  0.8461  0.0000  0.0000  0.0000 </r>
       </set>
       <set comment="band 8">
        <r>  0.0000  0.0000  0.0000  0.0000  0.0000  0.0000  0.0000  0.8461  0.0000 </r>
       </set>
       <set comment="band 9">
        <r>  0.0000  0.0000  0.0000  0.0000  0.8460  0.0000  0.0000  0.0000  0.0000 </r>
       </set>
       <set comment="band 10">
        <r>  0.0000  0.0039  0.0001  0.0906  0.0000  0.0000  0.0000  0.0000  0.0000 </r>
       </set>
       <set comment="band 11">
        <r>  0.0000  0.0291  0.0649  0.0006  0.0000  0.0000  0.0000  0.0000  0.0000 </r>
       </set>
       <set comment="band 12">
        <r>  0.0000  0.0611  0.0293  0.0034  0.0000  0.0000  0.0000  0.0000  0.0000 </r>
       </set>
       <set comment="band 13">
        <r>  0.0318  0.0000  0.0000  0.0000  0.0000  0.0000  0.0000  0.0000  0.0000 </r>
       </set>
       <set comment="band 14">
        <r>  0.0000  0.0000  0.0000  0.0000  0.0000  0.0000  0.0073  0.0000  0.0112 </r>
       </set>
       <set comment="band 15">
        <r>  0.0000  0.0000  0.0000  0.0000  0.0000  0.0000  0.0112  0.0000  0.0073 </r>
       </set>
       <set comment="band 16">
        <r>  0.0000  0.0011  0.0000  0.0252  0.0000  0.0000  0.0000  0.0000  0.0000 </r>
       </set>
       <set comment="band 17">
        <r>  0.0000  0.0081  0.0181  0.0002  0.0000  0.0000  0.0000  0.0000  0.0000 </r>
       </set>
       <set comment="band 18">
        <r>  0.0000  0.0170  0.0081  0.0009  0.0000  0.0000  0.0000  0.0000  0.0000 </r>
       </set>
       <set comment="band 19">
        <r>  0.0307  0.0000  0.0000  0.0000  0.0000  0.0000  0.0000  0.0000  0.0000 </r>
       </set>
       <set comment="band 20">
        <r>  0.0000  0.0000  0.0000  0.0000  0.0000  0.0356  0.0000  0.0000  0.0000 </r>
       </set>
       <set comment="band 21">
        <r>  0.0000  0.0000  0.0000  0.0000  0.0000  0.0000  0.0000  0.0356  0.0000 </r>
       </set>
       <set comment="band 22">
        <r>  0.0000  0.0000  0.0000  0.0000  0.0356  0.0000  0.0000  0.0000  0.0000 </r>
       </set>
       <set comment="band 23">
        <r>  0.0000  0.0000  0.0000  0.0000  0.0000  0.0000  0.0000  0.0000  0.0000 </r>
       </set>
       <set comment="band 24">
        <r>  0.0000  0.0000  0.0000  0.0000  0.0000  0.0000  0.0000  0.0000  0.0000 </r>
       </set>
       <set comment="band 25">
        <r>  0.0000  0.0000  0.0000  0.0000  0.0000  0.0000  0.0000  0.0000  0.0000 </r>
       </set>
       <set comment="band 26">
        <r>  0.0000  0.0000  0.0000  0.0000  0.0000  0.0000  0.0057  0.0000  0.0042 </r>
       </set>
       <set comment="band 27">
        <r>  0.0000  0.0000  0.0000  0.0000  0.0000  0.0000  0.0042  0.0000  0.0057 </r>
       </set>
       <set comment="band 28">
        <r>  0.0000  0.0241  0.0116  0.0013  0.0000  0.0000  0.0000  0.0000  0.0000 </r>
       </set>
       <set comment="band 29">
        <r>  0.0000  0.0015  0.0001  0.0356  0.0000  0.0000  0.0000  0.0000  0.0000 </r>
       </set>
       <set comment="band 30">
        <r>  0.0000  0.0115  0.0255  0.0002  0.0000  0.0000  0.0000  0.0000  0.0000 </r>
       </set>
       <set comment="band 31">
        <r>  0.0000  0.0000  0.0000  0.0000  0.0000  0.0000  0.0000  0.0000  0.0000 </r>
       </set>
       <set comment="band 32">
        <r>  0.0000  0.0000  0.0000  0.0000  0.0000  0.0139  0.0000  0.0000  0.0000 </r>
       </set>
       <set comment="band 33">
        <r>  0.0000  0.0000  0.0000  0.0000  0.0000  0.0000  0.0000  0.0139  0.0000 </r>
       </set>
       <set comment="band 34">
        <r>  0.0000  0.0000  0.0000  0.0000  0.0139  0.0000  0.0000  0.0000  0.0000 </r>
       </set>
       <set comment="band 35">
        <r>  0.0254  0.0000  0.0000  0.0000  0.0000  0.0000  0.0000  0.0000  0.0000 </r>
       </set>
       <set comment="band 36">
        <r>  0.0000  0.0178  0.0086  0.0010  0.0000  0.0000  0.0000  0.0000  0.0000 </r>
       </set>
      </set>
     </set>
     <set comment="spin2">
      <set comment="kpoint 1">
       <set comment="band 1">
        <r>  0.0000  0.3595  0.5839  0.0475  0.0000  0.0000  0.0000  0.0000  0.0000 </r>
       </set>
       <set comment="band 2">
        <r>  0.0000  0.4934  0.1460  0.3515  0.0000  0.0000  0.0000  0.0000  0.0000 </r>
       </set>
       <set comment="band 3">
        <r>  0.0000  0.1379  0.2610  0.5918  0.0000  0.0000  0.0000  0.0000  0.0000 </r>
       </set>
       <set comment="band 4">
        <r>  0.2104  0.0000  0.0000  0.0000  0.0000  0.0000  0.0000  0.0000  0.0000 </r>
       </set>
       <set comment="band 5">
        <r>  0.0000  0.0000  0.0000  0.0000  0.0000  0.8189  0.0000  0.0000  0.0000 </r>
       </set>
       <set comment="band 6">
        <r>  0.0000  0.0000  0.0000  0.0000  0.0000  0.0000  0.0000  0.8189  0.0000 </r>
       </set>
       <set comment="band 7">
        <r>  0.0000  0.0000  0.0000  0.0000  0.8189  0.0000  0.0000  0.0000  0.0000 </r>
       </set>
       <set comment="band 8">
        <r>  0.0000  0.0000  0.0000  0.0000  0.0000  0.0000  0.0027  0.0000  0.7908 </r>
       </set>
       <set comment="band 9">
        <r>  0.0000  0.0000  0.0000  0.0000  0.0000  0.0000  0.7908  0.0000  0.0027 </r>
       </set>
       <set comment="band 10">
        <r>  0.0000  0.0618  0.0076  0.0041  0.0000  0.0000  0.0000  0.0000  0.0000 </r>
       </set>
       <set comment="band 11">
        <r>  0.0000  0.0009  0.0441  0.0286  0.0000  0.0000  0.0000  0.0000  0.0000 </r>
       </set>
       <set comment="band 12">
        <r>  0.0000  0.0107  0.0215  0.0401  0.0000  0.0000  0.0000  0.0000  0.0000 </r>
       </set>
       <set comment="band 13">
        <r>  0.0318  0.0000  0.0000  0.0000  0.0000  0.0000  0.0000  0.0000  0.0000 </r>
       </set>
       <set comment="band 14">
        <r>  0.0000  0.0000  0.0000  0.0000  0.0000  0.0000  0.0001  0.0000  0.0342 </r>
       </set>
       <set comment="band 15">
        <r>  0.0000  0.0000  0.0000  0.0000  0.0000  0.0000  0.0342  0.0000  0.0001 </r>
       </set>
       <set comment="band 16">
        <r>  0.0000  0.0216  0.0027  0.0014  0.0000  0.0000  0.0000  0.0000  0.0000 </r>
       </set>
       <set comment="band 17">
        <r>  0.0000  0.0003  0.0154  0.0100  0.0000  0.0000  0.0000  0.0000  0.0000 </r>
       </set>
       <set comment="band 18">
        <r>  0.0000  0.0037  0.0075  0.0141  0.0000  0.0000  0.0000  0.0000  0.0000 </r>
       </set>
       <set comment="band 19">
        <r>  0.0314  0.0000  0.0000  0.0000  0.0000  0.0000  0.0000  0.0000  0.0000 </r>
       </set>
       <set comment="band 20">
        <r>  0.0000  0.0000  0.0000  0.0000  0.0000  0.0448  0.0000  0.0000  0.0000 </r>
       </set>
       <set comment="band 21">
        <r>  0.0000  0.0000  0.0000  0.0000  0.0000  0.0000  0.0000  0.0448  0.0000 </r>
       </set>
       <set comment="band 22">
        <r>  0.0000  0.0000  0.0000  0.0000  0.0448  0.0000  0.0000  0.0000  0.0000 </r>
       </set>
       <set comment="band 23">
        <r>  0.0000  0.0000  0.0000  0.0000  0.0000  0.0000  0.0000  0.0000  0.0000 </r>
       </set>
       <set comment="band 24">
        <r>  0.0000  0.0000  0.0000  0.0000  0.0000  0.0000  0.0000  0.0000  0.0000 </r>
       </set>
       <set comment="band 25">
        <r>  0.0000  0.0000  0.0000  0.0000  0.0000  0.0000  0.0000  0.0000  0.0000 </r>
       </set>
       <set comment="band 26">
        <r>  0.0000  0.0000  0.0000  0.0000  0.0000  0.0000  0.0000  0.0000  0.0140 </r>
       </set>
       <set comment="band 27">
        <r>  0.0000  0.0000  0.0000  0.0000  0.0000  0.0000  0.0140  0.0000  0.0000 </r>
       </set>
       <set comment="band 28">
        <r>  0.0000  0.0000  0.0000  0.0000  0.0000  0.0000  0.0000  0.0000  0.0000 </r>
       </set>
       <set comment="band 29">
        <r>  0.0000  0.0043  0.0086  0.0161  0.0000  0.0000  0.0000  0.0000  0.0000 </r>
       </set>
       <set comment="band 30">
        <r>  0.0000  0.0246  0.0032  0.0016  0.0000  0.0000  0.0000  0.0000  0.0000 </r>
       </set>
       <set comment="band 31">
        <r>  0.0000  0.0004  0.0174  0.0115  0.0000  0.0000  0.0000  0.0000  0.0000 </r>
       </set>
       <set comment="band 32">
        <r>  0.0000  0.0000  0.0000  0.0000  0.0000  0.0184  0.0000  0.0000  0.0000 </r>
       </set>
       <set comment="band 33">
        <r>  0.0000  0.0000  0.0000  0.0000  0.0000  0.0000  0.0000  0.0184  0.0000 </r>
       </set>
       <set comment="band 34">
        <r>  0.0000  0.0000  0.0000  0.0000  0.0184  0.0000  0.0000  0.0000  0.0000 </r>
       </set>
       <set comment="band 35">
        <r>  0.0230  0.0000  0.0000  0.0000  0.0000  0.0000  0.0000  0.0000  0.0000 </r>
       </set>
       <set comment="band 36">
        <r>  0.0000  0.0047  0.0094  0.0175  0.0000  0.0000  0.0000  0.0000  0.0000 </r>
       </set>
      </set>
     </set>
    </set>
   </array>
  </projected>
 </calculation>
 <structure name="finalpos" >
  <crystal>
   <varray name="basis" >
    <v>      10.00000000       0.00000000       0.00000000 </v>
    <v>       0.00000000      10.00000000       0.00000000 </v>
    <v>       0.00000000       0.00000000      10.00000000 </v>
   </varray>
   <i name="volume">   1000.00000000 </i>
   <varray name="rec_basis" >
    <v>       0.10000000       0.00000000       0.00000000 </v>
    <v>       0.00000000       0.10000000       0.00000000 </v>
    <v>       0.00000000       0.00000000       0.10000000 </v>
   </varray>
  </crystal>
  <varray name="positions" >
   <v>       0.50000000       0.50000000       0.50000000 </v>
  </varray>
 </structure>
</modeling>
