       N       E                     dE             d eps       ncg     rms          ort
DAV:   1     0.166035939433E+03    0.16604E+03   -0.64153E+03    36   0.345E+02
DAV:   2     0.276448680229E+02   -0.13839E+03   -0.13839E+03    36   0.124E+02
DAV:   3     0.192858609871E+01   -0.25716E+02   -0.25704E+02    36   0.637E+01
DAV:   4     0.475383980570E-01   -0.18810E+01   -0.18579E+01    36   0.176E+01
DAV:   5    -0.265765379459E+00   -0.31330E+00   -0.31038E+00    36   0.475E+00
SDA:   6     0.339895924595E+01    0.36647E+01   -0.34966E+02    36   0.874E+02 0.000E+00
DMP:   7     0.353219378776E+02    0.31923E+02   -0.10617E+03    36   0.303E+03-0.992E+02
DMP:   8     0.778222997960E+02    0.42500E+02   -0.52043E+03    36   0.152E+04-0.570E+03
DMP:   9     0.168994525443E+03    0.91172E+02   -0.21197E+03    36   0.819E+03-0.756E+03
DMP:  10     0.308924903020E+02   -0.13810E+03   -0.47988E+02    36   0.105E+03 0.379E+02
DMP:  11     0.378158381282E+02    0.69233E+01   -0.63781E+03    36   0.184E+04-0.641E+03
DMP:  12     0.559625775041E+02    0.18147E+02   -0.23689E+03    36   0.755E+03-0.427E+03
DMP:  13     0.346378629094E+02   -0.21325E+02   -0.69256E+02    36   0.262E+03-0.234E+03
DMP:  14     0.561144208578E+01   -0.29026E+02   -0.14955E+02    36   0.470E+02-0.251E+02
DMP:  15     0.567006234516E+01    0.58620E-01   -0.16790E+02    36   0.536E+02-0.306E+02
DMP:  16     0.452792881399E+01   -0.11421E+01   -0.12770E+02    36   0.403E+02-0.219E+02
DMP:  17     0.557737614184E+01    0.10494E+01   -0.13727E+02    36   0.432E+02-0.232E+02
DMP:  18     0.540714605933E+01   -0.17023E+00   -0.10743E+02    36   0.398E+02-0.340E+02
DMP:  19     0.311403280112E+01   -0.22931E+01   -0.53737E+01    36   0.199E+02-0.170E+02
DMP:  20     0.655762162757E+00   -0.24583E+01   -0.59629E+01    36   0.347E+02-0.517E+02
DMP:  21     0.972220800315E+00    0.31646E+00   -0.11763E+01    36   0.412E+01-0.309E+01
DMP:  22     0.290199687609E+01    0.19298E+01   -0.77515E+01    36   0.220E+02-0.696E+01
DMP:  23     0.472771118717E+01    0.18257E+01   -0.95014E+01    36   0.324E+02-0.227E+02
DMP:  24     0.365698739756E+01   -0.10707E+01   -0.26955E+02    36   0.947E+02-0.716E+02
DMP:  25     0.298269818679E+01   -0.67429E+00   -0.49765E+01    36   0.179E+02-0.143E+02
DMP:  26     0.270188447150E+01   -0.28081E+00   -0.61229E+01    36   0.205E+02-0.137E+02
DMP:  27     0.345996390200E+01    0.75808E+00   -0.63325E+01    36   0.217E+02-0.153E+02
DMP:  28     0.303579049139E+01   -0.42417E+00   -0.66937E+01    36   0.232E+02-0.170E+02
DMP:  29     0.317223373563E+01    0.13644E+00   -0.59360E+01    36   0.207E+02-0.154E+02
DMP:  30     0.280663055103E+01   -0.36560E+00   -0.62065E+01    36   0.212E+02-0.148E+02
DMP:  31     0.294380712565E+01    0.13718E+00   -0.10839E+02    36   0.368E+02-0.253E+02
DMP:  32     0.253501867295E+01   -0.40879E+00   -0.65525E+01    36   0.224E+02-0.158E+02
DMP:  33    -0.421058071224E+00   -0.29561E+01    0.42736E+00    36   0.543E+01-0.170E+02
DMP:  34    -0.345285697897E+00    0.75772E-01   -0.46734E+01    36   0.124E+02-0.197E+01
DMP:  35    -0.177119696099E+00    0.16817E+00   -0.93742E+00    36   0.318E+01-0.220E+01
DMP:  36    -0.760917591042E-01    0.10103E+00   -0.91778E+01    36   0.309E+02-0.208E+02
DMP:  37    -0.144844209585E+00   -0.68752E-01   -0.10129E+01    36   0.348E+01-0.249E+01
DMP:  38    -0.594365851063E+00   -0.44952E+00   -0.12347E+00    36   0.196E+01-0.431E+01
DMP:  39    -0.647178358420E+00   -0.52813E-01   -0.79258E-02    36   0.142E-01 0.146E-01
DMP:  40    -0.640240324039E+00    0.69380E-02   -0.42650E-01    36   0.123E+00-0.431E-01
DMP:  41    -0.415483647554E+00    0.22476E+00   -0.49727E+01    36   0.134E+02-0.242E+01
DMP:  42    -0.277101912754E+00    0.13838E+00   -0.76586E+00    36   0.260E+01-0.179E+01
DMP:  43    -0.631111930887E+00   -0.35401E+00    0.43063E-01    36   0.462E+00-0.149E+01
DMP:  44    -0.506539978838E+00    0.12457E+00   -0.26126E+01    36   0.676E+01-0.603E+00
DMP:  45    -0.446075437271E+00    0.60465E-01   -0.39944E+00    36   0.144E+01-0.115E+01
DMP:  46    -0.649484880385E+00   -0.20341E+00    0.47249E-02    36   0.923E-02-0.551E-01
DMP:  47     0.205488784445E+00    0.85497E+00   -0.21442E+02    36   0.562E+02-0.688E+01
DMP:  48     0.426505756268E+00    0.22102E+00   -0.19608E+01    36   0.714E+01-0.586E+01
DMP:  49    -0.634495453036E+00   -0.10610E+01   -0.77817E-01    36   0.686E-01 0.330E+00
DMP:  50     0.538251317076E+01    0.60170E+01   -0.14217E+02    36   0.377E+02-0.560E+01
DMP:  51     0.216211568619E+02    0.16239E+02   -0.36682E+02    36   0.115E+03-0.619E+02
DMP:  52     0.128476664483E+02   -0.87735E+01   -0.26208E+02    36   0.983E+02-0.858E+02
DMP:  53     0.638717984935E+00   -0.12209E+02   -0.65180E+00    36   0.174E+01-0.278E+00
DMP:  54     0.928425215530E+01    0.86455E+01   -0.17336E+02    36   0.504E+02-0.185E+02
DMP:  55     0.290312667958E+01   -0.63811E+01   -0.36167E+01    36   0.188E+02-0.255E+02
DMP:  56     0.498502902997E+00   -0.24046E+01   -0.14878E+01    36   0.262E+01 0.288E+01
DMP:  57     0.495376040820E+01    0.44553E+01   -0.10857E+02    36   0.319E+02-0.124E+02
DMP:  58     0.412560986676E+01   -0.82815E+00   -0.61600E+01    36   0.242E+02-0.229E+02
DMP:  59     0.209239144770E+01   -0.20332E+01   -0.49194E+01    36   0.169E+02-0.120E+02
DMP:  60     0.328015897937E+01    0.11878E+01   -0.52901E+01    36   0.176E+02-0.114E+02
DMP:  61     0.299639131077E+01   -0.28377E+00   -0.10059E+02    36   0.351E+02-0.260E+02
DMP:  62     0.344552941230E+01    0.44914E+00   -0.61168E+01    36   0.197E+02-0.114E+02
DMP:  63     0.260780896126E+01   -0.83772E+00   -0.58861E+01    36   0.202E+02-0.145E+02
DMP:  64     0.274341517891E+01    0.13561E+00   -0.54188E+01    36   0.187E+02-0.135E+02
DMP:  65     0.267400221592E+01   -0.69413E-01   -0.58723E+01    36   0.201E+02-0.143E+02
DMP:  66    -0.597276542149E+00   -0.32713E+01   -0.34087E+00    36   0.342E+00 0.134E+01
DMP:  67     0.694409471213E+01    0.75414E+01   -0.17733E+02    36   0.486E+02-0.113E+02
DMP:  68     0.120505859199E+02    0.51065E+01   -0.23890E+03    36   0.801E+03-0.533E+03
DMP:  69     0.452337645748E+01   -0.75272E+01   -0.74756E+01    36   0.308E+02-0.316E+02
DMP:  70     0.299647519266E+00   -0.42237E+01   -0.87605E+00    36   0.121E+01 0.256E+01
DMP:  71     0.608775213981E+01    0.57881E+01   -0.13463E+02    36   0.385E+02-0.126E+02
DMP:  72     0.407529052336E+01   -0.20125E+01   -0.65286E+01    36   0.297E+02-0.349E+02
DMP:  73     0.566066857872E+00   -0.35092E+01   -0.12790E+01    36   0.260E+01 0.155E+01
DMP:  74     0.208299133073E+02    0.20264E+02   -0.11731E+03    36   0.329E+03-0.947E+02
DMP:  75     0.183088972907E+02   -0.25210E+01   -0.41927E+02    36   0.150E+03-0.117E+03
DMP:  76     0.121097986477E+01   -0.17098E+02    0.21378E+00    36   0.283E+01-0.880E+01
DMP:  77     0.112152128168E+02    0.10004E+02   -0.20221E+02    36   0.577E+02-0.188E+02
DMP:  78     0.334050946110E+01   -0.78747E+01   -0.32476E+01    36   0.186E+02-0.275E+02
DMP:  79     0.108547192695E+01   -0.22550E+01   -0.18794E+01    36   0.354E+01 0.304E+01
DMP:  80     0.492325811005E+01    0.38378E+01   -0.12168E+02    36   0.371E+02-0.174E+02
DMP:  81     0.406056234330E+01   -0.86270E+00   -0.58878E+01    36   0.264E+02-0.306E+02
DMP:  82     0.210853235772E+01   -0.19520E+01   -0.47376E+01    36   0.171E+02-0.137E+02
DMP:  83     0.264958087118E+01    0.54105E+00   -0.53978E+01    36   0.180E+02-0.117E+02
DMP:  84     0.287250718919E+01    0.22293E+00   -0.63097E+01    36   0.215E+02-0.149E+02
DMP:  85     0.346111655962E+01    0.58861E+00   -0.50799E+01    36   0.198E+02-0.185E+02
DMP:  86     0.269719588344E+01   -0.76392E+00   -0.58698E+01    36   0.202E+02-0.144E+02
DMP:  87     0.279021044409E+01    0.93015E-01   -0.55494E+01    36   0.192E+02-0.140E+02
DMP:  88     0.269724865416E+01   -0.92962E-01   -0.60458E+01    36   0.208E+02-0.148E+02
DMP:  89     0.277003564418E+01    0.72787E-01   -0.54696E+01    36   0.193E+02-0.146E+02
DMP:  90     0.264474715882E+01   -0.12529E+00   -0.59330E+01    36   0.203E+02-0.144E+02
DMP:  91     0.338457104007E+01    0.73982E+00   -0.60354E+01    36   0.207E+02-0.146E+02
DMP:  92     0.291426197474E+01   -0.47031E+00   -0.67136E+01    36   0.232E+02-0.167E+02
DMP:  93     0.316040780273E+01    0.24615E+00   -0.54741E+01    36   0.191E+02-0.142E+02
DMP:  94     0.274271888021E+01   -0.41769E+00   -0.60220E+01    36   0.206E+02-0.144E+02
DMP:  95     0.323653230831E+01    0.49381E+00   -0.57049E+01    36   0.197E+02-0.143E+02
DMP:  96     0.284368569586E+01   -0.39285E+00   -0.91518E+01    36   0.317E+02-0.231E+02
DMP:  97     0.324176803234E+01    0.39808E+00   -0.55132E+01    36   0.201E+02-0.165E+02
DMP:  98     0.280153811168E+01   -0.44023E+00   -0.93512E+01    36   0.315E+02-0.212E+02
DMP:  99     0.268978852260E+01   -0.11175E+00   -0.20618E+02    36   0.679E+02-0.429E+02
DMP: 100     0.246510254801E+01   -0.22469E+00   -0.56600E+01    36   0.194E+02-0.137E+02
DMP: 101     0.342442249422E+01    0.95932E+00   -0.66103E+01    36   0.218E+02-0.139E+02
DMP: 102     0.299207374399E+01   -0.43235E+00   -0.63618E+01    36   0.220E+02-0.160E+02
DMP: 103     0.284170370274E+01   -0.15037E+00   -0.60165E+01    36   0.199E+02-0.128E+02
DMP: 104     0.265487441275E+01   -0.18683E+00   -0.59842E+01    36   0.204E+02-0.143E+02
DMP: 105     0.306433822011E+01    0.40946E+00   -0.56202E+01    36   0.216E+02-0.199E+02
DMP: 106     0.271964111399E+01   -0.34470E+00   -0.60841E+01    36   0.209E+02-0.149E+02
DMP: 107     0.277957334003E+01    0.59932E-01   -0.57624E+01    36   0.196E+02-0.137E+02
DMP: 108     0.264542650282E+01   -0.13415E+00   -0.59611E+01    36   0.204E+02-0.144E+02
DMP: 109     0.343837789336E+01    0.79295E+00   -0.63174E+01    36   0.211E+02-0.140E+02
DMP: 110     0.296817517793E+01   -0.47020E+00   -0.63315E+01    36   0.219E+02-0.158E+02
DMP: 111     0.288473750989E+01   -0.83438E-01   -0.62614E+01    36   0.203E+02-0.122E+02
DMP: 112     0.267829450479E+01   -0.20644E+00   -0.60189E+01    36   0.206E+02-0.145E+02
DMP: 113     0.316663585543E+01    0.48834E+00   -0.54542E+01    36   0.217E+02-0.210E+02
DMP: 114     0.277777614011E+01   -0.38886E+00   -0.61423E+01    36   0.211E+02-0.150E+02
DMP: 115     0.302602124750E+01    0.24825E+00   -0.64965E+01    36   0.214E+02-0.135E+02
DMP: 116     0.267802610546E+01   -0.34800E+00   -0.60152E+01    36   0.206E+02-0.146E+02
DMP: 117     0.338933384943E+01    0.71131E+00   -0.60560E+01    36   0.208E+02-0.148E+02
DMP: 118     0.293617938257E+01   -0.45315E+00   -0.62926E+01    36   0.217E+02-0.156E+02
DMP: 119     0.318809831002E+01    0.25192E+00   -0.55476E+01    36   0.194E+02-0.144E+02
DMP: 120     0.277014207207E+01   -0.41796E+00   -0.60805E+01    36   0.208E+02-0.146E+02
DMP: 121     0.324618871118E+01    0.47605E+00   -0.57354E+01    36   0.199E+02-0.145E+02
DMP: 122     0.345768542764E+01    0.21150E+00   -0.40344E+02    36   0.136E+03-0.930E+02
DMP: 123     0.382574093197E+01    0.36806E+00   -0.69866E+01    36   0.243E+02-0.178E+02
DMP: 124     0.292794062230E+01   -0.89780E+00   -0.66247E+01    36   0.235E+02-0.182E+02
DMP: 125     0.103021470477E+01   -0.18977E+01   -0.28261E+02    36   0.107E+03-0.951E+02
DMP: 126     0.549752933126E+00   -0.48046E+00   -0.25307E+01    36   0.814E+01-0.474E+01
DMP: 127     0.410503621491E+01    0.35553E+01   -0.13010E+02    36   0.385E+02-0.158E+02
DMP: 128     0.711675256782E+01    0.30117E+01   -0.14224E+03    36   0.464E+03-0.285E+03
DMP: 129     0.487127349637E+01   -0.22455E+01   -0.95252E+01    36   0.347E+02-0.285E+02
DMP: 130    -0.174950583231E+00   -0.50462E+01   -0.56467E+00    36   0.120E+01 0.550E+00
DMP: 131     0.434842448760E+01    0.45234E+01   -0.10967E+02    36   0.292E+02-0.465E+01
DMP: 132     0.450053136606E+01    0.15211E+00   -0.87438E+01    36   0.326E+02-0.280E+02
DMP: 133    -0.190455381888E+00   -0.46910E+01    0.12911E+01    36   0.610E+01-0.244E+02
DMP: 134     0.122057625513E+00    0.31251E+00   -0.54711E+01    36   0.106E+02 0.801E+01
DMP: 135     0.132514874855E+01    0.12031E+01   -0.19020E+01    36   0.630E+01-0.404E+01
DMP: 136     0.287984174147E+01    0.15547E+01   -0.13991E+02    36   0.438E+02-0.231E+02
DMP: 137     0.433130878333E+01    0.14515E+01   -0.72503E+01    36   0.269E+02-0.230E+02
DMP: 138     0.271462953068E+01   -0.16167E+01   -0.70370E+01    36   0.254E+02-0.206E+02
DMP: 139     0.234732396752E+01   -0.36731E+00   -0.47165E+01    36   0.164E+02-0.120E+02
DMP: 140     0.252695437651E+01    0.17963E+00   -0.58129E+01    36   0.194E+02-0.126E+02
DMP: 141     0.347333679141E+01    0.94638E+00   -0.53921E+01    36   0.213E+02-0.204E+02
DMP: 142     0.278648255184E+01   -0.68685E+00   -0.59305E+01    36   0.205E+02-0.149E+02
DMP: 143     0.317168406849E+01    0.38520E+00   -0.60956E+01    36   0.207E+02-0.143E+02
DMP: 144     0.278302984246E+01   -0.38865E+00   -0.72940E+01    36   0.249E+02-0.176E+02
DMP: 145     0.289406056551E+01    0.11103E+00   -0.65818E+01    36   0.233E+02-0.179E+02
DMP: 146     0.267309848586E+01   -0.22096E+00   -0.59001E+01    36   0.204E+02-0.147E+02
DMP: 147     0.268935584991E+01    0.16257E-01   -0.52971E+01    36   0.184E+02-0.136E+02
DMP: 148     0.260139585633E+01   -0.87960E-01   -0.58500E+01    36   0.200E+02-0.140E+02
DMP: 149     0.268506391375E+01    0.83668E-01   -0.75089E+01    36   0.258E+02-0.185E+02
DMP: 150     0.255619539040E+01   -0.12887E+00   -0.57625E+01    36   0.198E+02-0.141E+02
DMP: 151     0.133739334649E+01   -0.12188E+01   -0.20032E+02    36   0.750E+02-0.653E+02
DMP: 152     0.110808678239E+01   -0.22931E+00   -0.34436E+01    36   0.115E+02-0.761E+01
DMP: 153     0.172327078408E+01    0.61518E+00   -0.26717E+02    36   0.877E+02-0.547E+02
DMP: 154     0.171598384623E+01   -0.72869E-02   -0.43638E+01    36   0.152E+02-0.113E+02
DMP: 155    -0.431902048188E+00   -0.21479E+01   -0.14394E+01    36   0.156E+02-0.315E+02
DMP: 156    -0.621917953994E+00   -0.19002E+00   -0.50000E+00    36   0.145E+01-0.529E+00
DMP: 157     0.300614419872E+01    0.36281E+01   -0.23057E+02    36   0.612E+02-0.932E+01
DMP: 158     0.711208090527E+01    0.41059E+01   -0.12724E+03    36   0.423E+03-0.274E+03
DMP: 159     0.399467867316E+01   -0.31174E+01   -0.72666E+01    36   0.278E+02-0.251E+02
DMP: 160     0.211816099436E+01   -0.18765E+01   -0.46759E+01    36   0.173E+02-0.146E+02
DMP: 161    -0.449229686593E+00   -0.25674E+01    0.15356E+01    36   0.391E+01-0.203E+02
DMP: 162     0.360213398330E+01    0.40514E+01   -0.10905E+02    36   0.284E+02-0.290E+01
DMP: 163     0.516169000793E+01    0.15596E+01   -0.95365E+01    36   0.342E+02-0.271E+02
DMP: 164    -0.319218834512E+00   -0.54809E+01    0.17474E+01    36   0.686E+01-0.294E+02
DMP: 165     0.306948466454E+01    0.33887E+01   -0.11305E+02    36   0.298E+02-0.400E+01
DMP: 166     0.398934175651E+01    0.91986E+00   -0.80130E+01    36   0.292E+02-0.240E+02
DMP: 167     0.184832296736E+01   -0.21410E+01   -0.40605E+01    36   0.205E+02-0.270E+02
DMP: 168     0.142472988710E+01   -0.42359E+00   -0.55864E+01    36   0.170E+02-0.791E+01
DMP: 169     0.379587216663E+01    0.23711E+01   -0.74979E+01    36   0.241E+02-0.140E+02
DMP: 170     0.338370342712E+01   -0.41217E+00   -0.69806E+01    36   0.252E+02-0.202E+02
DMP: 171     0.257658475089E+01   -0.80712E+00   -0.53908E+01    36   0.194E+02-0.154E+02
DMP: 172     0.220842474384E+01   -0.36816E+00   -0.54017E+01    36   0.179E+02-0.115E+02
DMP: 173     0.317722646905E+01    0.96880E+00   -0.71882E+01    36   0.242E+02-0.163E+02
DMP: 174     0.275407712639E+01   -0.42315E+00   -0.62094E+01    36   0.220E+02-0.170E+02
DMP: 175     0.262865589257E+01   -0.12542E+00   -0.49343E+01    36   0.192E+02-0.180E+02
DMP: 176     0.222360286714E+01   -0.40505E+00   -0.59907E+01    36   0.202E+02-0.137E+02
DMP: 177     0.274967152374E+01    0.52607E+00   -0.73774E+01    36   0.246E+02-0.161E+02
DMP: 178     0.227799081852E+01   -0.47168E+00   -0.55894E+01    36   0.193E+02-0.140E+02
DMP: 179     0.307001837122E+01    0.79203E+00   -0.62401E+01    36   0.227E+02-0.185E+02
DMP: 180     0.384333977370E+01    0.77332E+00   -0.66033E+02    36   0.214E+03-0.129E+03
DMP: 181     0.489347892172E+01    0.10501E+01   -0.92721E+01    36   0.318E+02-0.226E+02
DMP: 182     0.297059896544E+01   -0.19229E+01   -0.63096E+01    36   0.236E+02-0.205E+02
DMP: 183     0.281252371018E+01   -0.15808E+00   -0.72535E+01    36   0.255E+02-0.193E+02
DMP: 184     0.245000845868E+01   -0.36252E+00   -0.56863E+01    36   0.187E+02-0.118E+02
DMP: 185    -0.506773520711E+00   -0.29568E+01    0.38910E+00    36   0.930E+00-0.498E+01
DMP: 186     0.525997726551E+01    0.57668E+01   -0.13350E+02    36   0.352E+02-0.482E+01
DMP: 187     0.198880755617E+02    0.14628E+02   -0.18905E+03    36   0.583E+03-0.288E+03
DMP: 188     0.115328148590E+02   -0.83553E+01   -0.23361E+02    36   0.872E+02-0.754E+02
DMP: 189     0.569651307886E+00   -0.10963E+02   -0.59787E+00    36   0.170E+01-0.546E+00
DMP: 190     0.878269665438E+01    0.82130E+01   -0.19535E+02    36   0.569E+02-0.212E+02
DMP: 191     0.394815718495E+01   -0.48345E+01   -0.45623E+01    36   0.219E+02-0.276E+02
DMP: 192     0.109430878281E+01   -0.28538E+01   -0.12527E+01    36   0.206E+01 0.280E+01
DMP: 193     0.534493784882E+01    0.42506E+01   -0.11661E+02    36   0.340E+02-0.126E+02
DMP: 194     0.417839766027E+01   -0.11665E+01   -0.75382E+01    36   0.260E+02-0.187E+02
DMP: 195     0.212688866230E+01   -0.20515E+01   -0.47091E+01    36   0.167E+02-0.128E+02
DMP: 196     0.306121649175E+01    0.93433E+00   -0.69294E+01    36   0.197E+02-0.627E+01
DMP: 197     0.293490870551E+01   -0.12631E+00   -0.64235E+01    36   0.219E+02-0.153E+02
DMP: 198     0.340141832955E+01    0.46651E+00   -0.60085E+01    36   0.200E+02-0.129E+02
DMP: 199     0.274320685419E+01   -0.65821E+00   -0.59806E+01    36   0.205E+02-0.145E+02
DMP: 200     0.288759000791E+01    0.14438E+00   -0.59407E+01    36   0.201E+02-0.137E+02
DMP: 201     0.268289257181E+01   -0.20470E+00   -0.91769E+01    36   0.311E+02-0.214E+02
DMP: 202     0.293570145980E+01    0.25281E+00   -0.52300E+01    36   0.206E+02-0.197E+02
DMP: 203     0.263871457611E+01   -0.29699E+00   -0.66852E+01    36   0.229E+02-0.162E+02
DMP: 204     0.282865691189E+01    0.18994E+00   -0.60268E+01    36   0.202E+02-0.135E+02
DMP: 205     0.263872739801E+01   -0.18993E+00   -0.59210E+01    36   0.203E+02-0.145E+02
DMP: 206     0.342982339711E+01    0.79110E+00   -0.61698E+01    36   0.206E+02-0.136E+02
DMP: 207     0.292495215518E+01   -0.50487E+00   -0.62436E+01    36   0.215E+02-0.155E+02
DMP: 208     0.291595723729E+01   -0.89949E-02   -0.65312E+01    36   0.206E+02-0.111E+02
DMP: 209     0.247350895030E+01   -0.44245E+00   -0.15684E+02    36   0.526E+02-0.351E+02
DMP: 210     0.300477967110E+01    0.53127E+00   -0.48874E+01    36   0.197E+02-0.195E+02
DMP: 211     0.276974565716E+01   -0.23503E+00   -0.61486E+01    36   0.209E+02-0.145E+02
DMP: 212     0.339666565358E+01    0.62692E+00   -0.62517E+01    36   0.211E+02-0.142E+02
DMP: 213     0.271247699110E+01   -0.68419E+00   -0.60276E+01    36   0.208E+02-0.149E+02
DMP: 214     0.271924730296E+01    0.67703E-02   -0.53964E+01    36   0.188E+02-0.139E+02
DMP: 215     0.264274891667E+01   -0.76498E-01   -0.61388E+01    36   0.210E+02-0.147E+02
DMP: 216     0.352910098843E+01    0.88635E+00   -0.53931E+01    36   0.200E+02-0.172E+02
DMP: 217     0.285128933532E+01   -0.67781E+00   -0.61154E+01    36   0.211E+02-0.152E+02
DMP: 218     0.278095530890E+01   -0.70334E-01   -0.55027E+01    36   0.192E+02-0.143E+02
DMP: 219     0.268048464478E+01   -0.10047E+00   -0.60357E+01    36   0.207E+02-0.146E+02
DMP: 220     0.279161320521E+01    0.11113E+00   -0.55459E+01    36   0.194E+02-0.145E+02
DMP: 221     0.267585878539E+01   -0.11575E+00   -0.59910E+01    36   0.206E+02-0.146E+02
DMP: 222     0.342226680358E+01    0.74641E+00   -0.60412E+01    36   0.207E+02-0.147E+02
DMP: 223     0.296596274565E+01   -0.45630E+00   -0.63585E+01    36   0.220E+02-0.159E+02
DMP: 224     0.311448694904E+01    0.14852E+00   -0.73196E+01    36   0.211E+02-0.727E+01
DMP: 225     0.266146838098E+01   -0.45302E+00   -0.68001E+01    36   0.232E+02-0.161E+02
DMP: 226     0.353026797021E+01    0.86880E+00   -0.57238E+01    36   0.199E+02-0.146E+02
DMP: 227     0.280643891191E+01   -0.72383E+00   -0.93875E+01    36   0.328E+02-0.243E+02
DMP: 228     0.272195200458E+01   -0.84487E-01   -0.54053E+01    36   0.189E+02-0.140E+02
DMP: 229     0.251634243341E-03   -0.27217E+01   -0.21725E+00    36   0.343E+00 0.524E+00
DMP: 230     0.124299985326E+02    0.12430E+02   -0.26774E+03    36   0.758E+03-0.232E+03
DMP: 231     0.114602476126E+02   -0.96975E+00   -0.23446E+02    36   0.852E+02-0.697E+02
DMP: 232     0.741494639296E+00   -0.10719E+02   -0.20550E+00    36   0.128E+01-0.201E+01
DMP: 233     0.234823900698E+02    0.22741E+02   -0.27783E+03    36   0.791E+03-0.253E+03
DMP: 234     0.135544561157E+02   -0.99279E+01   -0.26122E+02    36   0.105E+03-0.103E+03
DMP: 235     0.817316034321E+00   -0.12737E+02   -0.12419E+01    36   0.248E+01 0.163E+01
DMP: 236     0.230977254213E+01    0.14925E+01   -0.14810E+01    36   0.861E+01-0.128E+02
DMP: 237     0.171030225301E+01   -0.59947E+00   -0.25574E+02    36   0.684E+02-0.118E+02
DMP: 238     0.257586542546E+01    0.86556E+00   -0.37456E+01    36   0.149E+02-0.146E+02
DMP: 239     0.198741149276E+01   -0.58845E+00   -0.48066E+01    36   0.156E+02-0.928E+01
DMP: 240     0.315766307081E+01    0.11703E+01   -0.69494E+01    36   0.219E+02-0.118E+02
DMP: 241     0.282422130325E+01   -0.33344E+00   -0.58101E+01    36   0.207E+02-0.160E+02
DMP: 242     0.272084233435E+01   -0.10338E+00   -0.44054E+01    36   0.182E+02-0.189E+02
DMP: 243     0.245609458714E+01   -0.26475E+00   -0.56026E+01    36   0.188E+02-0.125E+02
DMP: 244     0.299734845057E+01    0.54125E+00   -0.64415E+01    36   0.211E+02-0.130E+02
DMP: 245     0.259871318579E+01   -0.39864E+00   -0.57119E+01    36   0.198E+02-0.144E+02
DMP: 246     0.328199640151E+01    0.68328E+00   -0.56811E+01    36   0.194E+02-0.136E+02
DMP: 247     0.280091229628E+01   -0.48108E+00   -0.59853E+01    36   0.205E+02-0.146E+02
DMP: 248     0.310516242437E+01    0.30425E+00   -0.70771E+01    36   0.206E+02-0.770E+01
DMP: 249     0.260569453083E+01   -0.49947E+00   -0.57970E+01    36   0.199E+02-0.142E+02
DMP: 250     0.345286793808E+01    0.84717E+00   -0.55320E+01    36   0.191E+02-0.137E+02
DMP: 251     0.276891425130E+01   -0.68395E+00   -0.59656E+01    36   0.205E+02-0.146E+02
DMP: 252     0.278951021246E+01    0.20596E-01   -0.54937E+01    36   0.191E+02-0.140E+02
DMP: 253     0.138090493694E+01   -0.14086E+01   -0.23066E+02    36   0.852E+02-0.722E+02
DMP: 254     0.142646669230E+01    0.45562E-01   -0.27246E+01    36   0.968E+01-0.750E+01
DMP: 255     0.250839503762E+01    0.10819E+01   -0.62687E+01    36   0.194E+02-0.981E+01
DMP: 256     0.403766255691E+01    0.15293E+01   -0.75465E+01    36   0.255E+02-0.173E+02
DMP: 257     0.303623052948E+01   -0.10014E+01   -0.60877E+01    36   0.219E+02-0.176E+02
DMP: 258     0.252182073740E+01   -0.51441E+00   -0.49971E+01    36   0.173E+02-0.125E+02
DMP: 259     0.311062084486E+00   -0.22108E+01   -0.80052E+01    36   0.377E+02-0.463E+02
DMP: 260     0.501933880651E+00    0.19087E+00   -0.10325E+01    36   0.355E+01-0.254E+01
DMP: 261     0.259392068984E+01    0.20920E+01   -0.70081E+01    36   0.198E+02-0.598E+01
DMP: 262     0.481556291919E+01    0.22216E+01   -0.88218E+01    36   0.301E+02-0.211E+02
DMP: 263     0.304425992736E+01   -0.17713E+01   -0.58109E+01    36   0.219E+02-0.192E+02
DMP: 264     0.221806082519E+01   -0.82620E+00   -0.41434E+01    36   0.149E+02-0.118E+02
DMP: 265    -0.287958757320E+00   -0.25060E+01   -0.33555E+00    36   0.740E+00 0.259E+00
DMP: 266     0.310184479005E+01    0.33898E+01   -0.87252E+01    36   0.224E+02-0.166E+01
DMP: 267     0.471067971170E+01    0.16088E+01   -0.96511E+01    36   0.339E+02-0.257E+02
DMP: 268     0.257417481616E+01   -0.21365E+01   -0.85349E+01    36   0.329E+02-0.302E+02
DMP: 269     0.260323771246E+01    0.29063E-01   -0.42847E+01    36   0.142E+02-0.917E+01
DMP: 270     0.177613756036E+00   -0.24256E+01   -0.24356E+01    36   0.309E+01 0.785E+01
DMP: 271     0.119832855812E+02    0.11806E+02   -0.24946E+03    36   0.679E+03-0.145E+03
DMP: 272     0.140451528509E+02    0.20619E+01   -0.32610E+02    36   0.112E+03-0.792E+02
DMP: 273     0.426862899680E+00   -0.13618E+02    0.17278E+00    36   0.188E+01-0.605E+01
DMP: 274     0.240950696361E+02    0.23668E+02   -0.35396E+03    36   0.993E+03-0.283E+03
DMP: 275     0.118204131334E+02   -0.12275E+02   -0.19776E+02    36   0.894E+02-0.105E+03
DMP: 276     0.127243236587E+01   -0.10548E+02   -0.28494E+01    36   0.531E+01 0.474E+01
DMP: 277     0.170572886429E+01    0.43330E+00   -0.19320E+01    36   0.262E+02-0.560E+02
DMP: 278     0.583542956009E+00   -0.11222E+01   -0.34544E+00    36   0.567E+00 0.776E+00
DMP: 279     0.554109011083E+00   -0.29434E-01   -0.50347E+00    36   0.152E+01-0.685E+00
DMP: 280     0.141294360622E+02    0.13575E+02   -0.73674E+02    36   0.197E+03-0.338E+02
DMP: 281     0.203976259762E+02    0.62682E+01   -0.49804E+02    36   0.166E+03-0.108E+03
DMP: 282     0.130637310605E+01   -0.19091E+02    0.43802E+00    36   0.345E+01-0.119E+02
DMP: 283     0.323936959059E+02    0.31087E+02   -0.53161E+02    36   0.144E+03-0.301E+02
DMP: 284     0.152379372645E+02   -0.17156E+02   -0.26514E+02    36   0.122E+03-0.145E+03
DMP: 285     0.168027766595E+01   -0.13558E+02   -0.28348E+01    36   0.426E+01 0.740E+01
DMP: 286     0.163012642707E+01   -0.50151E-01   -0.17753E+01    36   0.725E+01-0.736E+01
DMP: 287     0.986091258958E+00   -0.64404E+00   -0.13434E+01    36   0.180E+01 0.408E+01
DMP: 288     0.564195882011E+00   -0.42190E+00   -0.23485E+00    36   0.101E+01-0.111E+01
DMP: 289     0.708897146125E+01    0.65248E+01   -0.15605E+03    36   0.443E+03-0.138E+03
DMP: 290     0.117472389429E+02    0.46583E+01   -0.25802E+02    36   0.861E+02-0.565E+02
DMP: 291     0.395934434408E+01   -0.77879E+01   -0.46474E+01    36   0.251E+02-0.352E+02
DMP: 292     0.157016960817E+01   -0.23892E+01   -0.14157E+01    36   0.553E+01-0.522E+01
DMP: 293     0.211459300779E+01    0.54442E+00   -0.59669E+01    36   0.168E+02-0.488E+01
DMP: 294     0.447597085902E+01    0.23614E+01   -0.85737E+01    36   0.282E+02-0.177E+02
DMP: 295     0.306004780218E+01   -0.14159E+01   -0.59037E+01    36   0.220E+02-0.188E+02
DMP: 296     0.233804917711E+01   -0.72200E+00   -0.43830E+01    36   0.156E+02-0.122E+02
DMP: 297     0.320080112415E+00   -0.20180E+01   -0.87944E+01    36   0.389E+02-0.443E+02
DMP: 298     0.582935786467E+00    0.26286E+00   -0.11811E+01    36   0.395E+01-0.261E+01
DMP: 299     0.258522332585E+01    0.20023E+01   -0.68509E+01    36   0.196E+02-0.645E+01
DMP: 300     0.450664487178E+01    0.19214E+01   -0.77889E+01    36   0.285E+02-0.237E+02
   1 F= 0.45066449E+01 E0= 0.45273702E+01  d E =0.450664E+01  mag=    -1.9996
