<?xml version="1.0" encoding="ISO-8859-1"?>
<modeling>
 <generator>
  <i name="program" type="string">vasp </i>
  <i name="version" type="string">5.4.4.18Apr17-6-g9f103f2a35  </i>
  <i name="subversion" type="string">(build Nov 08 2019 15:19:53) gamma-only         parallel </i>
  <i name="platform" type="string">LinuxIFC </i>
  <i name="date" type="string">2020 11 30 </i>
  <i name="time" type="string">09:30:36 </i>
 </generator>
 <incar>
  <i type="string" name="PREC">accurate</i>
  <i type="string" name="ALGO"> D</i>
  <i type="int" name="ISPIN">     2</i>
  <i type="int" name="NELM">   300</i>
  <i type="int" name="IBRION">     2</i>
  <i name="EDIFF">      0.00005000</i>
  <i type="int" name="NSW">    99</i>
  <i type="int" name="ISIF">     2</i>
  <i name="ENCUT">    520.00000000</i>
  <v name="MAGMOM">      0.60000000</v>
  <i type="string" name="LREAL"> Auto</i>
  <i type="int" name="ISMEAR">     0</i>
  <i name="SIGMA">      0.05000000</i>
  <i type="logical" name="LWAVE"> F  </i>
  <i type="int" name="LORBIT">    11</i>
  <i type="logical" name="LASPH"> T  </i>
  <v type="int" name="KPOINT_BSE">    -1     0     0     0</v>
  <i type="int" name="NELM">   300</i>
  <i type="logical" name="LASPH"> T  </i>
 </incar>
 <structure name="primitive_cell" >
  <crystal>
   <varray name="basis" >
    <v>      10.00000000       0.00000000       0.00000000 </v>
    <v>       0.00000000      10.00000000       0.00000000 </v>
    <v>       0.00000000       0.00000000      10.00000000 </v>
   </varray>
   <i name="volume">   1000.00000000 </i>
   <varray name="rec_basis" >
    <v>       0.10000000       0.00000000       0.00000000 </v>
    <v>       0.00000000       0.10000000       0.00000000 </v>
    <v>       0.00000000       0.00000000       0.10000000 </v>
   </varray>
  </crystal>
  <varray name="positions" >
   <v>      -0.50000000      -0.50000000      -0.50000000 </v>
  </varray>
 </structure>
 <varray name="primitive_index" >
  <v type="int" >        1 </v>
 </varray>
 <kpoints>
  <generation param="Gamma">
   <v type="int" name="divisions">       1        1        1 </v>
   <v name="usershift">      0.00000000       0.00000000       0.00000000 </v>
   <v name="genvec1">      1.00000000       0.00000000       0.00000000 </v>
   <v name="genvec2">      0.00000000       1.00000000       0.00000000 </v>
   <v name="genvec3">      0.00000000       0.00000000       1.00000000 </v>
   <v name="shift">      0.00000000       0.00000000       0.00000000 </v>
  </generation>
  <varray name="kpointlist" >
   <v>       0.00000000       0.00000000       0.00000000 </v>
  </varray>
  <varray name="weights" >
   <v>       1.00000000 </v>
  </varray>
 </kpoints>
 <parameters>
  <separator name="general" >
   <i type="string" name="SYSTEM">unknown system</i>
   <i type="logical" name="LCOMPAT"> F  </i>
  </separator>
  <separator name="electronic" >
   <i type="string" name="PREC">accura</i>
   <i name="ENMAX">    520.00000000</i>
   <i name="ENAUG">    703.44300000</i>
   <i name="EDIFF">      0.00005000</i>
   <i type="int" name="IALGO">    53</i>
   <i type="int" name="IWAVPR">    11</i>
   <i type="int" name="NBANDS">    36</i>
   <i name="NELECT">     16.00000000</i>
   <i type="int" name="TURBO">     0</i>
   <i type="int" name="IRESTART">     0</i>
   <i type="int" name="NREBOOT">     0</i>
   <i type="int" name="NMIN">     0</i>
   <i name="EREF">      0.00000000</i>
   <separator name="electronic smearing" >
    <i type="int" name="ISMEAR">     0</i>
    <i name="SIGMA">      0.05000000</i>
    <i name="KSPACING">      0.50000000</i>
    <i type="logical" name="KGAMMA"> T  </i>
   </separator>
   <separator name="electronic projectors" >
    <i type="logical" name="LREAL"> T  </i>
    <v name="ROPT">     -0.00025000</v>
    <i type="int" name="LMAXPAW">  -100</i>
    <i type="int" name="LMAXMIX">     2</i>
    <i type="logical" name="NLSPLINE"> F  </i>
   </separator>
   <separator name="electronic startup" >
    <i type="int" name="ISTART">     0</i>
    <i type="int" name="ICHARG">     2</i>
    <i type="int" name="INIWAV">     1</i>
   </separator>
   <separator name="electronic spin" >
    <i type="int" name="ISPIN">     2</i>
    <i type="logical" name="LNONCOLLINEAR"> F  </i>
    <v name="MAGMOM">      0.60000000</v>
    <i name="NUPDOWN">     -1.00000000</i>
    <i type="logical" name="LSORBIT"> F  </i>
    <v name="SAXIS">      0.00000000      0.00000000      1.00000000</v>
    <i type="logical" name="LSPIRAL"> F  </i>
    <v name="QSPIRAL">      0.00000000      0.00000000      0.00000000</v>
    <i type="logical" name="LZEROZ"> F  </i>
   </separator>
   <separator name="electronic exchange-correlation" >
    <i type="logical" name="LASPH"> T  </i>
    <i type="logical" name="LMETAGGA"> F  </i>
   </separator>
   <separator name="electronic convergence" >
    <i type="int" name="NELM">   300</i>
    <i type="int" name="NELMDL">    -5</i>
    <i type="int" name="NELMIN">     2</i>
    <i name="ENINI">    520.00000000</i>
    <separator name="electronic convergence detail" >
     <i type="logical" name="LDIAG"> T  </i>
     <i type="logical" name="LSUBROT"> F  </i>
     <i name="WEIMIN">      0.00100000</i>
     <i name="EBREAK">      0.00000035</i>
     <i name="DEPER">      0.30000000</i>
     <i type="int" name="NRMM">     4</i>
     <i name="TIME">      0.40000000</i>
    </separator>
   </separator>
   <separator name="electronic mixer" >
    <i name="AMIX">      0.40000000</i>
    <i name="BMIX">      1.00000000</i>
    <i name="AMIN">      0.10000000</i>
    <i name="AMIX_MAG">      1.60000000</i>
    <i name="BMIX_MAG">      1.00000000</i>
    <separator name="electronic mixer details" >
     <i type="int" name="IMIX">     4</i>
     <i type="logical" name="MIXFIRST"> F  </i>
     <i type="int" name="MAXMIX">   -45</i>
     <i name="WC">    100.00000000</i>
     <i type="int" name="INIMIX">     1</i>
     <i type="int" name="MIXPRE">     1</i>
     <i type="int" name="MREMOVE">     5</i>
    </separator>
   </separator>
   <separator name="electronic dipolcorrection" >
    <i type="logical" name="LDIPOL"> F  </i>
    <i type="logical" name="LMONO"> F  </i>
    <i type="int" name="IDIPOL">     0</i>
    <i name="EPSILON">      1.00000000</i>
    <v name="DIPOL">   -100.00000000   -100.00000000   -100.00000000</v>
    <i name="EFIELD">      0.00000000</i>
   </separator>
  </separator>
  <separator name="grids" >
   <i type="int" name="NGX">    80</i>
   <i type="int" name="NGY">    80</i>
   <i type="int" name="NGZ">    80</i>
   <i type="int" name="NGXF">   160</i>
   <i type="int" name="NGYF">   160</i>
   <i type="int" name="NGZF">   160</i>
   <i type="logical" name="ADDGRID"> F  </i>
  </separator>
  <separator name="ionic" >
   <i type="int" name="NSW">    99</i>
   <i type="int" name="IBRION">     2</i>
   <i type="int" name="MDALGO">     0</i>
   <i type="int" name="ISIF">     2</i>
   <i name="PSTRESS">      0.00000000</i>
   <i name="EDIFFG">      0.00050000</i>
   <i type="int" name="NFREE">     1</i>
   <i name="POTIM">      0.50000000</i>
   <i name="SMASS">     -3.00000000</i>
   <i name="SCALEE">      1.00000000</i>
  </separator>
  <separator name="ionic md" >
   <i name="TEBEG">      0.00010000</i>
   <i name="TEEND">      0.00010000</i>
   <i type="int" name="NBLOCK">     1</i>
   <i type="int" name="KBLOCK">    99</i>
   <i type="int" name="NPACO">   256</i>
   <i name="APACO">     16.00000000</i>
  </separator>
  <separator name="symmetry" >
   <i type="int" name="ISYM">     2</i>
   <i name="SYMPREC">      0.00001000</i>
  </separator>
  <separator name="dos" >
   <i type="int" name="LORBIT">    11</i>
   <v name="RWIGS">     -1.00000000</v>
   <i type="int" name="NEDOS">   301</i>
   <i name="EMIN">     10.00000000</i>
   <i name="EMAX">    -10.00000000</i>
   <i name="EFERMI">      0.00000000</i>
  </separator>
  <separator name="writing" >
   <i type="int" name="NWRITE">     2</i>
   <i type="logical" name="LWAVE"> F  </i>
   <i type="logical" name="LDOWNSAMPLE"> F  </i>
   <i type="logical" name="LCHARG"> T  </i>
   <i type="logical" name="LPARD"> F  </i>
   <i type="logical" name="LVTOT"> F  </i>
   <i type="logical" name="LVHAR"> F  </i>
   <i type="logical" name="LELF"> F  </i>
   <i type="logical" name="LOPTICS"> F  </i>
   <v name="STM">      0.00000000      0.00000000      0.00000000      0.00000000      0.00000000      0.00000000      0.00000000</v>
  </separator>
  <separator name="performance" >
   <i type="int" name="NPAR">    36</i>
   <i type="int" name="NSIM">     4</i>
   <i type="int" name="NBLK">    -1</i>
   <i type="logical" name="LPLANE"> T  </i>
   <i type="logical" name="LSCALAPACK"> T  </i>
   <i type="logical" name="LSCAAWARE"> F  </i>
   <i type="logical" name="LSCALU"> F  </i>
   <i type="logical" name="LASYNC"> F  </i>
   <i type="logical" name="LORBITALREAL"> F  </i>
  </separator>
  <separator name="miscellaneous" >
   <i type="int" name="IDIOT">     3</i>
   <i type="int" name="ISPECIAL">     0</i>
   <i type="logical" name="LMUSIC"> F  </i>
   <v name="POMASS">     58.69000000</v>
   <v name="DARWINR">      0.00000000</v>
   <v name="DARWINV">      1.00000000</v>
   <i type="logical" name="LCORR"> T  </i>
  </separator>
  <i type="logical" name="GGA_COMPAT"> T  </i>
  <i type="logical" name="LBERRY"> F  </i>
  <i type="int" name="ICORELEVEL">     0</i>
  <i type="logical" name="LDAU"> F  </i>
  <i type="int" name="I_CONSTRAINED_M">     0</i>
  <separator name="electronic exchange-correlation" >
   <i type="string" name="GGA">--</i>
   <i type="int" name="VOSKOWN">     0</i>
   <i type="logical" name="LHFCALC"> F  </i>
   <i type="string" name="PRECFOCK"></i>
   <i type="logical" name="LSYMGRAD"> F  </i>
   <i type="logical" name="LHFONE"> F  </i>
   <i type="logical" name="LRHFCALC"> F  </i>
   <i type="logical" name="LTHOMAS"> F  </i>
   <i type="logical" name="LMODELHF"> F  </i>
   <i name="ENCUT4O">     -1.00000000</i>
   <i type="int" name="EXXOEP">     0</i>
   <i type="int" name="FOURORBIT">     0</i>
   <i name="AEXX">      0.00000000</i>
   <i name="HFALPHA">      0.00000000</i>
   <i name="MCALPHA">      0.00000000</i>
   <i name="ALDAX">      1.00000000</i>
   <i name="AGGAX">      1.00000000</i>
   <i name="ALDAC">      1.00000000</i>
   <i name="AGGAC">      1.00000000</i>
   <i type="int" name="NKREDX">     1</i>
   <i type="int" name="NKREDY">     1</i>
   <i type="int" name="NKREDZ">     1</i>
   <i type="logical" name="SHIFTRED"> F  </i>
   <i type="logical" name="ODDONLY"> F  </i>
   <i type="logical" name="EVENONLY"> F  </i>
   <i type="int" name="LMAXFOCK">     0</i>
   <i type="int" name="NMAXFOCKAE">     0</i>
   <i type="logical" name="LFOCKAEDFT"> F  </i>
   <i name="HFSCREEN">      0.00000000</i>
   <i name="HFSCREENC">      0.00000000</i>
   <i type="int" name="NBANDSGWLOW">     0</i>
  </separator>
  <separator name="vdW DFT" >
   <i type="logical" name="LUSE_VDW"> F  </i>
   <i name="Zab_VDW">     -0.84910000</i>
   <i name="PARAM1">      0.12340000</i>
   <i name="PARAM2">      1.00000000</i>
   <i name="PARAM3">      0.00000000</i>
  </separator>
  <separator name="model GW" >
   <i type="int" name="MODEL_GW">     0</i>
   <i name="MODEL_EPS0">    600.00000000</i>
   <i name="MODEL_ALPHA">      1.00000000</i>
  </separator>
  <separator name="linear response parameters" >
   <i type="logical" name="LEPSILON"> F  </i>
   <i type="logical" name="LRPA"> F  </i>
   <i type="logical" name="LNABLA"> F  </i>
   <i type="logical" name="LVEL"> F  </i>
   <i type="int" name="KINTER">     0</i>
   <i name="CSHIFT">      0.10000000</i>
   <i name="OMEGAMAX">     -1.00000000</i>
   <i name="DEG_THRESHOLD">      0.00200000</i>
   <i name="RTIME">     -0.10000000</i>
   <i name="WPLASMAI">      0.00000000</i>
   <v name="DFIELD">      0.00000000      0.00000000      0.00000000</v>
   <v name="WPLASMA">      0.00000000      0.00000000      0.00000000      0.00000000      0.00000000      0.00000000      0.00000000      0.00000000      0.00000000</v>
  </separator>
  <separator name="orbital magnetization" >
   <i type="logical" name="NUCIND"> F  </i>
   <v name="MAGPOS">      0.00000000      0.00000000      0.00000000</v>
   <i type="logical" name="LNICSALL"> T  </i>
   <i type="logical" name="ORBITALMAG"> F  </i>
   <i type="logical" name="LMAGBLOCH"> F  </i>
   <i type="logical" name="LCHIMAG"> F  </i>
   <i type="logical" name="LGAUGE"> T  </i>
   <i type="int" name="MAGATOM">     0</i>
   <v name="MAGDIPOL">      0.00000000      0.00000000      0.00000000</v>
   <v name="AVECCONST">      0.00000000      0.00000000      0.00000000</v>
  </separator>
  <separator name="response functions" >
   <i type="logical" name="LADDER"> F  </i>
   <i type="logical" name="LRPAFORCE"> F  </i>
   <i type="logical" name="LFXC"> F  </i>
   <i type="logical" name="LHARTREE"> T  </i>
   <i type="int" name="IBSE">     0</i>
   <v type="int" name="KPOINT">    -1     0     0     0</v>
   <i type="logical" name="LTCTE"> F  </i>
   <i type="logical" name="LTETE"> F  </i>
   <i type="logical" name="LTRIPLET"> F  </i>
   <i type="logical" name="LFXCEPS"> F  </i>
   <i type="logical" name="LFXHEG"> F  </i>
   <i type="int" name="NATURALO">     2</i>
   <i type="logical" name="L2ORDER"> F  </i>
   <i type="logical" name="LMP2LT"> F  </i>
   <i type="logical" name="LUSEW"> F  </i>
   <i name="ENCUTGW">     -2.00000000</i>
   <i name="ENCUTGWSOFT">     -2.00000000</i>
   <i name="ENCUTLF">     -1.00000000</i>
   <i type="int" name="LMAXMP2">    -1</i>
   <i name="SCISSOR">      0.00000000</i>
   <i type="int" name="NOMEGA">     0</i>
   <i type="int" name="NOMEGAR">     0</i>
   <i type="int" name="NBANDSGW">    -1</i>
   <i type="int" name="NBANDSO">    -1</i>
   <i type="int" name="NBANDSV">    -1</i>
   <i type="int" name="NELM">   300</i>
   <i type="int" name="NELMHF">     1</i>
   <i type="int" name="DIM">     3</i>
   <i type="int" name="ANTIRES">     0</i>
   <i name="OMEGAMAX">    -30.00000000</i>
   <i name="OMEGAMIN">    -30.00000000</i>
   <i name="OMEGATL">   -200.00000000</i>
   <i type="int" name="OMEGAGRID">   140</i>
   <i name="CSHIFT">     -0.10000000</i>
   <i type="logical" name="SELFENERGY"> F  </i>
   <i type="logical" name="LSPECTRAL"> F  </i>
   <i type="logical" name="LSPECTRALGW"> F  </i>
   <i type="logical" name="LSINGLES"> F  </i>
   <i type="logical" name="LFERMIGW"> F  </i>
   <i type="logical" name="ODDONLYGW"> F  </i>
   <i type="logical" name="EVENONLYGW"> F  </i>
   <i type="int" name="NKREDLFX">     1</i>
   <i type="int" name="NKREDLFY">     1</i>
   <i type="int" name="NKREDLFZ">     1</i>
   <i type="int" name="MAXMEM">  2800</i>
   <i type="int" name="TELESCOPE">     0</i>
   <i type="int" name="TAUPAR">     1</i>
   <i type="int" name="OMEGAPAR">    -1</i>
   <i name="LAMBDA">      1.00000000</i>
  </separator>
  <separator name="External order field" >
   <i name="OFIELD_KAPPA">      0.00000000</i>
   <v name="OFIELD_K">      0.00000000      0.00000000      0.00000000</v>
   <i name="OFIELD_Q6_NEAR">      0.00000000</i>
   <i name="OFIELD_Q6_FAR">      0.00000000</i>
   <i name="OFIELD_A">      0.00000000</i>
  </separator>
 </parameters>
 <atominfo>
  <atoms>       1 </atoms>
  <types>       1 </types>
  <array name="atoms" >
   <dimension dim="1">ion</dimension>
   <field type="string">element</field>
   <field type="int">atomtype</field>
   <set>
    <rc><c>Ni</c><c>   1</c></rc>
   </set>
  </array>
  <array name="atomtypes" >
   <dimension dim="1">type</dimension>
   <field type="int">atomspertype</field>
   <field type="string">element</field>
   <field>mass</field>
   <field>valence</field>
   <field type="string">pseudopotential</field>
   <set>
    <rc><c>   1</c><c>Ni</c><c>     58.69000000</c><c>     16.00000000</c><c>  PAW_PBE Ni_pv 06Sep2000               </c></rc>
   </set>
  </array>
 </atominfo>
 <structure name="initialpos" >
  <crystal>
   <varray name="basis" >
    <v>      10.00000000       0.00000000       0.00000000 </v>
    <v>       0.00000000      10.00000000       0.00000000 </v>
    <v>       0.00000000       0.00000000      10.00000000 </v>
   </varray>
   <i name="volume">   1000.00000000 </i>
   <varray name="rec_basis" >
    <v>       0.10000000       0.00000000       0.00000000 </v>
    <v>       0.00000000       0.10000000       0.00000000 </v>
    <v>       0.00000000       0.00000000       0.10000000 </v>
   </varray>
  </crystal>
  <varray name="positions" >
   <v>       0.50000000       0.50000000       0.50000000 </v>
  </varray>
 </structure>
 <calculation>
  <scstep>
   <time name="total">    0.98    0.99</time>
   <energy>
    <i name="alphaZ">      1.68496352 </i>
    <i name="ewald">   -522.96294414 </i>
    <i name="hartreedc">  -2484.50596382 </i>
    <i name="XCdc">     86.76277955 </i>
    <i name="pawpsdc">   2913.85766777 </i>
    <i name="pawaedc">  -3053.48909943 </i>
    <i name="eentropy">     -0.00021849 </i>
    <i name="bandstr">   -276.37675712 </i>
    <i name="atom">   3501.06551159 </i>
    <i name="e_fr_energy">    166.03593943 </i>
    <i name="e_wo_entrp">    166.03615792 </i>
    <i name="e_0_energy">    166.03604868 </i>
   </energy>
  </scstep>
  <scstep>
   <time name="total">    0.22    0.23</time>
   <energy>
    <i name="e_fr_energy">     27.64486802 </i>
    <i name="e_wo_entrp">     27.64744154 </i>
    <i name="e_0_energy">     27.64615478 </i>
   </energy>
  </scstep>
  <scstep>
   <time name="total">    0.40    0.40</time>
   <energy>
    <i name="e_fr_energy">      1.92858610 </i>
    <i name="e_wo_entrp">      1.95659451 </i>
    <i name="e_0_energy">      1.94259031 </i>
   </energy>
  </scstep>
  <scstep>
   <time name="total">    0.40    0.40</time>
   <energy>
    <i name="e_fr_energy">      0.04753840 </i>
    <i name="e_wo_entrp">      0.11135877 </i>
    <i name="e_0_energy">      0.07944859 </i>
   </energy>
  </scstep>
  <scstep>
   <time name="total">    0.61    0.61</time>
   <energy>
    <i name="e_fr_energy">     -0.26576538 </i>
    <i name="e_wo_entrp">     -0.19560185 </i>
    <i name="e_0_energy">     -0.23068361 </i>
   </energy>
  </scstep>
  <scstep>
   <time name="total">    0.94    0.95</time>
   <energy>
    <i name="e_fr_energy">      3.39895925 </i>
    <i name="e_wo_entrp">      3.39895925 </i>
    <i name="e_0_energy">      3.39895925 </i>
   </energy>
  </scstep>
  <scstep>
   <time name="total">    0.90    0.90</time>
   <energy>
    <i name="e_fr_energy">     35.32193788 </i>
    <i name="e_wo_entrp">     35.36987462 </i>
    <i name="e_0_energy">     35.34590625 </i>
   </energy>
  </scstep>
  <scstep>
   <time name="total">    0.93    0.93</time>
   <energy>
    <i name="e_fr_energy">     77.82229980 </i>
    <i name="e_wo_entrp">     77.82230311 </i>
    <i name="e_0_energy">     77.82230146 </i>
   </energy>
  </scstep>
  <scstep>
   <time name="total">    0.89    0.89</time>
   <energy>
    <i name="e_fr_energy">    168.99452544 </i>
    <i name="e_wo_entrp">    169.01898958 </i>
    <i name="e_0_energy">    169.00675751 </i>
   </energy>
  </scstep>
  <scstep>
   <time name="total">    0.89    0.89</time>
   <energy>
    <i name="e_fr_energy">     30.89249030 </i>
    <i name="e_wo_entrp">     30.92226867 </i>
    <i name="e_0_energy">     30.90737949 </i>
   </energy>
  </scstep>
  <scstep>
   <time name="total">    0.90    0.90</time>
   <energy>
    <i name="e_fr_energy">     37.81583813 </i>
    <i name="e_wo_entrp">     37.82464869 </i>
    <i name="e_0_energy">     37.82024341 </i>
   </energy>
  </scstep>
  <scstep>
   <time name="total">    0.90    0.90</time>
   <energy>
    <i name="e_fr_energy">     55.96257750 </i>
    <i name="e_wo_entrp">     55.96731260 </i>
    <i name="e_0_energy">     55.96494505 </i>
   </energy>
  </scstep>
  <scstep>
   <time name="total">    0.90    0.90</time>
   <energy>
    <i name="e_fr_energy">     34.63786291 </i>
    <i name="e_wo_entrp">     34.66513142 </i>
    <i name="e_0_energy">     34.65149717 </i>
   </energy>
  </scstep>
  <scstep>
   <time name="total">    0.90    0.90</time>
   <energy>
    <i name="e_fr_energy">      5.61144209 </i>
    <i name="e_wo_entrp">      5.64069725 </i>
    <i name="e_0_energy">      5.62606967 </i>
   </energy>
  </scstep>
  <scstep>
   <time name="total">    0.91    0.91</time>
   <energy>
    <i name="e_fr_energy">      5.67006235 </i>
    <i name="e_wo_entrp">      5.69656086 </i>
    <i name="e_0_energy">      5.68331160 </i>
   </energy>
  </scstep>
  <scstep>
   <time name="total">    0.90    0.90</time>
   <energy>
    <i name="e_fr_energy">      4.52792881 </i>
    <i name="e_wo_entrp">      4.52797090 </i>
    <i name="e_0_energy">      4.52794985 </i>
   </energy>
  </scstep>
  <scstep>
   <time name="total">    0.89    0.89</time>
   <energy>
    <i name="e_fr_energy">      5.57737614 </i>
    <i name="e_wo_entrp">      5.60538742 </i>
    <i name="e_0_energy">      5.59138178 </i>
   </energy>
  </scstep>
  <scstep>
   <time name="total">    0.90    0.90</time>
   <energy>
    <i name="e_fr_energy">      5.40714606 </i>
    <i name="e_wo_entrp">      5.43527460 </i>
    <i name="e_0_energy">      5.42121033 </i>
   </energy>
  </scstep>
  <scstep>
   <time name="total">    0.91    0.91</time>
   <energy>
    <i name="e_fr_energy">      3.11403280 </i>
    <i name="e_wo_entrp">      3.15173311 </i>
    <i name="e_0_energy">      3.13288296 </i>
   </energy>
  </scstep>
  <scstep>
   <time name="total">    0.91    0.91</time>
   <energy>
    <i name="e_fr_energy">      0.65576216 </i>
    <i name="e_wo_entrp">      0.69258931 </i>
    <i name="e_0_energy">      0.67417574 </i>
   </energy>
  </scstep>
  <scstep>
   <time name="total">    0.90    0.90</time>
   <energy>
    <i name="e_fr_energy">      0.97222080 </i>
    <i name="e_wo_entrp">      0.97346976 </i>
    <i name="e_0_energy">      0.97284528 </i>
   </energy>
  </scstep>
  <scstep>
   <time name="total">    0.89    0.89</time>
   <energy>
    <i name="e_fr_energy">      2.90199688 </i>
    <i name="e_wo_entrp">      2.93020496 </i>
    <i name="e_0_energy">      2.91610092 </i>
   </energy>
  </scstep>
  <scstep>
   <time name="total">    0.90    0.90</time>
   <energy>
    <i name="e_fr_energy">      4.72771119 </i>
    <i name="e_wo_entrp">      4.75875085 </i>
    <i name="e_0_energy">      4.74323102 </i>
   </energy>
  </scstep>
  <scstep>
   <time name="total">    0.90    0.90</time>
   <energy>
    <i name="e_fr_energy">      3.65698740 </i>
    <i name="e_wo_entrp">      3.68519667 </i>
    <i name="e_0_energy">      3.67109203 </i>
   </energy>
  </scstep>
  <scstep>
   <time name="total">    0.90    0.90</time>
   <energy>
    <i name="e_fr_energy">      2.98269819 </i>
    <i name="e_wo_entrp">      3.01090752 </i>
    <i name="e_0_energy">      2.99680286 </i>
   </energy>
  </scstep>
  <scstep>
   <time name="total">    0.91    0.91</time>
   <energy>
    <i name="e_fr_energy">      2.70188447 </i>
    <i name="e_wo_entrp">      2.73010725 </i>
    <i name="e_0_energy">      2.71599586 </i>
   </energy>
  </scstep>
  <scstep>
   <time name="total">    0.90    0.90</time>
   <energy>
    <i name="e_fr_energy">      3.45996390 </i>
    <i name="e_wo_entrp">      3.48820373 </i>
    <i name="e_0_energy">      3.47408382 </i>
   </energy>
  </scstep>
  <scstep>
   <time name="total">    0.90    0.90</time>
   <energy>
    <i name="e_fr_energy">      3.03579049 </i>
    <i name="e_wo_entrp">      3.06399573 </i>
    <i name="e_0_energy">      3.04989311 </i>
   </energy>
  </scstep>
  <scstep>
   <time name="total">    0.90    0.90</time>
   <energy>
    <i name="e_fr_energy">      3.17223374 </i>
    <i name="e_wo_entrp">      3.20041558 </i>
    <i name="e_0_energy">      3.18632466 </i>
   </energy>
  </scstep>
  <scstep>
   <time name="total">    0.90    0.90</time>
   <energy>
    <i name="e_fr_energy">      2.80663055 </i>
    <i name="e_wo_entrp">      2.83463191 </i>
    <i name="e_0_energy">      2.82063123 </i>
   </energy>
  </scstep>
  <scstep>
   <time name="total">    0.90    0.90</time>
   <energy>
    <i name="e_fr_energy">      2.94380713 </i>
    <i name="e_wo_entrp">      2.97213613 </i>
    <i name="e_0_energy">      2.95797163 </i>
   </energy>
  </scstep>
  <scstep>
   <time name="total">    0.89    0.89</time>
   <energy>
    <i name="e_fr_energy">      2.53501867 </i>
    <i name="e_wo_entrp">      2.55386803 </i>
    <i name="e_0_energy">      2.54444335 </i>
   </energy>
  </scstep>
  <scstep>
   <time name="total">    0.91    0.91</time>
   <energy>
    <i name="e_fr_energy">     -0.42105807 </i>
    <i name="e_wo_entrp">     -0.38740239 </i>
    <i name="e_0_energy">     -0.40423023 </i>
   </energy>
  </scstep>
  <scstep>
   <time name="total">    0.98    0.98</time>
   <energy>
    <i name="e_fr_energy">     -0.34528570 </i>
    <i name="e_wo_entrp">     -0.31707982 </i>
    <i name="e_0_energy">     -0.33118276 </i>
   </energy>
  </scstep>
  <scstep>
   <time name="total">    0.91    0.91</time>
   <energy>
    <i name="e_fr_energy">     -0.17711970 </i>
    <i name="e_wo_entrp">     -0.13972996 </i>
    <i name="e_0_energy">     -0.15842483 </i>
   </energy>
  </scstep>
  <scstep>
   <time name="total">    0.91    0.91</time>
   <energy>
    <i name="e_fr_energy">     -0.07609176 </i>
    <i name="e_wo_entrp">     -0.03977505 </i>
    <i name="e_0_energy">     -0.05793340 </i>
   </energy>
  </scstep>
  <scstep>
   <time name="total">    0.90    0.90</time>
   <energy>
    <i name="e_fr_energy">     -0.14484421 </i>
    <i name="e_wo_entrp">     -0.09893444 </i>
    <i name="e_0_energy">     -0.12188933 </i>
   </energy>
  </scstep>
  <scstep>
   <time name="total">    0.89    0.89</time>
   <energy>
    <i name="e_fr_energy">     -0.59436585 </i>
    <i name="e_wo_entrp">     -0.55435883 </i>
    <i name="e_0_energy">     -0.57436234 </i>
   </energy>
  </scstep>
  <scstep>
   <time name="total">    0.89    0.89</time>
   <energy>
    <i name="e_fr_energy">     -0.64717836 </i>
    <i name="e_wo_entrp">     -0.60928523 </i>
    <i name="e_0_energy">     -0.62823180 </i>
   </energy>
  </scstep>
  <scstep>
   <time name="total">    0.89    0.89</time>
   <energy>
    <i name="e_fr_energy">     -0.64024032 </i>
    <i name="e_wo_entrp">     -0.58953493 </i>
    <i name="e_0_energy">     -0.61488763 </i>
   </energy>
  </scstep>
  <scstep>
   <time name="total">    0.89    0.89</time>
   <energy>
    <i name="e_fr_energy">     -0.41548365 </i>
    <i name="e_wo_entrp">     -0.37779117 </i>
    <i name="e_0_energy">     -0.39663741 </i>
   </energy>
  </scstep>
  <scstep>
   <time name="total">    0.89    0.89</time>
   <energy>
    <i name="e_fr_energy">     -0.27710191 </i>
    <i name="e_wo_entrp">     -0.23403804 </i>
    <i name="e_0_energy">     -0.25556998 </i>
   </energy>
  </scstep>
  <scstep>
   <time name="total">    0.90    0.90</time>
   <energy>
    <i name="e_fr_energy">     -0.63111193 </i>
    <i name="e_wo_entrp">     -0.58218117 </i>
    <i name="e_0_energy">     -0.60664655 </i>
   </energy>
  </scstep>
  <scstep>
   <time name="total">    0.90    0.90</time>
   <energy>
    <i name="e_fr_energy">     -0.50653998 </i>
    <i name="e_wo_entrp">     -0.46807132 </i>
    <i name="e_0_energy">     -0.48730565 </i>
   </energy>
  </scstep>
  <scstep>
   <time name="total">    0.90    0.90</time>
   <energy>
    <i name="e_fr_energy">     -0.44607544 </i>
    <i name="e_wo_entrp">     -0.40598830 </i>
    <i name="e_0_energy">     -0.42603187 </i>
   </energy>
  </scstep>
  <scstep>
   <time name="total">    0.90    0.90</time>
   <energy>
    <i name="e_fr_energy">     -0.64948488 </i>
    <i name="e_wo_entrp">     -0.59383349 </i>
    <i name="e_0_energy">     -0.62165919 </i>
   </energy>
  </scstep>
  <scstep>
   <time name="total">    0.89    0.89</time>
   <energy>
    <i name="e_fr_energy">      0.20548878 </i>
    <i name="e_wo_entrp">      0.24404835 </i>
    <i name="e_0_energy">      0.22476857 </i>
   </energy>
  </scstep>
  <scstep>
   <time name="total">    0.89    0.89</time>
   <energy>
    <i name="e_fr_energy">      0.42650576 </i>
    <i name="e_wo_entrp">      0.46506896 </i>
    <i name="e_0_energy">      0.44578736 </i>
   </energy>
  </scstep>
  <scstep>
   <time name="total">    0.90    0.90</time>
   <energy>
    <i name="e_fr_energy">     -0.63449545 </i>
    <i name="e_wo_entrp">     -0.59585519 </i>
    <i name="e_0_energy">     -0.61517532 </i>
   </energy>
  </scstep>
  <scstep>
   <time name="total">    0.89    0.89</time>
   <energy>
    <i name="e_fr_energy">      5.38251317 </i>
    <i name="e_wo_entrp">      5.38251318 </i>
    <i name="e_0_energy">      5.38251318 </i>
   </energy>
  </scstep>
  <scstep>
   <time name="total">    0.89    0.89</time>
   <energy>
    <i name="e_fr_energy">     21.62115686 </i>
    <i name="e_wo_entrp">     21.62115824 </i>
    <i name="e_0_energy">     21.62115755 </i>
   </energy>
  </scstep>
  <scstep>
   <time name="total">    0.91    0.91</time>
   <energy>
    <i name="e_fr_energy">     12.84766645 </i>
    <i name="e_wo_entrp">     12.84766645 </i>
    <i name="e_0_energy">     12.84766645 </i>
   </energy>
  </scstep>
  <scstep>
   <time name="total">    0.90    0.90</time>
   <energy>
    <i name="e_fr_energy">      0.63871798 </i>
    <i name="e_wo_entrp">      0.63871837 </i>
    <i name="e_0_energy">      0.63871818 </i>
   </energy>
  </scstep>
  <scstep>
   <time name="total">    0.89    0.89</time>
   <energy>
    <i name="e_fr_energy">      9.28425216 </i>
    <i name="e_wo_entrp">      9.28425216 </i>
    <i name="e_0_energy">      9.28425216 </i>
   </energy>
  </scstep>
  <scstep>
   <time name="total">    0.90    0.90</time>
   <energy>
    <i name="e_fr_energy">      2.90312668 </i>
    <i name="e_wo_entrp">      2.90313036 </i>
    <i name="e_0_energy">      2.90312852 </i>
   </energy>
  </scstep>
  <scstep>
   <time name="total">    0.90    0.90</time>
   <energy>
    <i name="e_fr_energy">      0.49850290 </i>
    <i name="e_wo_entrp">      0.49850290 </i>
    <i name="e_0_energy">      0.49850290 </i>
   </energy>
  </scstep>
  <scstep>
   <time name="total">    0.87    0.87</time>
   <energy>
    <i name="e_fr_energy">      4.95376041 </i>
    <i name="e_wo_entrp">      4.99230735 </i>
    <i name="e_0_energy">      4.97303388 </i>
   </energy>
  </scstep>
  <scstep>
   <time name="total">    0.90    0.90</time>
   <energy>
    <i name="e_fr_energy">      4.12560987 </i>
    <i name="e_wo_entrp">      4.17053808 </i>
    <i name="e_0_energy">      4.14807397 </i>
   </energy>
  </scstep>
  <scstep>
   <time name="total">    0.89    0.89</time>
   <energy>
    <i name="e_fr_energy">      2.09239145 </i>
    <i name="e_wo_entrp">      2.13090141 </i>
    <i name="e_0_energy">      2.11164643 </i>
   </energy>
  </scstep>
  <scstep>
   <time name="total">    0.90    0.90</time>
   <energy>
    <i name="e_fr_energy">      3.28015898 </i>
    <i name="e_wo_entrp">      3.31920931 </i>
    <i name="e_0_energy">      3.29968415 </i>
   </energy>
  </scstep>
  <scstep>
   <time name="total">    0.89    0.89</time>
   <energy>
    <i name="e_fr_energy">      2.99639131 </i>
    <i name="e_wo_entrp">      3.04097307 </i>
    <i name="e_0_energy">      3.01868219 </i>
   </energy>
  </scstep>
  <scstep>
   <time name="total">    0.90    0.90</time>
   <energy>
    <i name="e_fr_energy">      3.44552941 </i>
    <i name="e_wo_entrp">      3.44562456 </i>
    <i name="e_0_energy">      3.44557699 </i>
   </energy>
  </scstep>
  <scstep>
   <time name="total">    0.89    0.89</time>
   <energy>
    <i name="e_fr_energy">      2.60780896 </i>
    <i name="e_wo_entrp">      2.60780914 </i>
    <i name="e_0_energy">      2.60780905 </i>
   </energy>
  </scstep>
  <scstep>
   <time name="total">    0.89    0.89</time>
   <energy>
    <i name="e_fr_energy">      2.74341518 </i>
    <i name="e_wo_entrp">      2.74341525 </i>
    <i name="e_0_energy">      2.74341521 </i>
   </energy>
  </scstep>
  <scstep>
   <time name="total">    0.91    0.91</time>
   <energy>
    <i name="e_fr_energy">      2.67400222 </i>
    <i name="e_wo_entrp">      2.67402510 </i>
    <i name="e_0_energy">      2.67401366 </i>
   </energy>
  </scstep>
  <scstep>
   <time name="total">    0.90    0.90</time>
   <energy>
    <i name="e_fr_energy">     -0.59727654 </i>
    <i name="e_wo_entrp">     -0.55870609 </i>
    <i name="e_0_energy">     -0.57799132 </i>
   </energy>
  </scstep>
  <scstep>
   <time name="total">    0.89    0.89</time>
   <energy>
    <i name="e_fr_energy">      6.94409471 </i>
    <i name="e_wo_entrp">      6.98691969 </i>
    <i name="e_0_energy">      6.96550720 </i>
   </energy>
  </scstep>
  <scstep>
   <time name="total">    0.91    0.92</time>
   <energy>
    <i name="e_fr_energy">     12.05058592 </i>
    <i name="e_wo_entrp">     12.05058745 </i>
    <i name="e_0_energy">     12.05058668 </i>
   </energy>
  </scstep>
  <scstep>
   <time name="total">    0.90    0.90</time>
   <energy>
    <i name="e_fr_energy">      4.52337646 </i>
    <i name="e_wo_entrp">      4.52337646 </i>
    <i name="e_0_energy">      4.52337646 </i>
   </energy>
  </scstep>
  <scstep>
   <time name="total">    0.91    0.92</time>
   <energy>
    <i name="e_fr_energy">      0.29964752 </i>
    <i name="e_wo_entrp">      0.32775116 </i>
    <i name="e_0_energy">      0.31369934 </i>
   </energy>
  </scstep>
  <scstep>
   <time name="total">    0.90    0.90</time>
   <energy>
    <i name="e_fr_energy">      6.08775214 </i>
    <i name="e_wo_entrp">      6.12498976 </i>
    <i name="e_0_energy">      6.10637095 </i>
   </energy>
  </scstep>
  <scstep>
   <time name="total">    0.90    0.90</time>
   <energy>
    <i name="e_fr_energy">      4.07529052 </i>
    <i name="e_wo_entrp">      4.12407992 </i>
    <i name="e_0_energy">      4.09968522 </i>
   </energy>
  </scstep>
  <scstep>
   <time name="total">    0.90    0.90</time>
   <energy>
    <i name="e_fr_energy">      0.56606686 </i>
    <i name="e_wo_entrp">      0.57269170 </i>
    <i name="e_0_energy">      0.56937928 </i>
   </energy>
  </scstep>
  <scstep>
   <time name="total">    0.89    0.90</time>
   <energy>
    <i name="e_fr_energy">     20.82991331 </i>
    <i name="e_wo_entrp">     20.86847117 </i>
    <i name="e_0_energy">     20.84919224 </i>
   </energy>
  </scstep>
  <scstep>
   <time name="total">    0.90    0.90</time>
   <energy>
    <i name="e_fr_energy">     18.30889729 </i>
    <i name="e_wo_entrp">     18.34745582 </i>
    <i name="e_0_energy">     18.32817656 </i>
   </energy>
  </scstep>
  <scstep>
   <time name="total">    0.89    0.89</time>
   <energy>
    <i name="e_fr_energy">      1.21097986 </i>
    <i name="e_wo_entrp">      1.24954275 </i>
    <i name="e_0_energy">      1.23026131 </i>
   </energy>
  </scstep>
  <scstep>
   <time name="total">    0.89    0.89</time>
   <energy>
    <i name="e_fr_energy">     11.21521282 </i>
    <i name="e_wo_entrp">     11.25377519 </i>
    <i name="e_0_energy">     11.23449400 </i>
   </energy>
  </scstep>
  <scstep>
   <time name="total">    0.90    0.90</time>
   <energy>
    <i name="e_fr_energy">      3.34050946 </i>
    <i name="e_wo_entrp">      3.37907389 </i>
    <i name="e_0_energy">      3.35979167 </i>
   </energy>
  </scstep>
  <scstep>
   <time name="total">    0.90    0.90</time>
   <energy>
    <i name="e_fr_energy">      1.08547193 </i>
    <i name="e_wo_entrp">      1.12416493 </i>
    <i name="e_0_energy">      1.10481843 </i>
   </energy>
  </scstep>
  <scstep>
   <time name="total">    0.89    0.90</time>
   <energy>
    <i name="e_fr_energy">      4.92325811 </i>
    <i name="e_wo_entrp">      4.97730844 </i>
    <i name="e_0_energy">      4.95028327 </i>
   </energy>
  </scstep>
  <scstep>
   <time name="total">    0.90    0.90</time>
   <energy>
    <i name="e_fr_energy">      4.06056234 </i>
    <i name="e_wo_entrp">      4.08883743 </i>
    <i name="e_0_energy">      4.07469989 </i>
   </energy>
  </scstep>
  <scstep>
   <time name="total">    0.91    0.91</time>
   <energy>
    <i name="e_fr_energy">      2.10853236 </i>
    <i name="e_wo_entrp">      2.10859929 </i>
    <i name="e_0_energy">      2.10856582 </i>
   </energy>
  </scstep>
  <scstep>
   <time name="total">    0.89    0.89</time>
   <energy>
    <i name="e_fr_energy">      2.64958087 </i>
    <i name="e_wo_entrp">      2.67778107 </i>
    <i name="e_0_energy">      2.66368097 </i>
   </energy>
  </scstep>
  <scstep>
   <time name="total">    0.89    0.89</time>
   <energy>
    <i name="e_fr_energy">      2.87250719 </i>
    <i name="e_wo_entrp">      2.93940533 </i>
    <i name="e_0_energy">      2.90595626 </i>
   </energy>
  </scstep>
  <scstep>
   <time name="total">    0.90    0.90</time>
   <energy>
    <i name="e_fr_energy">      3.46111656 </i>
    <i name="e_wo_entrp">      3.49971043 </i>
    <i name="e_0_energy">      3.48041350 </i>
   </energy>
  </scstep>
  <scstep>
   <time name="total">    0.90    0.90</time>
   <energy>
    <i name="e_fr_energy">      2.69719588 </i>
    <i name="e_wo_entrp">      2.69720406 </i>
    <i name="e_0_energy">      2.69719997 </i>
   </energy>
  </scstep>
  <scstep>
   <time name="total">    0.91    0.91</time>
   <energy>
    <i name="e_fr_energy">      2.79021044 </i>
    <i name="e_wo_entrp">      2.81842082 </i>
    <i name="e_0_energy">      2.80431563 </i>
   </energy>
  </scstep>
  <scstep>
   <time name="total">    0.90    0.90</time>
   <energy>
    <i name="e_fr_energy">      2.69724865 </i>
    <i name="e_wo_entrp">      2.69996237 </i>
    <i name="e_0_energy">      2.69860551 </i>
   </energy>
  </scstep>
  <scstep>
   <time name="total">    0.89    0.89</time>
   <energy>
    <i name="e_fr_energy">      2.77003564 </i>
    <i name="e_wo_entrp">      2.79823255 </i>
    <i name="e_0_energy">      2.78413410 </i>
   </energy>
  </scstep>
  <scstep>
   <time name="total">    0.91    0.91</time>
   <energy>
    <i name="e_fr_energy">      2.64474716 </i>
    <i name="e_wo_entrp">      2.68331016 </i>
    <i name="e_0_energy">      2.66402866 </i>
   </energy>
  </scstep>
  <scstep>
   <time name="total">    0.90    0.90</time>
   <energy>
    <i name="e_fr_energy">      3.38457104 </i>
    <i name="e_wo_entrp">      3.42324029 </i>
    <i name="e_0_energy">      3.40390567 </i>
   </energy>
  </scstep>
  <scstep>
   <time name="total">    0.89    0.89</time>
   <energy>
    <i name="e_fr_energy">      2.91426197 </i>
    <i name="e_wo_entrp">      2.95282720 </i>
    <i name="e_0_energy">      2.93354459 </i>
   </energy>
  </scstep>
  <scstep>
   <time name="total">    0.90    0.90</time>
   <energy>
    <i name="e_fr_energy">      3.16040780 </i>
    <i name="e_wo_entrp">      3.19897337 </i>
    <i name="e_0_energy">      3.17969059 </i>
   </energy>
  </scstep>
  <scstep>
   <time name="total">    0.89    0.89</time>
   <energy>
    <i name="e_fr_energy">      2.74271888 </i>
    <i name="e_wo_entrp">      2.78128575 </i>
    <i name="e_0_energy">      2.76200231 </i>
   </energy>
  </scstep>
  <scstep>
   <time name="total">    0.90    0.90</time>
   <energy>
    <i name="e_fr_energy">      3.23653231 </i>
    <i name="e_wo_entrp">      3.27551552 </i>
    <i name="e_0_energy">      3.25602391 </i>
   </energy>
  </scstep>
  <scstep>
   <time name="total">    0.90    0.90</time>
   <energy>
    <i name="e_fr_energy">      2.84368570 </i>
    <i name="e_wo_entrp">      2.88552945 </i>
    <i name="e_0_energy">      2.86460757 </i>
   </energy>
  </scstep>
  <scstep>
   <time name="total">    0.89    0.90</time>
   <energy>
    <i name="e_fr_energy">      3.24176803 </i>
    <i name="e_wo_entrp">      3.28669329 </i>
    <i name="e_0_energy">      3.26423066 </i>
   </energy>
  </scstep>
  <scstep>
   <time name="total">    0.89    0.89</time>
   <energy>
    <i name="e_fr_energy">      2.80153811 </i>
    <i name="e_wo_entrp">      2.81834823 </i>
    <i name="e_0_energy">      2.80994317 </i>
   </energy>
  </scstep>
  <scstep>
   <time name="total">    0.90    0.90</time>
   <energy>
    <i name="e_fr_energy">      2.68978852 </i>
    <i name="e_wo_entrp">      2.71799686 </i>
    <i name="e_0_energy">      2.70389269 </i>
   </energy>
  </scstep>
  <scstep>
   <time name="total">    0.89    0.89</time>
   <energy>
    <i name="e_fr_energy">      2.46510255 </i>
    <i name="e_wo_entrp">      2.50845627 </i>
    <i name="e_0_energy">      2.48677941 </i>
   </energy>
  </scstep>
  <scstep>
   <time name="total">    0.92    0.93</time>
   <energy>
    <i name="e_fr_energy">      3.42442249 </i>
    <i name="e_wo_entrp">      3.46297810 </i>
    <i name="e_0_energy">      3.44370030 </i>
   </energy>
  </scstep>
  <scstep>
   <time name="total">    0.95    0.95</time>
   <energy>
    <i name="e_fr_energy">      2.99207374 </i>
    <i name="e_wo_entrp">      2.99972371 </i>
    <i name="e_0_energy">      2.99589873 </i>
   </energy>
  </scstep>
  <scstep>
   <time name="total">    0.89    0.89</time>
   <energy>
    <i name="e_fr_energy">      2.84170370 </i>
    <i name="e_wo_entrp">      2.86991045 </i>
    <i name="e_0_energy">      2.85580708 </i>
   </energy>
  </scstep>
  <scstep>
   <time name="total">    0.90    0.90</time>
   <energy>
    <i name="e_fr_energy">      2.65487441 </i>
    <i name="e_wo_entrp">      2.68553158 </i>
    <i name="e_0_energy">      2.67020300 </i>
   </energy>
  </scstep>
  <scstep>
   <time name="total">    0.90    0.90</time>
   <energy>
    <i name="e_fr_energy">      3.06433822 </i>
    <i name="e_wo_entrp">      3.09413892 </i>
    <i name="e_0_energy">      3.07923857 </i>
   </energy>
  </scstep>
  <scstep>
   <time name="total">    0.90    0.90</time>
   <energy>
    <i name="e_fr_energy">      2.71964111 </i>
    <i name="e_wo_entrp">      2.72662083 </i>
    <i name="e_0_energy">      2.72313097 </i>
   </energy>
  </scstep>
  <scstep>
   <time name="total">    0.90    0.90</time>
   <energy>
    <i name="e_fr_energy">      2.77957334 </i>
    <i name="e_wo_entrp">      2.80777513 </i>
    <i name="e_0_energy">      2.79367423 </i>
   </energy>
  </scstep>
  <scstep>
   <time name="total">    0.89    0.89</time>
   <energy>
    <i name="e_fr_energy">      2.64542650 </i>
    <i name="e_wo_entrp">      2.68645188 </i>
    <i name="e_0_energy">      2.66593919 </i>
   </energy>
  </scstep>
  <scstep>
   <time name="total">    0.90    0.90</time>
   <energy>
    <i name="e_fr_energy">      3.43837789 </i>
    <i name="e_wo_entrp">      3.47691579 </i>
    <i name="e_0_energy">      3.45764684 </i>
   </energy>
  </scstep>
  <scstep>
   <time name="total">    0.89    0.89</time>
   <energy>
    <i name="e_fr_energy">      2.96817518 </i>
    <i name="e_wo_entrp">      2.97833720 </i>
    <i name="e_0_energy">      2.97325619 </i>
   </energy>
  </scstep>
  <scstep>
   <time name="total">    0.90    0.90</time>
   <energy>
    <i name="e_fr_energy">      2.88473751 </i>
    <i name="e_wo_entrp">      2.91294198 </i>
    <i name="e_0_energy">      2.89883975 </i>
   </energy>
  </scstep>
  <scstep>
   <time name="total">    0.90    0.90</time>
   <energy>
    <i name="e_fr_energy">      2.67829450 </i>
    <i name="e_wo_entrp">      2.71903087 </i>
    <i name="e_0_energy">      2.69866269 </i>
   </energy>
  </scstep>
  <scstep>
   <time name="total">    0.90    0.90</time>
   <energy>
    <i name="e_fr_energy">      3.16663586 </i>
    <i name="e_wo_entrp">      3.20632996 </i>
    <i name="e_0_energy">      3.18648291 </i>
   </energy>
  </scstep>
  <scstep>
   <time name="total">    0.90    0.90</time>
   <energy>
    <i name="e_fr_energy">      2.77777614 </i>
    <i name="e_wo_entrp">      2.81002391 </i>
    <i name="e_0_energy">      2.79390002 </i>
   </energy>
  </scstep>
  <scstep>
   <time name="total">    0.90    0.90</time>
   <energy>
    <i name="e_fr_energy">      3.02602125 </i>
    <i name="e_wo_entrp">      3.05422647 </i>
    <i name="e_0_energy">      3.04012386 </i>
   </energy>
  </scstep>
  <scstep>
   <time name="total">    0.90    0.90</time>
   <energy>
    <i name="e_fr_energy">      2.67802611 </i>
    <i name="e_wo_entrp">      2.71657805 </i>
    <i name="e_0_energy">      2.69730208 </i>
   </energy>
  </scstep>
  <scstep>
   <time name="total">    0.89    0.89</time>
   <energy>
    <i name="e_fr_energy">      3.38933385 </i>
    <i name="e_wo_entrp">      3.42789102 </i>
    <i name="e_0_energy">      3.40861244 </i>
   </energy>
  </scstep>
  <scstep>
   <time name="total">    0.89    0.89</time>
   <energy>
    <i name="e_fr_energy">      2.93617938 </i>
    <i name="e_wo_entrp">      2.97473927 </i>
    <i name="e_0_energy">      2.95545933 </i>
   </energy>
  </scstep>
  <scstep>
   <time name="total">    0.90    0.90</time>
   <energy>
    <i name="e_fr_energy">      3.18809831 </i>
    <i name="e_wo_entrp">      3.22666142 </i>
    <i name="e_0_energy">      3.20737987 </i>
   </energy>
  </scstep>
  <scstep>
   <time name="total">    0.90    0.90</time>
   <energy>
    <i name="e_fr_energy">      2.77014207 </i>
    <i name="e_wo_entrp">      2.80870609 </i>
    <i name="e_0_energy">      2.78942408 </i>
   </energy>
  </scstep>
  <scstep>
   <time name="total">    0.89    0.90</time>
   <energy>
    <i name="e_fr_energy">      3.24618871 </i>
    <i name="e_wo_entrp">      3.28848555 </i>
    <i name="e_0_energy">      3.26733713 </i>
   </energy>
  </scstep>
  <scstep>
   <time name="total">    0.89    0.89</time>
   <energy>
    <i name="e_fr_energy">      3.45768543 </i>
    <i name="e_wo_entrp">      3.49638034 </i>
    <i name="e_0_energy">      3.47703288 </i>
   </energy>
  </scstep>
  <scstep>
   <time name="total">    0.90    0.90</time>
   <energy>
    <i name="e_fr_energy">      3.82574093 </i>
    <i name="e_wo_entrp">      3.87521054 </i>
    <i name="e_0_energy">      3.85047574 </i>
   </energy>
  </scstep>
  <scstep>
   <time name="total">    0.89    0.89</time>
   <energy>
    <i name="e_fr_energy">      2.92794062 </i>
    <i name="e_wo_entrp">      2.98985675 </i>
    <i name="e_0_energy">      2.95889868 </i>
   </energy>
  </scstep>
  <scstep>
   <time name="total">    0.90    0.90</time>
   <energy>
    <i name="e_fr_energy">      1.03021470 </i>
    <i name="e_wo_entrp">      1.05843023 </i>
    <i name="e_0_energy">      1.04432247 </i>
   </energy>
  </scstep>
  <scstep>
   <time name="total">    0.90    0.90</time>
   <energy>
    <i name="e_fr_energy">      0.54975293 </i>
    <i name="e_wo_entrp">      0.61134233 </i>
    <i name="e_0_energy">      0.58054763 </i>
   </energy>
  </scstep>
  <scstep>
   <time name="total">    0.89    0.89</time>
   <energy>
    <i name="e_fr_energy">      4.10503621 </i>
    <i name="e_wo_entrp">      4.14990262 </i>
    <i name="e_0_energy">      4.12746942 </i>
   </energy>
  </scstep>
  <scstep>
   <time name="total">    0.90    0.91</time>
   <energy>
    <i name="e_fr_energy">      7.11675257 </i>
    <i name="e_wo_entrp">      7.11675257 </i>
    <i name="e_0_energy">      7.11675257 </i>
   </energy>
  </scstep>
  <scstep>
   <time name="total">    0.89    0.89</time>
   <energy>
    <i name="e_fr_energy">      4.87127350 </i>
    <i name="e_wo_entrp">      4.89358119 </i>
    <i name="e_0_energy">      4.88242735 </i>
   </energy>
  </scstep>
  <scstep>
   <time name="total">    0.90    0.90</time>
   <energy>
    <i name="e_fr_energy">     -0.17495058 </i>
    <i name="e_wo_entrp">     -0.14674651 </i>
    <i name="e_0_energy">     -0.16084854 </i>
   </energy>
  </scstep>
  <scstep>
   <time name="total">    0.89    0.89</time>
   <energy>
    <i name="e_fr_energy">      4.34842449 </i>
    <i name="e_wo_entrp">      4.35145871 </i>
    <i name="e_0_energy">      4.34994160 </i>
   </energy>
  </scstep>
  <scstep>
   <time name="total">    0.89    0.89</time>
   <energy>
    <i name="e_fr_energy">      4.50053137 </i>
    <i name="e_wo_entrp">      4.53372696 </i>
    <i name="e_0_energy">      4.51712916 </i>
   </energy>
  </scstep>
  <scstep>
   <time name="total">    0.89    0.89</time>
   <energy>
    <i name="e_fr_energy">     -0.19045538 </i>
    <i name="e_wo_entrp">     -0.13417396 </i>
    <i name="e_0_energy">     -0.16231467 </i>
   </energy>
  </scstep>
  <scstep>
   <time name="total">    0.91    0.91</time>
   <energy>
    <i name="e_fr_energy">      0.12205763 </i>
    <i name="e_wo_entrp">      0.16061929 </i>
    <i name="e_0_energy">      0.14133846 </i>
   </energy>
  </scstep>
  <scstep>
   <time name="total">    0.89    0.89</time>
   <energy>
    <i name="e_fr_energy">      1.32514875 </i>
    <i name="e_wo_entrp">      1.36460207 </i>
    <i name="e_0_energy">      1.34487541 </i>
   </energy>
  </scstep>
  <scstep>
   <time name="total">    0.89    0.90</time>
   <energy>
    <i name="e_fr_energy">      2.87984174 </i>
    <i name="e_wo_entrp">      2.94425289 </i>
    <i name="e_0_energy">      2.91204731 </i>
   </energy>
  </scstep>
  <scstep>
   <time name="total">    0.90    0.90</time>
   <energy>
    <i name="e_fr_energy">      4.33130878 </i>
    <i name="e_wo_entrp">      4.36069374 </i>
    <i name="e_0_energy">      4.34600126 </i>
   </energy>
  </scstep>
  <scstep>
   <time name="total">    0.90    0.90</time>
   <energy>
    <i name="e_fr_energy">      2.71462953 </i>
    <i name="e_wo_entrp">      2.71525009 </i>
    <i name="e_0_energy">      2.71493981 </i>
   </energy>
  </scstep>
  <scstep>
   <time name="total">    0.89    0.89</time>
   <energy>
    <i name="e_fr_energy">      2.34732397 </i>
    <i name="e_wo_entrp">      2.37552969 </i>
    <i name="e_0_energy">      2.36142683 </i>
   </energy>
  </scstep>
  <scstep>
   <time name="total">    0.90    0.90</time>
   <energy>
    <i name="e_fr_energy">      2.52695438 </i>
    <i name="e_wo_entrp">      2.58715294 </i>
    <i name="e_0_energy">      2.55705366 </i>
   </energy>
  </scstep>
  <scstep>
   <time name="total">    0.90    0.90</time>
   <energy>
    <i name="e_fr_energy">      3.47333679 </i>
    <i name="e_wo_entrp">      3.51957401 </i>
    <i name="e_0_energy">      3.49645540 </i>
   </energy>
  </scstep>
  <scstep>
   <time name="total">    0.89    0.89</time>
   <energy>
    <i name="e_fr_energy">      2.78648255 </i>
    <i name="e_wo_entrp">      2.83090564 </i>
    <i name="e_0_energy">      2.80869409 </i>
   </energy>
  </scstep>
  <scstep>
   <time name="total">    0.89    0.89</time>
   <energy>
    <i name="e_fr_energy">      3.17168407 </i>
    <i name="e_wo_entrp">      3.21042429 </i>
    <i name="e_0_energy">      3.19105418 </i>
   </energy>
  </scstep>
  <scstep>
   <time name="total">    0.89    0.89</time>
   <energy>
    <i name="e_fr_energy">      2.78302984 </i>
    <i name="e_wo_entrp">      2.78367964 </i>
    <i name="e_0_energy">      2.78335474 </i>
   </energy>
  </scstep>
  <scstep>
   <time name="total">    1.29    1.30</time>
   <energy>
    <i name="e_fr_energy">      2.89406057 </i>
    <i name="e_wo_entrp">      2.92226720 </i>
    <i name="e_0_energy">      2.90816388 </i>
   </energy>
  </scstep>
  <scstep>
   <time name="total">    0.92    0.93</time>
   <energy>
    <i name="e_fr_energy">      2.67309849 </i>
    <i name="e_wo_entrp">      2.67310771 </i>
    <i name="e_0_energy">      2.67310310 </i>
   </energy>
  </scstep>
  <scstep>
   <time name="total">    0.89    0.89</time>
   <energy>
    <i name="e_fr_energy">      2.68935585 </i>
    <i name="e_wo_entrp">      2.71755739 </i>
    <i name="e_0_energy">      2.70345662 </i>
   </energy>
  </scstep>
  <scstep>
   <time name="total">    0.89    0.89</time>
   <energy>
    <i name="e_fr_energy">      2.60139586 </i>
    <i name="e_wo_entrp">      2.60291798 </i>
    <i name="e_0_energy">      2.60215692 </i>
   </energy>
  </scstep>
  <scstep>
   <time name="total">    0.90    0.90</time>
   <energy>
    <i name="e_fr_energy">      2.68506391 </i>
    <i name="e_wo_entrp">      2.71326100 </i>
    <i name="e_0_energy">      2.69916246 </i>
   </energy>
  </scstep>
  <scstep>
   <time name="total">    0.90    0.90</time>
   <energy>
    <i name="e_fr_energy">      2.55619539 </i>
    <i name="e_wo_entrp">      2.57874965 </i>
    <i name="e_0_energy">      2.56747252 </i>
   </energy>
  </scstep>
  <scstep>
   <time name="total">    0.90    0.90</time>
   <energy>
    <i name="e_fr_energy">      1.33739335 </i>
    <i name="e_wo_entrp">      1.36559071 </i>
    <i name="e_0_energy">      1.35149203 </i>
   </energy>
  </scstep>
  <scstep>
   <time name="total">    0.90    0.90</time>
   <energy>
    <i name="e_fr_energy">      1.10808678 </i>
    <i name="e_wo_entrp">      1.13004361 </i>
    <i name="e_0_energy">      1.11906519 </i>
   </energy>
  </scstep>
  <scstep>
   <time name="total">    0.92    0.92</time>
   <energy>
    <i name="e_fr_energy">      1.72327078 </i>
    <i name="e_wo_entrp">      1.75146963 </i>
    <i name="e_0_energy">      1.73737021 </i>
   </energy>
  </scstep>
  <scstep>
   <time name="total">    0.89    0.89</time>
   <energy>
    <i name="e_fr_energy">      1.71598385 </i>
    <i name="e_wo_entrp">      1.75452646 </i>
    <i name="e_0_energy">      1.73525515 </i>
   </energy>
  </scstep>
  <scstep>
   <time name="total">    0.90    0.90</time>
   <energy>
    <i name="e_fr_energy">     -0.43190205 </i>
    <i name="e_wo_entrp">     -0.40247927 </i>
    <i name="e_0_energy">     -0.41719066 </i>
   </energy>
  </scstep>
  <scstep>
   <time name="total">    0.89    0.89</time>
   <energy>
    <i name="e_fr_energy">     -0.62191795 </i>
    <i name="e_wo_entrp">     -0.61432452 </i>
    <i name="e_0_energy">     -0.61812124 </i>
   </energy>
  </scstep>
  <scstep>
   <time name="total">    0.89    0.89</time>
   <energy>
    <i name="e_fr_energy">      3.00614420 </i>
    <i name="e_wo_entrp">      3.04389227 </i>
    <i name="e_0_energy">      3.02501823 </i>
   </energy>
  </scstep>
  <scstep>
   <time name="total">    0.89    0.90</time>
   <energy>
    <i name="e_fr_energy">      7.11208091 </i>
    <i name="e_wo_entrp">      7.11208323 </i>
    <i name="e_0_energy">      7.11208207 </i>
   </energy>
  </scstep>
  <scstep>
   <time name="total">    0.90    0.90</time>
   <energy>
    <i name="e_fr_energy">      3.99467867 </i>
    <i name="e_wo_entrp">      4.02287824 </i>
    <i name="e_0_energy">      4.00877846 </i>
   </energy>
  </scstep>
  <scstep>
   <time name="total">    0.89    0.90</time>
   <energy>
    <i name="e_fr_energy">      2.11816099 </i>
    <i name="e_wo_entrp">      2.15311761 </i>
    <i name="e_0_energy">      2.13563930 </i>
   </energy>
  </scstep>
  <scstep>
   <time name="total">    0.89    0.89</time>
   <energy>
    <i name="e_fr_energy">     -0.44922969 </i>
    <i name="e_wo_entrp">     -0.44795129 </i>
    <i name="e_0_energy">     -0.44859049 </i>
   </energy>
  </scstep>
  <scstep>
   <time name="total">    0.89    0.89</time>
   <energy>
    <i name="e_fr_energy">      3.60213398 </i>
    <i name="e_wo_entrp">      3.63033922 </i>
    <i name="e_0_energy">      3.61623660 </i>
   </energy>
  </scstep>
  <scstep>
   <time name="total">    0.89    0.89</time>
   <energy>
    <i name="e_fr_energy">      5.16169001 </i>
    <i name="e_wo_entrp">      5.20766279 </i>
    <i name="e_0_energy">      5.18467640 </i>
   </energy>
  </scstep>
  <scstep>
   <time name="total">    0.90    0.90</time>
   <energy>
    <i name="e_fr_energy">     -0.31921883 </i>
    <i name="e_wo_entrp">     -0.28757990 </i>
    <i name="e_0_energy">     -0.30339936 </i>
   </energy>
  </scstep>
  <scstep>
   <time name="total">    0.89    0.89</time>
   <energy>
    <i name="e_fr_energy">      3.06948466 </i>
    <i name="e_wo_entrp">      3.09769262 </i>
    <i name="e_0_energy">      3.08358864 </i>
   </energy>
  </scstep>
  <scstep>
   <time name="total">    0.89    0.89</time>
   <energy>
    <i name="e_fr_energy">      3.98934176 </i>
    <i name="e_wo_entrp">      4.01770762 </i>
    <i name="e_0_energy">      4.00352469 </i>
   </energy>
  </scstep>
  <scstep>
   <time name="total">    0.89    0.89</time>
   <energy>
    <i name="e_fr_energy">      1.84832297 </i>
    <i name="e_wo_entrp">      1.87683117 </i>
    <i name="e_0_energy">      1.86257707 </i>
   </energy>
  </scstep>
  <scstep>
   <time name="total">    0.94    0.94</time>
   <energy>
    <i name="e_fr_energy">      1.42472989 </i>
    <i name="e_wo_entrp">      1.44169521 </i>
    <i name="e_0_energy">      1.43321255 </i>
   </energy>
  </scstep>
  <scstep>
   <time name="total">    0.90    0.90</time>
   <energy>
    <i name="e_fr_energy">      3.79587217 </i>
    <i name="e_wo_entrp">      3.83275835 </i>
    <i name="e_0_energy">      3.81431526 </i>
   </energy>
  </scstep>
  <scstep>
   <time name="total">    0.91    0.93</time>
   <energy>
    <i name="e_fr_energy">      3.38370343 </i>
    <i name="e_wo_entrp">      3.41317503 </i>
    <i name="e_0_energy">      3.39843923 </i>
   </energy>
  </scstep>
  <scstep>
   <time name="total">    0.90    0.90</time>
   <energy>
    <i name="e_fr_energy">      2.57658475 </i>
    <i name="e_wo_entrp">      2.59642187 </i>
    <i name="e_0_energy">      2.58650331 </i>
   </energy>
  </scstep>
  <scstep>
   <time name="total">    0.89    0.89</time>
   <energy>
    <i name="e_fr_energy">      2.20842474 </i>
    <i name="e_wo_entrp">      2.22082323 </i>
    <i name="e_0_energy">      2.21462398 </i>
   </energy>
  </scstep>
  <scstep>
   <time name="total">    0.89    0.89</time>
   <energy>
    <i name="e_fr_energy">      3.17722647 </i>
    <i name="e_wo_entrp">      3.20539360 </i>
    <i name="e_0_energy">      3.19131004 </i>
   </energy>
  </scstep>
  <scstep>
   <time name="total">    0.89    0.90</time>
   <energy>
    <i name="e_fr_energy">      2.75407713 </i>
    <i name="e_wo_entrp">      2.78709654 </i>
    <i name="e_0_energy">      2.77058683 </i>
   </energy>
  </scstep>
  <scstep>
   <time name="total">    0.89    0.89</time>
   <energy>
    <i name="e_fr_energy">      2.62865589 </i>
    <i name="e_wo_entrp">      2.66121576 </i>
    <i name="e_0_energy">      2.64493583 </i>
   </energy>
  </scstep>
  <scstep>
   <time name="total">    0.89    0.89</time>
   <energy>
    <i name="e_fr_energy">      2.22360287 </i>
    <i name="e_wo_entrp">      2.25497980 </i>
    <i name="e_0_energy">      2.23929133 </i>
   </energy>
  </scstep>
  <scstep>
   <time name="total">    0.86    0.86</time>
   <energy>
    <i name="e_fr_energy">      2.74967152 </i>
    <i name="e_wo_entrp">      2.77787760 </i>
    <i name="e_0_energy">      2.76377456 </i>
   </energy>
  </scstep>
  <scstep>
   <time name="total">    0.89    0.89</time>
   <energy>
    <i name="e_fr_energy">      2.27799082 </i>
    <i name="e_wo_entrp">      2.30619713 </i>
    <i name="e_0_energy">      2.29209397 </i>
   </energy>
  </scstep>
  <scstep>
   <time name="total">    0.89    0.89</time>
   <energy>
    <i name="e_fr_energy">      3.07001837 </i>
    <i name="e_wo_entrp">      3.10600862 </i>
    <i name="e_0_energy">      3.08801349 </i>
   </energy>
  </scstep>
  <scstep>
   <time name="total">    0.89    0.89</time>
   <energy>
    <i name="e_fr_energy">      3.84333977 </i>
    <i name="e_wo_entrp">      3.87154666 </i>
    <i name="e_0_energy">      3.85744322 </i>
   </energy>
  </scstep>
  <scstep>
   <time name="total">    0.90    0.90</time>
   <energy>
    <i name="e_fr_energy">      4.89347892 </i>
    <i name="e_wo_entrp">      4.92174760 </i>
    <i name="e_0_energy">      4.90761326 </i>
   </energy>
  </scstep>
  <scstep>
   <time name="total">    0.89    0.89</time>
   <energy>
    <i name="e_fr_energy">      2.97059897 </i>
    <i name="e_wo_entrp">      2.99897088 </i>
    <i name="e_0_energy">      2.98478492 </i>
   </energy>
  </scstep>
  <scstep>
   <time name="total">    0.89    0.89</time>
   <energy>
    <i name="e_fr_energy">      2.81252371 </i>
    <i name="e_wo_entrp">      2.81256737 </i>
    <i name="e_0_energy">      2.81254554 </i>
   </energy>
  </scstep>
  <scstep>
   <time name="total">    0.89    0.89</time>
   <energy>
    <i name="e_fr_energy">      2.45000846 </i>
    <i name="e_wo_entrp">      2.46239150 </i>
    <i name="e_0_energy">      2.45619998 </i>
   </energy>
  </scstep>
  <scstep>
   <time name="total">    0.89    0.89</time>
   <energy>
    <i name="e_fr_energy">     -0.50677352 </i>
    <i name="e_wo_entrp">     -0.50603394 </i>
    <i name="e_0_energy">     -0.50640373 </i>
   </energy>
  </scstep>
  <scstep>
   <time name="total">    0.91    0.91</time>
   <energy>
    <i name="e_fr_energy">      5.25997727 </i>
    <i name="e_wo_entrp">      5.27501717 </i>
    <i name="e_0_energy">      5.26749722 </i>
   </energy>
  </scstep>
  <scstep>
   <time name="total">    0.89    0.89</time>
   <energy>
    <i name="e_fr_energy">     19.88807556 </i>
    <i name="e_wo_entrp">     19.91511933 </i>
    <i name="e_0_energy">     19.90159745 </i>
   </energy>
  </scstep>
  <scstep>
   <time name="total">    0.89    0.89</time>
   <energy>
    <i name="e_fr_energy">     11.53281486 </i>
    <i name="e_wo_entrp">     11.53401225 </i>
    <i name="e_0_energy">     11.53341355 </i>
   </energy>
  </scstep>
  <scstep>
   <time name="total">    0.89    0.89</time>
   <energy>
    <i name="e_fr_energy">      0.56965131 </i>
    <i name="e_wo_entrp">      0.59792794 </i>
    <i name="e_0_energy">      0.58378962 </i>
   </energy>
  </scstep>
  <scstep>
   <time name="total">    0.90    0.90</time>
   <energy>
    <i name="e_fr_energy">      8.78269665 </i>
    <i name="e_wo_entrp">      8.81100747 </i>
    <i name="e_0_energy">      8.79685206 </i>
   </energy>
  </scstep>
  <scstep>
   <time name="total">    0.89    0.89</time>
   <energy>
    <i name="e_fr_energy">      3.94815718 </i>
    <i name="e_wo_entrp">      3.97629945 </i>
    <i name="e_0_energy">      3.96222832 </i>
   </energy>
  </scstep>
  <scstep>
   <time name="total">    0.89    0.89</time>
   <energy>
    <i name="e_fr_energy">      1.09430878 </i>
    <i name="e_wo_entrp">      1.09430878 </i>
    <i name="e_0_energy">      1.09430878 </i>
   </energy>
  </scstep>
  <scstep>
   <time name="total">    0.89    0.90</time>
   <energy>
    <i name="e_fr_energy">      5.34493785 </i>
    <i name="e_wo_entrp">      5.38892885 </i>
    <i name="e_0_energy">      5.36693335 </i>
   </energy>
  </scstep>
  <scstep>
   <time name="total">    0.89    0.89</time>
   <energy>
    <i name="e_fr_energy">      4.17839766 </i>
    <i name="e_wo_entrp">      4.18846008 </i>
    <i name="e_0_energy">      4.18342887 </i>
   </energy>
  </scstep>
  <scstep>
   <time name="total">    0.89    0.89</time>
   <energy>
    <i name="e_fr_energy">      2.12688866 </i>
    <i name="e_wo_entrp">      2.16676248 </i>
    <i name="e_0_energy">      2.14682557 </i>
   </energy>
  </scstep>
  <scstep>
   <time name="total">    0.89    0.89</time>
   <energy>
    <i name="e_fr_energy">      3.06121649 </i>
    <i name="e_wo_entrp">      3.08941449 </i>
    <i name="e_0_energy">      3.07531549 </i>
   </energy>
  </scstep>
  <scstep>
   <time name="total">    0.90    0.90</time>
   <energy>
    <i name="e_fr_energy">      2.93490871 </i>
    <i name="e_wo_entrp">      2.96593578 </i>
    <i name="e_0_energy">      2.95042224 </i>
   </energy>
  </scstep>
  <scstep>
   <time name="total">    0.89    0.89</time>
   <energy>
    <i name="e_fr_energy">      3.40141833 </i>
    <i name="e_wo_entrp">      3.42962767 </i>
    <i name="e_0_energy">      3.41552300 </i>
   </energy>
  </scstep>
  <scstep>
   <time name="total">    0.89    0.89</time>
   <energy>
    <i name="e_fr_energy">      2.74320685 </i>
    <i name="e_wo_entrp">      2.74608753 </i>
    <i name="e_0_energy">      2.74464719 </i>
   </energy>
  </scstep>
  <scstep>
   <time name="total">    0.89    0.89</time>
   <energy>
    <i name="e_fr_energy">      2.88759001 </i>
    <i name="e_wo_entrp">      2.91639340 </i>
    <i name="e_0_energy">      2.90199170 </i>
   </energy>
  </scstep>
  <scstep>
   <time name="total">    0.89    0.89</time>
   <energy>
    <i name="e_fr_energy">      2.68289257 </i>
    <i name="e_wo_entrp">      2.71234791 </i>
    <i name="e_0_energy">      2.69762024 </i>
   </energy>
  </scstep>
  <scstep>
   <time name="total">    0.89    0.90</time>
   <energy>
    <i name="e_fr_energy">      2.93570146 </i>
    <i name="e_wo_entrp">      2.96785334 </i>
    <i name="e_0_energy">      2.95177740 </i>
   </energy>
  </scstep>
  <scstep>
   <time name="total">    0.90    0.91</time>
   <energy>
    <i name="e_fr_energy">      2.63871458 </i>
    <i name="e_wo_entrp">      2.65063441 </i>
    <i name="e_0_energy">      2.64467449 </i>
   </energy>
  </scstep>
  <scstep>
   <time name="total">    0.89    0.89</time>
   <energy>
    <i name="e_fr_energy">      2.82865691 </i>
    <i name="e_wo_entrp">      2.85686065 </i>
    <i name="e_0_energy">      2.84275878 </i>
   </energy>
  </scstep>
  <scstep>
   <time name="total">    0.90    0.90</time>
   <energy>
    <i name="e_fr_energy">      2.63872740 </i>
    <i name="e_wo_entrp">      2.64939932 </i>
    <i name="e_0_energy">      2.64406336 </i>
   </energy>
  </scstep>
  <scstep>
   <time name="total">    0.90    0.90</time>
   <energy>
    <i name="e_fr_energy">      3.42982340 </i>
    <i name="e_wo_entrp">      3.45803283 </i>
    <i name="e_0_energy">      3.44392811 </i>
   </energy>
  </scstep>
  <scstep>
   <time name="total">    0.90    0.90</time>
   <energy>
    <i name="e_fr_energy">      2.92495216 </i>
    <i name="e_wo_entrp">      2.93963109 </i>
    <i name="e_0_energy">      2.93229162 </i>
   </energy>
  </scstep>
  <scstep>
   <time name="total">    0.89    0.89</time>
   <energy>
    <i name="e_fr_energy">      2.91595724 </i>
    <i name="e_wo_entrp">      2.94626722 </i>
    <i name="e_0_energy">      2.93111223 </i>
   </energy>
  </scstep>
  <scstep>
   <time name="total">    0.89    0.89</time>
   <energy>
    <i name="e_fr_energy">      2.47350895 </i>
    <i name="e_wo_entrp">      2.51687921 </i>
    <i name="e_0_energy">      2.49519408 </i>
   </energy>
  </scstep>
  <scstep>
   <time name="total">    0.90    0.90</time>
   <energy>
    <i name="e_fr_energy">      3.00477967 </i>
    <i name="e_wo_entrp">      3.04873233 </i>
    <i name="e_0_energy">      3.02675600 </i>
   </energy>
  </scstep>
  <scstep>
   <time name="total">    0.89    0.89</time>
   <energy>
    <i name="e_fr_energy">      2.76974566 </i>
    <i name="e_wo_entrp">      2.82163768 </i>
    <i name="e_0_energy">      2.79569167 </i>
   </energy>
  </scstep>
  <scstep>
   <time name="total">    0.89    0.89</time>
   <energy>
    <i name="e_fr_energy">      3.39666565 </i>
    <i name="e_wo_entrp">      3.42492841 </i>
    <i name="e_0_energy">      3.41079703 </i>
   </energy>
  </scstep>
  <scstep>
   <time name="total">    0.90    0.90</time>
   <energy>
    <i name="e_fr_energy">      2.71247699 </i>
    <i name="e_wo_entrp">      2.71286086 </i>
    <i name="e_0_energy">      2.71266892 </i>
   </energy>
  </scstep>
  <scstep>
   <time name="total">    0.90    0.90</time>
   <energy>
    <i name="e_fr_energy">      2.71924730 </i>
    <i name="e_wo_entrp">      2.74748105 </i>
    <i name="e_0_energy">      2.73336418 </i>
   </energy>
  </scstep>
  <scstep>
   <time name="total">    0.89    0.89</time>
   <energy>
    <i name="e_fr_energy">      2.64274892 </i>
    <i name="e_wo_entrp">      2.69886810 </i>
    <i name="e_0_energy">      2.67080851 </i>
   </energy>
  </scstep>
  <scstep>
   <time name="total">    0.89    0.89</time>
   <energy>
    <i name="e_fr_energy">      3.52910099 </i>
    <i name="e_wo_entrp">      3.55732611 </i>
    <i name="e_0_energy">      3.54321355 </i>
   </energy>
  </scstep>
  <scstep>
   <time name="total">    0.90    0.90</time>
   <energy>
    <i name="e_fr_energy">      2.85128934 </i>
    <i name="e_wo_entrp">      2.85129884 </i>
    <i name="e_0_energy">      2.85129409 </i>
   </energy>
  </scstep>
  <scstep>
   <time name="total">    0.89    0.89</time>
   <energy>
    <i name="e_fr_energy">      2.78095531 </i>
    <i name="e_wo_entrp">      2.80916529 </i>
    <i name="e_0_energy">      2.79506030 </i>
   </energy>
  </scstep>
  <scstep>
   <time name="total">    0.89    0.89</time>
   <energy>
    <i name="e_fr_energy">      2.68048464 </i>
    <i name="e_wo_entrp">      2.68210199 </i>
    <i name="e_0_energy">      2.68129332 </i>
   </energy>
  </scstep>
  <scstep>
   <time name="total">    0.89    0.89</time>
   <energy>
    <i name="e_fr_energy">      2.79161321 </i>
    <i name="e_wo_entrp">      2.81981257 </i>
    <i name="e_0_energy">      2.80571289 </i>
   </energy>
  </scstep>
  <scstep>
   <time name="total">    0.89    0.89</time>
   <energy>
    <i name="e_fr_energy">      2.67585879 </i>
    <i name="e_wo_entrp">      2.67616268 </i>
    <i name="e_0_energy">      2.67601073 </i>
   </energy>
  </scstep>
  <scstep>
   <time name="total">    0.89    0.89</time>
   <energy>
    <i name="e_fr_energy">      3.42226680 </i>
    <i name="e_wo_entrp">      3.45048731 </i>
    <i name="e_0_energy">      3.43637706 </i>
   </energy>
  </scstep>
  <scstep>
   <time name="total">    0.90    0.90</time>
   <energy>
    <i name="e_fr_energy">      2.96596275 </i>
    <i name="e_wo_entrp">      3.00162343 </i>
    <i name="e_0_energy">      2.98379309 </i>
   </energy>
  </scstep>
  <scstep>
   <time name="total">    0.89    0.89</time>
   <energy>
    <i name="e_fr_energy">      3.11448695 </i>
    <i name="e_wo_entrp">      3.14284243 </i>
    <i name="e_0_energy">      3.12866469 </i>
   </energy>
  </scstep>
  <scstep>
   <time name="total">    0.89    0.89</time>
   <energy>
    <i name="e_fr_energy">      2.66146838 </i>
    <i name="e_wo_entrp">      2.71378952 </i>
    <i name="e_0_energy">      2.68762895 </i>
   </energy>
  </scstep>
  <scstep>
   <time name="total">    0.90    0.90</time>
   <energy>
    <i name="e_fr_energy">      3.53026797 </i>
    <i name="e_wo_entrp">      3.55918060 </i>
    <i name="e_0_energy">      3.54472428 </i>
   </energy>
  </scstep>
  <scstep>
   <time name="total">    0.90    0.90</time>
   <energy>
    <i name="e_fr_energy">      2.80643891 </i>
    <i name="e_wo_entrp">      2.80645145 </i>
    <i name="e_0_energy">      2.80644518 </i>
   </energy>
  </scstep>
  <scstep>
   <time name="total">    0.87    0.87</time>
   <energy>
    <i name="e_fr_energy">      2.72195200 </i>
    <i name="e_wo_entrp">      2.72210231 </i>
    <i name="e_0_energy">      2.72202716 </i>
   </energy>
  </scstep>
  <scstep>
   <time name="total">    0.90    0.90</time>
   <energy>
    <i name="e_fr_energy">      0.00025163 </i>
    <i name="e_wo_entrp">      0.03629356 </i>
    <i name="e_0_energy">      0.01827260 </i>
   </energy>
  </scstep>
  <scstep>
   <time name="total">    0.90    0.90</time>
   <energy>
    <i name="e_fr_energy">     12.42999853 </i>
    <i name="e_wo_entrp">     12.46676432 </i>
    <i name="e_0_energy">     12.44838143 </i>
   </energy>
  </scstep>
  <scstep>
   <time name="total">    0.89    0.89</time>
   <energy>
    <i name="e_fr_energy">     11.46024761 </i>
    <i name="e_wo_entrp">     11.46199768 </i>
    <i name="e_0_energy">     11.46112265 </i>
   </energy>
  </scstep>
  <scstep>
   <time name="total">    0.89    0.89</time>
   <energy>
    <i name="e_fr_energy">      0.74149464 </i>
    <i name="e_wo_entrp">      0.75973756 </i>
    <i name="e_0_energy">      0.75061610 </i>
   </energy>
  </scstep>
  <scstep>
   <time name="total">    0.89    0.89</time>
   <energy>
    <i name="e_fr_energy">     23.48239007 </i>
    <i name="e_wo_entrp">     23.48243828 </i>
    <i name="e_0_energy">     23.48241417 </i>
   </energy>
  </scstep>
  <scstep>
   <time name="total">    0.90    0.90</time>
   <energy>
    <i name="e_fr_energy">     13.55445612 </i>
    <i name="e_wo_entrp">     13.55445612 </i>
    <i name="e_0_energy">     13.55445612 </i>
   </energy>
  </scstep>
  <scstep>
   <time name="total">    0.89    0.89</time>
   <energy>
    <i name="e_fr_energy">      0.81731603 </i>
    <i name="e_wo_entrp">      0.87233497 </i>
    <i name="e_0_energy">      0.84482550 </i>
   </energy>
  </scstep>
  <scstep>
   <time name="total">    0.89    0.90</time>
   <energy>
    <i name="e_fr_energy">      2.30977254 </i>
    <i name="e_wo_entrp">      2.34685390 </i>
    <i name="e_0_energy">      2.32831322 </i>
   </energy>
  </scstep>
  <scstep>
   <time name="total">    0.93    0.93</time>
   <energy>
    <i name="e_fr_energy">      1.71030225 </i>
    <i name="e_wo_entrp">      1.71047998 </i>
    <i name="e_0_energy">      1.71039112 </i>
   </energy>
  </scstep>
  <scstep>
   <time name="total">    0.92    0.92</time>
   <energy>
    <i name="e_fr_energy">      2.57586543 </i>
    <i name="e_wo_entrp">      2.60407557 </i>
    <i name="e_0_energy">      2.58997050 </i>
   </energy>
  </scstep>
  <scstep>
   <time name="total">    0.89    0.89</time>
   <energy>
    <i name="e_fr_energy">      1.98741149 </i>
    <i name="e_wo_entrp">      1.99515274 </i>
    <i name="e_0_energy">      1.99128212 </i>
   </energy>
  </scstep>
  <scstep>
   <time name="total">    0.89    0.89</time>
   <energy>
    <i name="e_fr_energy">      3.15766307 </i>
    <i name="e_wo_entrp">      3.18586908 </i>
    <i name="e_0_energy">      3.17176607 </i>
   </energy>
  </scstep>
  <scstep>
   <time name="total">    0.89    0.89</time>
   <energy>
    <i name="e_fr_energy">      2.82422130 </i>
    <i name="e_wo_entrp">      2.85982874 </i>
    <i name="e_0_energy">      2.84202502 </i>
   </energy>
  </scstep>
  <scstep>
   <time name="total">    0.90    0.90</time>
   <energy>
    <i name="e_fr_energy">      2.72084233 </i>
    <i name="e_wo_entrp">      2.75798511 </i>
    <i name="e_0_energy">      2.73941372 </i>
   </energy>
  </scstep>
  <scstep>
   <time name="total">    0.89    0.89</time>
   <energy>
    <i name="e_fr_energy">      2.45609459 </i>
    <i name="e_wo_entrp">      2.48136493 </i>
    <i name="e_0_energy">      2.46872976 </i>
   </energy>
  </scstep>
  <scstep>
   <time name="total">    0.90    0.90</time>
   <energy>
    <i name="e_fr_energy">      2.99734845 </i>
    <i name="e_wo_entrp">      3.02555327 </i>
    <i name="e_0_energy">      3.01145086 </i>
   </energy>
  </scstep>
  <scstep>
   <time name="total">    0.90    0.90</time>
   <energy>
    <i name="e_fr_energy">      2.59871319 </i>
    <i name="e_wo_entrp">      2.60176995 </i>
    <i name="e_0_energy">      2.60024157 </i>
   </energy>
  </scstep>
  <scstep>
   <time name="total">    0.90    0.90</time>
   <energy>
    <i name="e_fr_energy">      3.28199640 </i>
    <i name="e_wo_entrp">      3.31020587 </i>
    <i name="e_0_energy">      3.29610114 </i>
   </energy>
  </scstep>
  <scstep>
   <time name="total">    0.89    0.89</time>
   <energy>
    <i name="e_fr_energy">      2.80091230 </i>
    <i name="e_wo_entrp">      2.83624587 </i>
    <i name="e_0_energy">      2.81857908 </i>
   </energy>
  </scstep>
  <scstep>
   <time name="total">    0.89    0.89</time>
   <energy>
    <i name="e_fr_energy">      3.10516242 </i>
    <i name="e_wo_entrp">      3.13337017 </i>
    <i name="e_0_energy">      3.11926630 </i>
   </energy>
  </scstep>
  <scstep>
   <time name="total">    0.89    0.89</time>
   <energy>
    <i name="e_fr_energy">      2.60569453 </i>
    <i name="e_wo_entrp">      2.65749327 </i>
    <i name="e_0_energy">      2.63159390 </i>
   </energy>
  </scstep>
  <scstep>
   <time name="total">    0.90    0.90</time>
   <energy>
    <i name="e_fr_energy">      3.45286794 </i>
    <i name="e_wo_entrp">      3.48107745 </i>
    <i name="e_0_energy">      3.46697270 </i>
   </energy>
  </scstep>
  <scstep>
   <time name="total">    0.90    0.90</time>
   <energy>
    <i name="e_fr_energy">      2.76891425 </i>
    <i name="e_wo_entrp">      2.76894141 </i>
    <i name="e_0_energy">      2.76892783 </i>
   </energy>
  </scstep>
  <scstep>
   <time name="total">    0.90    0.90</time>
   <energy>
    <i name="e_fr_energy">      2.78951021 </i>
    <i name="e_wo_entrp">      2.82657630 </i>
    <i name="e_0_energy">      2.80804326 </i>
   </energy>
  </scstep>
  <scstep>
   <time name="total">    0.90    0.90</time>
   <energy>
    <i name="e_fr_energy">      1.38090494 </i>
    <i name="e_wo_entrp">      1.38303025 </i>
    <i name="e_0_energy">      1.38196759 </i>
   </energy>
  </scstep>
  <scstep>
   <time name="total">    0.90    0.90</time>
   <energy>
    <i name="e_fr_energy">      1.42646669 </i>
    <i name="e_wo_entrp">      1.45466708 </i>
    <i name="e_0_energy">      1.44056689 </i>
   </energy>
  </scstep>
  <scstep>
   <time name="total">    0.89    0.89</time>
   <energy>
    <i name="e_fr_energy">      2.50839504 </i>
    <i name="e_wo_entrp">      2.51200123 </i>
    <i name="e_0_energy">      2.51019813 </i>
   </energy>
  </scstep>
  <scstep>
   <time name="total">    0.89    0.89</time>
   <energy>
    <i name="e_fr_energy">      4.03766256 </i>
    <i name="e_wo_entrp">      4.06587202 </i>
    <i name="e_0_energy">      4.05176729 </i>
   </energy>
  </scstep>
  <scstep>
   <time name="total">    0.89    0.89</time>
   <energy>
    <i name="e_fr_energy">      3.03623053 </i>
    <i name="e_wo_entrp">      3.03891928 </i>
    <i name="e_0_energy">      3.03757491 </i>
   </energy>
  </scstep>
  <scstep>
   <time name="total">    0.90    0.90</time>
   <energy>
    <i name="e_fr_energy">      2.52182074 </i>
    <i name="e_wo_entrp">      2.55992382 </i>
    <i name="e_0_energy">      2.54087228 </i>
   </energy>
  </scstep>
  <scstep>
   <time name="total">    0.89    0.89</time>
   <energy>
    <i name="e_fr_energy">      0.31106208 </i>
    <i name="e_wo_entrp">      0.31228492 </i>
    <i name="e_0_energy">      0.31167350 </i>
   </energy>
  </scstep>
  <scstep>
   <time name="total">    0.89    0.89</time>
   <energy>
    <i name="e_fr_energy">      0.50193388 </i>
    <i name="e_wo_entrp">      0.53012991 </i>
    <i name="e_0_energy">      0.51603189 </i>
   </energy>
  </scstep>
  <scstep>
   <time name="total">    0.89    0.90</time>
   <energy>
    <i name="e_fr_energy">      2.59392069 </i>
    <i name="e_wo_entrp">      2.63891692 </i>
    <i name="e_0_energy">      2.61641880 </i>
   </energy>
  </scstep>
  <scstep>
   <time name="total">    0.89    0.89</time>
   <energy>
    <i name="e_fr_energy">      4.81556292 </i>
    <i name="e_wo_entrp">      4.84377481 </i>
    <i name="e_0_energy">      4.82966886 </i>
   </energy>
  </scstep>
  <scstep>
   <time name="total">    0.89    0.89</time>
   <energy>
    <i name="e_fr_energy">      3.04425993 </i>
    <i name="e_wo_entrp">      3.04426001 </i>
    <i name="e_0_energy">      3.04425997 </i>
   </energy>
  </scstep>
  <scstep>
   <time name="total">    0.89    0.89</time>
   <energy>
    <i name="e_fr_energy">      2.21806083 </i>
    <i name="e_wo_entrp">      2.24166417 </i>
    <i name="e_0_energy">      2.22986250 </i>
   </energy>
  </scstep>
  <scstep>
   <time name="total">    0.90    0.90</time>
   <energy>
    <i name="e_fr_energy">     -0.28795876 </i>
    <i name="e_wo_entrp">     -0.25976226 </i>
    <i name="e_0_energy">     -0.27386051 </i>
   </energy>
  </scstep>
  <scstep>
   <time name="total">    0.89    0.89</time>
   <energy>
    <i name="e_fr_energy">      3.10184479 </i>
    <i name="e_wo_entrp">      3.10191247 </i>
    <i name="e_0_energy">      3.10187863 </i>
   </energy>
  </scstep>
  <scstep>
   <time name="total">    0.89    0.89</time>
   <energy>
    <i name="e_fr_energy">      4.71067971 </i>
    <i name="e_wo_entrp">      4.73966566 </i>
    <i name="e_0_energy">      4.72517269 </i>
   </energy>
[...]
        <r>    -5.8083     0.0000     0.0000     0.0000     0.0000     0.0000     0.0000     0.0000     0.0000     0.0000 </r>
        <r>    -5.4877     0.0000     0.0000     0.0000     0.0000     0.0000     0.0000     0.0000     0.0000     0.0000 </r>
        <r>    -5.1672     0.0000     0.0000     0.0000     0.0000     0.0000     0.0000     0.0000     0.0000     0.0000 </r>
        <r>    -4.8466     0.0000     0.0000     0.0000     0.0000     0.0000     0.0000     0.0000     0.0000     0.0000 </r>
        <r>    -4.5260     0.0000     0.0000     0.0000     0.0000     0.0000     0.0000     0.0000     0.0000     0.0000 </r>
        <r>    -4.2054     0.0000     0.0000     0.0000     0.0000     0.0000     0.0000     0.0000     0.0000     0.0000 </r>
        <r>    -3.8848     0.0000     0.0000     0.0000     0.0000     0.0000     0.0000     0.0000     0.0000     0.0000 </r>
        <r>    -3.5642     0.0000     0.0000     0.0000     0.0000     0.0000     0.0000     0.0000     0.0000     0.0000 </r>
        <r>    -3.2437     0.0000     0.0000     0.0000     0.0000     0.0000     0.0000     0.0000     0.0000     0.0000 </r>
        <r>    -2.9231     0.0000     0.0000     0.0000     0.0000     0.0000     0.0000     0.0000     0.0000     0.0000 </r>
        <r>    -2.6025     0.0000     0.0000     0.0000     0.0000     0.0000     0.0000     0.0000     0.0000     0.0000 </r>
        <r>    -2.2819     0.0000     0.0000     0.0000     0.0000     0.0000     0.0000     0.0000     0.0000     0.0000 </r>
        <r>    -1.9613     0.0000     0.0029     0.0031     0.0031     0.0000     0.0000     0.0000     0.0000     0.0000 </r>
        <r>    -1.6407     0.0000     0.2831     0.2836     0.2836     0.0000     0.0000     0.0000     0.0000     0.0000 </r>
        <r>    -1.3202     0.0000     0.0000     0.0000     0.0000     0.0000     0.0000     0.0000     0.0000     0.0000 </r>
        <r>    -0.9996     0.0000     0.0000     0.0000     0.0000     0.0000     0.0000     0.0000     0.0000     0.0000 </r>
        <r>    -0.6790     0.0000     0.0000     0.0000     0.0000     0.0000     0.0000     0.0000     0.0000     0.0000 </r>
        <r>    -0.3584     0.0431     0.0000     0.0000     0.0000     0.0000     0.0000     0.0000     0.0000     0.0000 </r>
        <r>    -0.0378     0.0226     0.0000     0.0000     0.0000     0.0000     0.0000     0.0000     0.0000     0.0000 </r>
        <r>     0.2828     0.0000     0.0000     0.0000     0.0000     0.0000     0.0000     0.0000     0.0000     0.0000 </r>
        <r>     0.6033     0.0000     0.0000     0.0000     0.0000     0.0000     0.0000     0.0000     0.0000     0.0000 </r>
        <r>     0.9239     0.0000     0.0000     0.0000     0.0000     0.0000     0.0000     0.0089     0.0000     0.0089 </r>
        <r>     1.2445     0.0000     0.0000     0.0000     0.0000     0.0000     0.0000     0.0005     0.0000     0.0005 </r>
        <r>     1.5651     0.0742     0.0792     0.0796     0.0796     0.0000     0.0000     0.0000     0.0000     0.0000 </r>
        <r>     1.8857     0.0019     0.0000     0.0000     0.0000     0.0222     0.0222     0.0000     0.0222     0.0000 </r>
        <r>     2.2062     0.0000     0.0000     0.0000     0.0000     0.0069     0.0069     0.0000     0.0069     0.0000 </r>
        <r>     2.5268     0.0000     0.0000     0.0000     0.0000     0.0000     0.0000     0.0079     0.0000     0.0079 </r>
        <r>     2.8474     0.0000     0.0000     0.0000     0.0000     0.0000     0.0000     0.0006     0.0000     0.0006 </r>
        <r>     3.1680     0.0000     0.0550     0.0570     0.0570     0.0000     0.0000     0.0000     0.0000     0.0000 </r>
        <r>     3.4886     0.0813     0.0646     0.0636     0.0637     0.0000     0.0000     0.0000     0.0000     0.0000 </r>
        <r>     3.8092     0.0098     0.0000     0.0000     0.0000     0.0163     0.0163     0.0000     0.0163     0.0000 </r>
        <r>     4.1297     0.0000     0.0000     0.0000     0.0000     0.0003     0.0003     0.0000     0.0003     0.0000 </r>
        <r>     4.4503     0.0000     0.0620     0.0036     0.0046     0.0000     0.0000     0.0000     0.0000     0.0000 </r>
        <r>     4.7709     0.0000     0.0000     0.0000     0.0000     0.0000     0.0000     0.0000     0.0000     0.0000 </r>
        <r>     5.0915     0.0000     0.0000     0.0000     0.0000     0.0000     0.0000     0.0000     0.0000     0.0000 </r>
        <r>     5.4121     0.0000     0.0000     0.0000     0.0000     0.0000     0.0000     0.0000     0.0000     0.0000 </r>
        <r>     5.7327     0.0000     0.0000     0.0000     0.0000     0.0000     0.0000     0.0000     0.0000     0.0000 </r>
        <r>     6.0532     0.0000     0.0000     0.0000     0.0000     0.0000     0.0000     0.0000     0.0000     0.0000 </r>
        <r>     6.3738     0.0000     0.0000     0.0000     0.0000     0.0000     0.0000     0.0000     0.0000     0.0000 </r>
        <r>     6.6944     0.0000     0.0000     0.0000     0.0000     0.0000     0.0000     0.0000     0.0000     0.0000 </r>
        <r>     7.0150     0.0000     0.0000     0.0000     0.0000     0.0000     0.0000     0.0000     0.0000     0.0000 </r>
        <r>     7.3356     0.0000     0.0000     0.0000     0.0000     0.0000     0.0000     0.0000     0.0000     0.0000 </r>
        <r>     7.6562     0.0000     0.0000     0.0000     0.0000     0.0000     0.0000     0.0000     0.0000     0.0000 </r>
        <r>     7.9767     0.0000     0.0000     0.0000     0.0000     0.0000     0.0000     0.0000     0.0000     0.0000 </r>
        <r>     8.2973     0.0000     0.0000     0.0000     0.0000     0.0000     0.0000     0.0000     0.0000     0.0000 </r>
        <r>     8.6179     0.0000     0.0000     0.0000     0.0000     0.0000     0.0000     0.0000     0.0000     0.0000 </r>
       </set>
      </set>
     </set>
    </array>
   </partial>
  </dos>
  <projected>
   <eigenvalues>
    <array>
     <dimension dim="1">band</dimension>
     <dimension dim="2">kpoint</dimension>
     <dimension dim="3">spin</dimension>
     <field>eigene</field>
     <field>occ</field>
     <set>
      <set comment="spin 1">
       <set comment="kpoint 1">
        <r>  -81.0846    1.0000 </r>
        <r>  -81.0846    1.0000 </r>
        <r>  -81.0827    1.0000 </r>
        <r>  -17.0723    1.0000 </r>
        <r>  -17.0809    1.0000 </r>
        <r>  -17.0809    1.0000 </r>
        <r>  -16.7265    1.0000 </r>
        <r>  -16.7262    1.0000 </r>
        <r>   -6.8731    0.0000 </r>
        <r>   -1.6457    0.0000 </r>
        <r>   -1.6457    0.0000 </r>
        <r>   -1.6435    0.0000 </r>
        <r>   -0.4266    0.0000 </r>
        <r>    0.7983    0.0000 </r>
        <r>    0.7983    0.0000 </r>
        <r>    1.3437    0.0000 </r>
        <r>    1.3437    0.0000 </r>
        <r>    1.3454    0.0000 </r>
        <r>    1.4823    0.0000 </r>
        <r>    1.8227    0.0000 </r>
        <r>    1.8286    0.0000 </r>
        <r>    1.8286    0.0000 </r>
        <r>    2.4194    0.0000 </r>
        <r>    2.4194    0.0000 </r>
        <r>    2.4482    0.0000 </r>
        <r>    2.4482    0.0000 </r>
        <r>    2.4482    0.0000 </r>
        <r>    3.1966    0.0000 </r>
        <r>    3.1988    0.0000 </r>
        <r>    3.1988    0.0000 </r>
        <r>    3.4682    0.0000 </r>
        <r>    3.6625    0.0000 </r>
        <r>    3.6632    0.0000 </r>
        <r>    3.6632    0.0000 </r>
        <r>    3.6797    0.0000 </r>
        <r>    4.1683    0.0000 </r>
       </set>
      </set>
      <set comment="spin 2">
       <set comment="kpoint 1">
        <r>  -83.1853    1.0000 </r>
        <r>  -83.1853    1.0000 </r>
        <r>  -83.1838    1.0000 </r>
        <r>  -19.2072    1.0000 </r>
        <r>  -19.2071    1.0000 </r>
        <r>  -18.7887    1.0000 </r>
        <r>  -18.7887    1.0000 </r>
        <r>  -18.7887    1.0000 </r>
        <r>   -7.4139    0.0000 </r>
        <r>   -1.8801    0.0000 </r>
        <r>   -1.8801    0.0000 </r>
        <r>   -1.8789    0.0000 </r>
        <r>   -0.3726    0.0000 </r>
        <r>    0.8683    0.0000 </r>
        <r>    0.8683    0.0000 </r>
        <r>    1.3842    0.0000 </r>
        <r>    1.3842    0.0000 </r>
        <r>    1.3851    0.0000 </r>
        <r>    1.4954    0.0000 </r>
        <r>    1.8603    0.0000 </r>
        <r>    1.8603    0.0000 </r>
        <r>    1.8603    0.0000 </r>
        <r>    2.4737    0.0000 </r>
        <r>    2.4737    0.0000 </r>
        <r>    2.5409    0.0000 </r>
        <r>    2.5409    0.0000 </r>
        <r>    2.5409    0.0000 </r>
        <r>    3.1704    0.0000 </r>
        <r>    3.1704    0.0000 </r>
        <r>    3.1717    0.0000 </r>
        <r>    3.4448    0.0000 </r>
        <r>    3.7336    0.0000 </r>
        <r>    3.7336    0.0000 </r>
        <r>    3.7336    0.0000 </r>
        <r>    3.7696    0.0000 </r>
        <r>    4.2463    0.0000 </r>
       </set>
      </set>
     </set>
    </array>
   </eigenvalues>
   <array>
    <dimension dim="1">ion</dimension>
    <dimension dim="2">band</dimension>
    <dimension dim="3">kpoint</dimension>
    <dimension dim="4">spin</dimension>
    <field>    s</field>
    <field>   py</field>
    <field>   pz</field>
    <field>   px</field>
    <field>  dxy</field>
    <field>  dyz</field>
    <field>  dz2</field>
    <field>  dxz</field>
    <field>x2-y2</field>
    <set>
     <set comment="spin1">
      <set comment="kpoint 1">
       <set comment="band 1">
        <r>  0.0000  0.0001  0.0273  0.9694  0.0000  0.0000  0.0000  0.0000  0.0000 </r>
       </set>
       <set comment="band 2">
        <r>  0.0000  0.9947  0.0021  0.0000  0.0000  0.0000  0.0000  0.0000  0.0000 </r>
       </set>
       <set comment="band 3">
        <r>  0.0000  0.0020  0.9674  0.0274  0.0000  0.0000  0.0000  0.0000  0.0000 </r>
       </set>
       <set comment="band 4">
        <r>  0.0000  0.0000  0.0000  0.0000  0.9057  0.0192  0.0000  0.0050  0.0000 </r>
       </set>
       <set comment="band 5">
        <r>  0.0000  0.0000  0.0000  0.0000  0.0032  0.0101  0.0000  0.9171  0.0000 </r>
       </set>
       <set comment="band 6">
        <r>  0.0000  0.0000  0.0000  0.0000  0.0210  0.9010  0.0000  0.0083  0.0000 </r>
       </set>
       <set comment="band 7">
        <r>  0.0000  0.0000  0.0000  0.0000  0.0000  0.0000  0.0085  0.0000  0.9203 </r>
       </set>
       <set comment="band 8">
        <r>  0.0000  0.0000  0.0000  0.0000  0.0000  0.0000  0.9203  0.0000  0.0085 </r>
       </set>
       <set comment="band 9">
        <r>  0.2609  0.0000  0.0000  0.0000  0.0000  0.0000  0.0000  0.0000  0.0000 </r>
       </set>
       <set comment="band 10">
        <r>  0.0000  0.0775  0.0002  0.0000  0.0000  0.0000  0.0000  0.0000  0.0000 </r>
       </set>
       <set comment="band 11">
        <r>  0.0000  0.0000  0.0022  0.0755  0.0000  0.0000  0.0000  0.0000  0.0000 </r>
       </set>
       <set comment="band 12">
        <r>  0.0000  0.0002  0.0749  0.0022  0.0000  0.0000  0.0000  0.0000  0.0000 </r>
       </set>
       <set comment="band 13">
        <r>  0.0215  0.0000  0.0000  0.0000  0.0000  0.0000  0.0000  0.0000  0.0000 </r>
       </set>
       <set comment="band 14">
        <r>  0.0000  0.0000  0.0000  0.0000  0.0000  0.0000  0.0029  0.0000  0.0000 </r>
       </set>
       <set comment="band 15">
        <r>  0.0000  0.0000  0.0000  0.0000  0.0000  0.0000  0.0000  0.0000  0.0029 </r>
       </set>
       <set comment="band 16">
        <r>  0.0000  0.0241  0.0000  0.0000  0.0000  0.0000  0.0000  0.0000  0.0000 </r>
       </set>
       <set comment="band 17">
        <r>  0.0000  0.0000  0.0007  0.0234  0.0000  0.0000  0.0000  0.0000  0.0000 </r>
       </set>
       <set comment="band 18">
        <r>  0.0000  0.0000  0.0231  0.0007  0.0000  0.0000  0.0000  0.0000  0.0000 </r>
       </set>
       <set comment="band 19">
        <r>  0.0249  0.0000  0.0000  0.0000  0.0000  0.0000  0.0000  0.0000  0.0000 </r>
       </set>
       <set comment="band 20">
        <r>  0.0000  0.0000  0.0000  0.0000  0.0087  0.0002  0.0000  0.0000  0.0000 </r>
       </set>
       <set comment="band 21">
        <r>  0.0000  0.0000  0.0000  0.0000  0.0002  0.0082  0.0000  0.0001  0.0000 </r>
       </set>
       <set comment="band 22">
        <r>  0.0000  0.0000  0.0000  0.0000  0.0000  0.0001  0.0000  0.0084  0.0000 </r>
       </set>
       <set comment="band 23">
        <r>  0.0000  0.0000  0.0000  0.0000  0.0000  0.0000  0.0025  0.0000  0.0000 </r>
       </set>
       <set comment="band 24">
        <r>  0.0000  0.0000  0.0000  0.0000  0.0000  0.0000  0.0000  0.0000  0.0025 </r>
       </set>
       <set comment="band 25">
        <r>  0.0000  0.0000  0.0000  0.0000  0.0000  0.0000  0.0000  0.0000  0.0000 </r>
       </set>
       <set comment="band 26">
        <r>  0.0000  0.0000  0.0000  0.0000  0.0000  0.0000  0.0000  0.0000  0.0000 </r>
       </set>
       <set comment="band 27">
        <r>  0.0000  0.0000  0.0000  0.0000  0.0000  0.0000  0.0000  0.0000  0.0000 </r>
       </set>
       <set comment="band 28">
        <r>  0.0000  0.0001  0.0312  0.0009  0.0000  0.0000  0.0000  0.0000  0.0000 </r>
       </set>
       <set comment="band 29">
        <r>  0.0000  0.0323  0.0001  0.0000  0.0000  0.0000  0.0000  0.0000  0.0000 </r>
       </set>
       <set comment="band 30">
        <r>  0.0000  0.0000  0.0009  0.0314  0.0000  0.0000  0.0000  0.0000  0.0000 </r>
       </set>
       <set comment="band 31">
        <r>  0.0270  0.0000  0.0000  0.0000  0.0000  0.0000  0.0000  0.0000  0.0000 </r>
       </set>
       <set comment="band 32">
        <r>  0.0000  0.0000  0.0000  0.0000  0.0054  0.0001  0.0000  0.0000  0.0000 </r>
       </set>
       <set comment="band 33">
        <r>  0.0000  0.0000  0.0000  0.0000  0.0001  0.0053  0.0000  0.0001  0.0000 </r>
       </set>
       <set comment="band 34">
        <r>  0.0000  0.0000  0.0000  0.0000  0.0000  0.0001  0.0000  0.0054  0.0000 </r>
       </set>
       <set comment="band 35">
        <r>  0.0000  0.0000  0.0000  0.0000  0.0000  0.0000  0.0000  0.0000  0.0000 </r>
       </set>
       <set comment="band 36">
        <r>  0.0000  0.0001  0.0252  0.0007  0.0000  0.0000  0.0000  0.0000  0.0000 </r>
       </set>
      </set>
     </set>
     <set comment="spin2">
      <set comment="kpoint 1">
       <set comment="band 1">
        <r>  0.0000  0.0553  0.9411  0.0001  0.0000  0.0000  0.0000  0.0000  0.0000 </r>
       </set>
       <set comment="band 2">
        <r>  0.0000  0.0611  0.0050  0.9304  0.0000  0.0000  0.0000  0.0000  0.0000 </r>
       </set>
       <set comment="band 3">
        <r>  0.0000  0.8800  0.0505  0.0660  0.0000  0.0000  0.0000  0.0000  0.0000 </r>
       </set>
       <set comment="band 4">
        <r>  0.0000  0.0000  0.0000  0.0000  0.0000  0.0000  0.9374  0.0000  0.0015 </r>
       </set>
       <set comment="band 5">
        <r>  0.0000  0.0000  0.0000  0.0000  0.0000  0.0000  0.0015  0.0000  0.9374 </r>
       </set>
       <set comment="band 6">
        <r>  0.0000  0.0000  0.0000  0.0000  0.9341  0.0000  0.0000  0.0000  0.0000 </r>
       </set>
       <set comment="band 7">
        <r>  0.0000  0.0000  0.0000  0.0000  0.0000  0.9341  0.0000  0.0000  0.0000 </r>
       </set>
       <set comment="band 8">
        <r>  0.0000  0.0000  0.0000  0.0000  0.0000  0.0000  0.0000  0.9341  0.0000 </r>
       </set>
       <set comment="band 9">
        <r>  0.2799  0.0000  0.0000  0.0000  0.0000  0.0000  0.0000  0.0000  0.0000 </r>
       </set>
       <set comment="band 10">
        <r>  0.0000  0.0048  0.0871  0.0000  0.0000  0.0000  0.0000  0.0000  0.0000 </r>
       </set>
       <set comment="band 11">
        <r>  0.0000  0.0059  0.0002  0.0858  0.0000  0.0000  0.0000  0.0000  0.0000 </r>
       </set>
       <set comment="band 12">
        <r>  0.0000  0.0809  0.0046  0.0061  0.0000  0.0000  0.0000  0.0000  0.0000 </r>
       </set>
       <set comment="band 13">
        <r>  0.0210  0.0000  0.0000  0.0000  0.0000  0.0000  0.0000  0.0000  0.0000 </r>
       </set>
       <set comment="band 14">
        <r>  0.0000  0.0000  0.0000  0.0000  0.0000  0.0000  0.0000  0.0000  0.0030 </r>
       </set>
       <set comment="band 15">
        <r>  0.0000  0.0000  0.0000  0.0000  0.0000  0.0000  0.0030  0.0000  0.0000 </r>
       </set>
       <set comment="band 16">
        <r>  0.0000  0.0013  0.0242  0.0000  0.0000  0.0000  0.0000  0.0000  0.0000 </r>
       </set>
       <set comment="band 17">
        <r>  0.0000  0.0016  0.0001  0.0238  0.0000  0.0000  0.0000  0.0000  0.0000 </r>
       </set>
       <set comment="band 18">
        <r>  0.0000  0.0224  0.0013  0.0017  0.0000  0.0000  0.0000  0.0000  0.0000 </r>
       </set>
       <set comment="band 19">
        <r>  0.0244  0.0000  0.0000  0.0000  0.0000  0.0000  0.0000  0.0000  0.0000 </r>
       </set>
       <set comment="band 20">
        <r>  0.0000  0.0000  0.0000  0.0000  0.0000  0.0000  0.0000  0.0093  0.0000 </r>
       </set>
       <set comment="band 21">
        <r>  0.0000  0.0000  0.0000  0.0000  0.0000  0.0093  0.0000  0.0000  0.0000 </r>
       </set>
       <set comment="band 22">
        <r>  0.0000  0.0000  0.0000  0.0000  0.0093  0.0000  0.0000  0.0000  0.0000 </r>
       </set>
       <set comment="band 23">
        <r>  0.0000  0.0000  0.0000  0.0000  0.0000  0.0000  0.0000  0.0000  0.0027 </r>
       </set>
       <set comment="band 24">
        <r>  0.0000  0.0000  0.0000  0.0000  0.0000  0.0000  0.0027  0.0000  0.0000 </r>
       </set>
       <set comment="band 25">
        <r>  0.0000  0.0000  0.0000  0.0000  0.0000  0.0000  0.0000  0.0000  0.0000 </r>
       </set>
       <set comment="band 26">
        <r>  0.0000  0.0000  0.0000  0.0000  0.0000  0.0000  0.0000  0.0000  0.0000 </r>
       </set>
       <set comment="band 27">
        <r>  0.0000  0.0000  0.0000  0.0000  0.0000  0.0000  0.0000  0.0000  0.0000 </r>
       </set>
       <set comment="band 28">
        <r>  0.0000  0.0020  0.0367  0.0000  0.0000  0.0000  0.0000  0.0000  0.0000 </r>
       </set>
       <set comment="band 29">
        <r>  0.0000  0.0025  0.0001  0.0361  0.0000  0.0000  0.0000  0.0000  0.0000 </r>
       </set>
       <set comment="band 30">
        <r>  0.0000  0.0338  0.0019  0.0025  0.0000  0.0000  0.0000  0.0000  0.0000 </r>
       </set>
       <set comment="band 31">
        <r>  0.0292  0.0000  0.0000  0.0000  0.0000  0.0000  0.0000  0.0000  0.0000 </r>
       </set>
       <set comment="band 32">
        <r>  0.0000  0.0000  0.0000  0.0000  0.0000  0.0000  0.0000  0.0053  0.0000 </r>
       </set>
       <set comment="band 33">
        <r>  0.0000  0.0000  0.0000  0.0000  0.0000  0.0053  0.0000  0.0000  0.0000 </r>
       </set>
       <set comment="band 34">
        <r>  0.0000  0.0000  0.0000  0.0000  0.0053  0.0000  0.0000  0.0000  0.0000 </r>
       </set>
       <set comment="band 35">
        <r>  0.0000  0.0000  0.0000  0.0000  0.0000  0.0000  0.0000  0.0000  0.0000 </r>
       </set>
       <set comment="band 36">
        <r>  0.0000  0.0199  0.0011  0.0015  0.0000  0.0000  0.0000  0.0000  0.0000 </r>
       </set>
      </set>
     </set>
    </set>
   </array>
  </projected>
 </calculation>
 <structure name="finalpos" >
  <crystal>
   <varray name="basis" >
    <v>      10.00000000       0.00000000       0.00000000 </v>
    <v>       0.00000000      10.00000000       0.00000000 </v>
    <v>       0.00000000       0.00000000      10.00000000 </v>
   </varray>
   <i name="volume">   1000.00000000 </i>
   <varray name="rec_basis" >
    <v>       0.10000000       0.00000000       0.00000000 </v>
    <v>       0.00000000       0.10000000       0.00000000 </v>
    <v>       0.00000000       0.00000000       0.10000000 </v>
   </varray>
  </crystal>
  <varray name="positions" >
   <v>       0.50000000       0.50000000       0.50000000 </v>
  </varray>
 </structure>
</modeling>
