       N       E                     dE             d eps       ncg     rms          rms(c)
DAV:   1     0.124584178865E+02    0.12458E+02   -0.39869E+03   216   0.146E+02
DAV:   2    -0.220574293664E+01   -0.14664E+02   -0.14607E+02   288   0.236E+01
DAV:   3    -0.223497390785E+01   -0.29231E-01   -0.29092E-01   144   0.145E+00
DAV:   4    -0.223523547704E+01   -0.26157E-03   -0.26157E-03   216   0.147E-01
DAV:   5    -0.223523591966E+01   -0.44262E-06   -0.44275E-06   144   0.573E-03    0.668E+00
DAV:   6    -0.166596727658E+01    0.56927E+00   -0.74591E+00   216   0.414E+00    0.736E+00
DAV:   7    -0.161464021843E+01    0.51327E-01   -0.16791E+00   180   0.197E+00    0.574E+00
DAV:   8    -0.170263724973E+01   -0.87997E-01   -0.15565E-01   180   0.904E-01    0.362E+00
DAV:   9    -0.205016786532E+01   -0.34753E+00   -0.23514E-01   144   0.815E-01    0.231E+00
DAV:  10    -0.230910584128E+01   -0.25894E+00   -0.33090E-01   180   0.114E+00    0.536E-01
DAV:  11    -0.237171529628E+01   -0.62609E-01   -0.29702E-02   144   0.254E-01    0.314E-01
DAV:  12    -0.237842793125E+01   -0.67126E-02   -0.22573E-02   144   0.174E-01    0.125E-01
DAV:  13    -0.238287398511E+01   -0.44461E-02   -0.37055E-03   216   0.812E-02    0.559E-02
DAV:  14    -0.238738924238E+01   -0.45153E-02   -0.47261E-03   144   0.365E-02    0.348E-02
DAV:  15    -0.238816755477E+01   -0.77831E-03   -0.54639E-04   144   0.280E-02    0.156E-02
DAV:  16    -0.239042016559E+01   -0.22526E-02   -0.66812E-04   180   0.183E-02    0.759E-03
DAV:  17    -0.239037596801E+01    0.44198E-04   -0.21021E-04   180   0.159E-02
   1 F= -.23903760E+01 E0= -.23903428E+01  d E =-.239038E+01  mag=     2.0004
