<?xml version="1.0" encoding="ISO-8859-1"?>
<modeling>
 <generator>
  <i name="program" type="string">vasp </i>
  <i name="version" type="string">5.4.4.18Apr17-6-g9f103f2a35  </i>
  <i name="subversion" type="string">(build Nov 08 2019 15:19:53) gamma-only         parallel </i>
  <i name="platform" type="string">LinuxIFC </i>
  <i name="date" type="string">2020 11 30 </i>
  <i name="time" type="string">10:03:58 </i>
 </generator>
 <incar>
  <i type="string" name="PREC">accurate</i>
  <i type="string" name="ALGO"> N</i>
  <i type="int" name="ISPIN">     2</i>
  <i type="int" name="NELM">   300</i>
  <i type="int" name="IBRION">     2</i>
  <i name="EDIFF">      0.00005000</i>
  <i type="int" name="NSW">    99</i>
  <i type="int" name="ISIF">     2</i>
  <i name="ENCUT">    520.00000000</i>
  <i name="NUPDOWN">      2.00000000</i>
  <v name="MAGMOM">      0.60000000</v>
  <i type="string" name="LREAL"> Auto</i>
  <i type="int" name="ISMEAR">     0</i>
  <i name="SIGMA">      0.05000000</i>
  <i type="logical" name="LWAVE"> F  </i>
  <i type="int" name="LORBIT">    11</i>
  <i type="logical" name="LASPH"> T  </i>
  <v type="int" name="KPOINT_BSE">    -1     0     0     0</v>
  <i type="int" name="NELM">   300</i>
  <i type="logical" name="LASPH"> T  </i>
 </incar>
 <structure name="primitive_cell" >
  <crystal>
   <varray name="basis" >
    <v>      10.00000000       0.00000000       0.00000000 </v>
    <v>       0.00000000      10.00000000       0.00000000 </v>
    <v>       0.00000000       0.00000000      10.00000000 </v>
   </varray>
   <i name="volume">   1000.00000000 </i>
   <varray name="rec_basis" >
    <v>       0.10000000       0.00000000       0.00000000 </v>
    <v>       0.00000000       0.10000000       0.00000000 </v>
    <v>       0.00000000       0.00000000       0.10000000 </v>
   </varray>
  </crystal>
  <varray name="positions" >
   <v>      -0.50000000      -0.50000000      -0.50000000 </v>
  </varray>
 </structure>
 <varray name="primitive_index" >
  <v type="int" >        1 </v>
 </varray>
 <kpoints>
  <generation param="Gamma">
   <v type="int" name="divisions">       1        1        1 </v>
   <v name="usershift">      0.00000000       0.00000000       0.00000000 </v>
   <v name="genvec1">      1.00000000       0.00000000       0.00000000 </v>
   <v name="genvec2">      0.00000000       1.00000000       0.00000000 </v>
   <v name="genvec3">      0.00000000       0.00000000       1.00000000 </v>
   <v name="shift">      0.00000000       0.00000000       0.00000000 </v>
  </generation>
  <varray name="kpointlist" >
   <v>       0.00000000       0.00000000       0.00000000 </v>
  </varray>
  <varray name="weights" >
   <v>       1.00000000 </v>
  </varray>
 </kpoints>
 <parameters>
  <separator name="general" >
   <i type="string" name="SYSTEM">unknown system</i>
   <i type="logical" name="LCOMPAT"> F  </i>
  </separator>
  <separator name="electronic" >
   <i type="string" name="PREC">accura</i>
   <i name="ENMAX">    520.00000000</i>
   <i name="ENAUG">    482.84800000</i>
   <i name="EDIFF">      0.00005000</i>
   <i type="int" name="IALGO">    38</i>
   <i type="int" name="IWAVPR">    11</i>
   <i type="int" name="NBANDS">    36</i>
   <i name="NELECT">     10.00000000</i>
   <i type="int" name="TURBO">     0</i>
   <i type="int" name="IRESTART">     0</i>
   <i type="int" name="NREBOOT">     0</i>
   <i type="int" name="NMIN">     0</i>
   <i name="EREF">      0.00000000</i>
   <separator name="electronic smearing" >
    <i type="int" name="ISMEAR">     0</i>
    <i name="SIGMA">      0.05000000</i>
    <i name="KSPACING">      0.50000000</i>
    <i type="logical" name="KGAMMA"> T  </i>
   </separator>
   <separator name="electronic projectors" >
    <i type="logical" name="LREAL"> T  </i>
    <v name="ROPT">     -0.00025000</v>
    <i type="int" name="LMAXPAW">  -100</i>
    <i type="int" name="LMAXMIX">     2</i>
    <i type="logical" name="NLSPLINE"> F  </i>
   </separator>
   <separator name="electronic startup" >
    <i type="int" name="ISTART">     0</i>
    <i type="int" name="ICHARG">     2</i>
    <i type="int" name="INIWAV">     1</i>
   </separator>
   <separator name="electronic spin" >
    <i type="int" name="ISPIN">     2</i>
    <i type="logical" name="LNONCOLLINEAR"> F  </i>
    <v name="MAGMOM">      0.60000000</v>
    <i name="NUPDOWN">      2.00000000</i>
    <i type="logical" name="LSORBIT"> F  </i>
    <v name="SAXIS">      0.00000000      0.00000000      1.00000000</v>
    <i type="logical" name="LSPIRAL"> F  </i>
    <v name="QSPIRAL">      0.00000000      0.00000000      0.00000000</v>
    <i type="logical" name="LZEROZ"> F  </i>
   </separator>
   <separator name="electronic exchange-correlation" >
    <i type="logical" name="LASPH"> T  </i>
    <i type="logical" name="LMETAGGA"> F  </i>
   </separator>
   <separator name="electronic convergence" >
    <i type="int" name="NELM">   300</i>
    <i type="int" name="NELMDL">     0</i>
    <i type="int" name="NELMIN">     2</i>
    <i name="ENINI">    520.00000000</i>
    <separator name="electronic convergence detail" >
     <i type="logical" name="LDIAG"> T  </i>
     <i type="logical" name="LSUBROT"> F  </i>
     <i name="WEIMIN">      0.00100000</i>
     <i name="EBREAK">      0.00000035</i>
     <i name="DEPER">      0.30000000</i>
     <i type="int" name="NRMM">     4</i>
     <i name="TIME">      0.40000000</i>
    </separator>
   </separator>
   <separator name="electronic mixer" >
    <i name="AMIX">      0.40000000</i>
    <i name="BMIX">      1.00000000</i>
    <i name="AMIN">      0.10000000</i>
    <i name="AMIX_MAG">      1.60000000</i>
    <i name="BMIX_MAG">      1.00000000</i>
    <separator name="electronic mixer details" >
     <i type="int" name="IMIX">     4</i>
     <i type="logical" name="MIXFIRST"> F  </i>
     <i type="int" name="MAXMIX">   -45</i>
     <i name="WC">    100.00000000</i>
     <i type="int" name="INIMIX">     1</i>
     <i type="int" name="MIXPRE">     1</i>
     <i type="int" name="MREMOVE">     5</i>
    </separator>
   </separator>
   <separator name="electronic dipolcorrection" >
    <i type="logical" name="LDIPOL"> F  </i>
    <i type="logical" name="LMONO"> F  </i>
    <i type="int" name="IDIPOL">     0</i>
    <i name="EPSILON">      1.00000000</i>
    <v name="DIPOL">   -100.00000000   -100.00000000   -100.00000000</v>
    <i name="EFIELD">      0.00000000</i>
   </separator>
  </separator>
  <separator name="grids" >
   <i type="int" name="NGX">    80</i>
   <i type="int" name="NGY">    80</i>
   <i type="int" name="NGZ">    80</i>
   <i type="int" name="NGXF">   160</i>
   <i type="int" name="NGYF">   160</i>
   <i type="int" name="NGZF">   160</i>
   <i type="logical" name="ADDGRID"> F  </i>
  </separator>
  <separator name="ionic" >
   <i type="int" name="NSW">    99</i>
   <i type="int" name="IBRION">     2</i>
   <i type="int" name="MDALGO">     0</i>
   <i type="int" name="ISIF">     2</i>
   <i name="PSTRESS">      0.00000000</i>
   <i name="EDIFFG">      0.00050000</i>
   <i type="int" name="NFREE">     1</i>
   <i name="POTIM">      0.50000000</i>
   <i name="SMASS">     -3.00000000</i>
   <i name="SCALEE">      1.00000000</i>
  </separator>
  <separator name="ionic md" >
   <i name="TEBEG">      0.00010000</i>
   <i name="TEEND">      0.00010000</i>
   <i type="int" name="NBLOCK">     1</i>
   <i type="int" name="KBLOCK">    99</i>
   <i type="int" name="NPACO">   256</i>
   <i name="APACO">     16.00000000</i>
  </separator>
  <separator name="symmetry" >
   <i type="int" name="ISYM">     2</i>
   <i name="SYMPREC">      0.00001000</i>
  </separator>
  <separator name="dos" >
   <i type="int" name="LORBIT">    11</i>
   <v name="RWIGS">     -1.00000000</v>
   <i type="int" name="NEDOS">   301</i>
   <i name="EMIN">     10.00000000</i>
   <i name="EMAX">    -10.00000000</i>
   <i name="EFERMI">      0.00000000</i>
  </separator>
  <separator name="writing" >
   <i type="int" name="NWRITE">     2</i>
   <i type="logical" name="LWAVE"> F  </i>
   <i type="logical" name="LDOWNSAMPLE"> F  </i>
   <i type="logical" name="LCHARG"> T  </i>
   <i type="logical" name="LPARD"> F  </i>
   <i type="logical" name="LVTOT"> F  </i>
   <i type="logical" name="LVHAR"> F  </i>
   <i type="logical" name="LELF"> F  </i>
   <i type="logical" name="LOPTICS"> F  </i>
   <v name="STM">      0.00000000      0.00000000      0.00000000      0.00000000      0.00000000      0.00000000      0.00000000</v>
  </separator>
  <separator name="performance" >
   <i type="int" name="NPAR">    36</i>
   <i type="int" name="NSIM">     4</i>
   <i type="int" name="NBLK">    -1</i>
   <i type="logical" name="LPLANE"> T  </i>
   <i type="logical" name="LSCALAPACK"> T  </i>
   <i type="logical" name="LSCAAWARE"> F  </i>
   <i type="logical" name="LSCALU"> F  </i>
   <i type="logical" name="LASYNC"> F  </i>
   <i type="logical" name="LORBITALREAL"> F  </i>
  </separator>
  <separator name="miscellaneous" >
   <i type="int" name="IDIOT">     3</i>
   <i type="int" name="ISPECIAL">     0</i>
   <i type="logical" name="LMUSIC"> F  </i>
   <v name="POMASS">     47.88000000</v>
   <v name="DARWINR">      0.00000000</v>
   <v name="DARWINV">      1.00000000</v>
   <i type="logical" name="LCORR"> T  </i>
  </separator>
  <i type="logical" name="GGA_COMPAT"> T  </i>
  <i type="logical" name="LBERRY"> F  </i>
  <i type="int" name="ICORELEVEL">     0</i>
  <i type="logical" name="LDAU"> F  </i>
  <i type="int" name="I_CONSTRAINED_M">     0</i>
  <separator name="electronic exchange-correlation" >
   <i type="string" name="GGA">--</i>
   <i type="int" name="VOSKOWN">     0</i>
   <i type="logical" name="LHFCALC"> F  </i>
   <i type="string" name="PRECFOCK"></i>
   <i type="logical" name="LSYMGRAD"> F  </i>
   <i type="logical" name="LHFONE"> F  </i>
   <i type="logical" name="LRHFCALC"> F  </i>
   <i type="logical" name="LTHOMAS"> F  </i>
   <i type="logical" name="LMODELHF"> F  </i>
   <i name="ENCUT4O">     -1.00000000</i>
   <i type="int" name="EXXOEP">     0</i>
   <i type="int" name="FOURORBIT">     0</i>
   <i name="AEXX">      0.00000000</i>
   <i name="HFALPHA">      0.00000000</i>
   <i name="MCALPHA">      0.00000000</i>
   <i name="ALDAX">      1.00000000</i>
   <i name="AGGAX">      1.00000000</i>
   <i name="ALDAC">      1.00000000</i>
   <i name="AGGAC">      1.00000000</i>
   <i type="int" name="NKREDX">     1</i>
   <i type="int" name="NKREDY">     1</i>
   <i type="int" name="NKREDZ">     1</i>
   <i type="logical" name="SHIFTRED"> F  </i>
   <i type="logical" name="ODDONLY"> F  </i>
   <i type="logical" name="EVENONLY"> F  </i>
   <i type="int" name="LMAXFOCK">     0</i>
   <i type="int" name="NMAXFOCKAE">     0</i>
   <i type="logical" name="LFOCKAEDFT"> F  </i>
   <i name="HFSCREEN">      0.00000000</i>
   <i name="HFSCREENC">      0.00000000</i>
   <i type="int" name="NBANDSGWLOW">     0</i>
  </separator>
  <separator name="vdW DFT" >
   <i type="logical" name="LUSE_VDW"> F  </i>
   <i name="Zab_VDW">     -0.84910000</i>
   <i name="PARAM1">      0.12340000</i>
   <i name="PARAM2">      1.00000000</i>
   <i name="PARAM3">      0.00000000</i>
  </separator>
  <separator name="model GW" >
   <i type="int" name="MODEL_GW">     0</i>
   <i name="MODEL_EPS0">    600.00000000</i>
   <i name="MODEL_ALPHA">      1.00000000</i>
  </separator>
  <separator name="linear response parameters" >
   <i type="logical" name="LEPSILON"> F  </i>
   <i type="logical" name="LRPA"> F  </i>
   <i type="logical" name="LNABLA"> F  </i>
   <i type="logical" name="LVEL"> F  </i>
   <i type="int" name="KINTER">     0</i>
   <i name="CSHIFT">      0.10000000</i>
   <i name="OMEGAMAX">     -1.00000000</i>
   <i name="DEG_THRESHOLD">      0.00200000</i>
   <i name="RTIME">     -0.10000000</i>
   <i name="WPLASMAI">      0.00000000</i>
   <v name="DFIELD">      0.00000000      0.00000000      0.00000000</v>
   <v name="WPLASMA">      0.00000000      0.00000000      0.00000000      0.00000000      0.00000000      0.00000000      0.00000000      0.00000000      0.00000000</v>
  </separator>
  <separator name="orbital magnetization" >
   <i type="logical" name="NUCIND"> F  </i>
   <v name="MAGPOS">      0.00000000      0.00000000      0.00000000</v>
   <i type="logical" name="LNICSALL"> T  </i>
   <i type="logical" name="ORBITALMAG"> F  </i>
   <i type="logical" name="LMAGBLOCH"> F  </i>
   <i type="logical" name="LCHIMAG"> F  </i>
   <i type="logical" name="LGAUGE"> T  </i>
   <i type="int" name="MAGATOM">     0</i>
   <v name="MAGDIPOL">      0.00000000      0.00000000      0.00000000</v>
   <v name="AVECCONST">      0.00000000      0.00000000      0.00000000</v>
  </separator>
  <separator name="response functions" >
   <i type="logical" name="LADDER"> F  </i>
   <i type="logical" name="LRPAFORCE"> F  </i>
   <i type="logical" name="LFXC"> F  </i>
   <i type="logical" name="LHARTREE"> T  </i>
   <i type="int" name="IBSE">     0</i>
   <v type="int" name="KPOINT">    -1     0     0     0</v>
   <i type="logical" name="LTCTE"> F  </i>
   <i type="logical" name="LTETE"> F  </i>
   <i type="logical" name="LTRIPLET"> F  </i>
   <i type="logical" name="LFXCEPS"> F  </i>
   <i type="logical" name="LFXHEG"> F  </i>
   <i type="int" name="NATURALO">     2</i>
   <i type="logical" name="L2ORDER"> F  </i>
   <i type="logical" name="LMP2LT"> F  </i>
   <i type="logical" name="LUSEW"> F  </i>
   <i name="ENCUTGW">     -2.00000000</i>
   <i name="ENCUTGWSOFT">     -2.00000000</i>
   <i name="ENCUTLF">     -1.00000000</i>
   <i type="int" name="LMAXMP2">    -1</i>
   <i name="SCISSOR">      0.00000000</i>
   <i type="int" name="NOMEGA">     0</i>
   <i type="int" name="NOMEGAR">     0</i>
   <i type="int" name="NBANDSGW">    -1</i>
   <i type="int" name="NBANDSO">    -1</i>
   <i type="int" name="NBANDSV">    -1</i>
   <i type="int" name="NELM">   300</i>
   <i type="int" name="NELMHF">     1</i>
   <i type="int" name="DIM">     3</i>
   <i type="int" name="ANTIRES">     0</i>
   <i name="OMEGAMAX">    -30.00000000</i>
   <i name="OMEGAMIN">    -30.00000000</i>
   <i name="OMEGATL">   -200.00000000</i>
   <i type="int" name="OMEGAGRID">   140</i>
   <i name="CSHIFT">     -0.10000000</i>
   <i type="logical" name="SELFENERGY"> F  </i>
   <i type="logical" name="LSPECTRAL"> F  </i>
   <i type="logical" name="LSPECTRALGW"> F  </i>
   <i type="logical" name="LSINGLES"> F  </i>
   <i type="logical" name="LFERMIGW"> F  </i>
   <i type="logical" name="ODDONLYGW"> F  </i>
   <i type="logical" name="EVENONLYGW"> F  </i>
   <i type="int" name="NKREDLFX">     1</i>
   <i type="int" name="NKREDLFY">     1</i>
   <i type="int" name="NKREDLFZ">     1</i>
   <i type="int" name="MAXMEM">  2800</i>
   <i type="int" name="TELESCOPE">     0</i>
   <i type="int" name="TAUPAR">     1</i>
   <i type="int" name="OMEGAPAR">    -1</i>
   <i name="LAMBDA">      1.00000000</i>
  </separator>
  <separator name="External order field" >
   <i name="OFIELD_KAPPA">      0.00000000</i>
   <v name="OFIELD_K">      0.00000000      0.00000000      0.00000000</v>
   <i name="OFIELD_Q6_NEAR">      0.00000000</i>
   <i name="OFIELD_Q6_FAR">      0.00000000</i>
   <i name="OFIELD_A">      0.00000000</i>
  </separator>
 </parameters>
 <atominfo>
  <atoms>       1 </atoms>
  <types>       1 </types>
  <array name="atoms" >
   <dimension dim="1">ion</dimension>
   <field type="string">element</field>
   <field type="int">atomtype</field>
   <set>
    <rc><c>Ti</c><c>   1</c></rc>
   </set>
  </array>
  <array name="atomtypes" >
   <dimension dim="1">type</dimension>
   <field type="int">atomspertype</field>
   <field type="string">element</field>
   <field>mass</field>
   <field>valence</field>
   <field type="string">pseudopotential</field>
   <set>
    <rc><c>   1</c><c>Ti</c><c>     47.88000000</c><c>     10.00000000</c><c>  PAW_PBE Ti_pv 07Sep2000               </c></rc>
   </set>
  </array>
 </atominfo>
 <structure name="initialpos" >
  <crystal>
   <varray name="basis" >
    <v>      10.00000000       0.00000000       0.00000000 </v>
    <v>       0.00000000      10.00000000       0.00000000 </v>
    <v>       0.00000000       0.00000000      10.00000000 </v>
   </varray>
   <i name="volume">   1000.00000000 </i>
   <varray name="rec_basis" >
    <v>       0.10000000       0.00000000       0.00000000 </v>
    <v>       0.00000000       0.10000000       0.00000000 </v>
    <v>       0.00000000       0.00000000       0.10000000 </v>
   </varray>
  </crystal>
  <varray name="positions" >
   <v>       0.50000000       0.50000000       0.50000000 </v>
  </varray>
 </structure>
 <calculation>
  <scstep>
   <time name="dav">    0.30    0.31</time>
   <time name="total">    0.88    0.90</time>
   <energy>
    <i name="alphaZ">      1.09052110 </i>
    <i name="ewald">   -204.28240005 </i>
    <i name="hartreedc">   -652.27532073 </i>
    <i name="XCdc">     33.52509933 </i>
    <i name="pawpsdc">    818.84268626 </i>
    <i name="pawaedc">   -818.20730616 </i>
    <i name="eentropy">     -0.00008507 </i>
    <i name="bandstr">   -208.83236406 </i>
    <i name="atom">   1042.59758728 </i>
    <i name="e_fr_energy">     12.45841789 </i>
    <i name="e_wo_entrp">     12.45850296 </i>
    <i name="e_0_energy">     12.45846042 </i>
   </energy>
  </scstep>
  <scstep>
   <time name="dav">    0.39    0.39</time>
   <time name="total">    0.39    0.39</time>
   <energy>
    <i name="e_fr_energy">     -2.20574294 </i>
    <i name="e_wo_entrp">     -2.13812447 </i>
    <i name="e_0_energy">     -2.17193370 </i>
   </energy>
  </scstep>
  <scstep>
   <time name="dav">    0.22    0.22</time>
   <time name="total">    0.22    0.22</time>
   <energy>
    <i name="e_fr_energy">     -2.23497391 </i>
    <i name="e_wo_entrp">     -2.16697737 </i>
    <i name="e_0_energy">     -2.20097564 </i>
   </energy>
  </scstep>
  <scstep>
   <time name="dav">    0.30    0.30</time>
   <time name="total">    0.30    0.30</time>
   <energy>
    <i name="e_fr_energy">     -2.23523548 </i>
    <i name="e_wo_entrp">     -2.16723835 </i>
    <i name="e_0_energy">     -2.20123691 </i>
   </energy>
  </scstep>
  <scstep>
   <time name="dav">    0.23    0.23</time>
   <time name="total">    0.45    0.46</time>
   <energy>
    <i name="e_fr_energy">     -2.23523592 </i>
    <i name="e_wo_entrp">     -2.16723879 </i>
    <i name="e_0_energy">     -2.20123735 </i>
   </energy>
  </scstep>
  <scstep>
   <time name="dav">    0.32    0.32</time>
   <time name="total">    1.11    1.11</time>
   <energy>
    <i name="e_fr_energy">     -1.66596728 </i>
    <i name="e_wo_entrp">     -1.62064224 </i>
    <i name="e_0_energy">     -1.64330476 </i>
   </energy>
  </scstep>
  <scstep>
   <time name="dav">    0.26    0.26</time>
   <time name="total">    1.04    1.04</time>
   <energy>
    <i name="e_fr_energy">     -1.61464022 </i>
    <i name="e_wo_entrp">     -1.61463984 </i>
    <i name="e_0_energy">     -1.61464003 </i>
   </energy>
  </scstep>
  <scstep>
   <time name="dav">    0.26    0.26</time>
   <time name="total">    1.04    1.04</time>
   <energy>
    <i name="e_fr_energy">     -1.70263725 </i>
    <i name="e_wo_entrp">     -1.70263725 </i>
    <i name="e_0_energy">     -1.70263725 </i>
   </energy>
  </scstep>
  <scstep>
   <time name="dav">    0.23    0.23</time>
   <time name="total">    1.01    1.01</time>
   <energy>
    <i name="e_fr_energy">     -2.05016787 </i>
    <i name="e_wo_entrp">     -2.05016787 </i>
    <i name="e_0_energy">     -2.05016787 </i>
   </energy>
  </scstep>
  <scstep>
   <time name="dav">    0.27    0.27</time>
   <time name="total">    1.05    1.05</time>
   <energy>
    <i name="e_fr_energy">     -2.30910584 </i>
    <i name="e_wo_entrp">     -2.30910584 </i>
    <i name="e_0_energy">     -2.30910584 </i>
   </energy>
  </scstep>
  <scstep>
   <time name="dav">    0.22    0.23</time>
   <time name="total">    1.01    1.01</time>
   <energy>
    <i name="e_fr_energy">     -2.37171530 </i>
    <i name="e_wo_entrp">     -2.37171529 </i>
    <i name="e_0_energy">     -2.37171529 </i>
   </energy>
  </scstep>
  <scstep>
   <time name="dav">    0.22    0.22</time>
   <time name="total">    0.99    1.00</time>
   <energy>
    <i name="e_fr_energy">     -2.37842793 </i>
    <i name="e_wo_entrp">     -2.37842622 </i>
    <i name="e_0_energy">     -2.37842707 </i>
   </energy>
  </scstep>
  <scstep>
   <time name="dav">    0.31    0.31</time>
   <time name="total">    1.09    1.09</time>
   <energy>
    <i name="e_fr_energy">     -2.38287399 </i>
    <i name="e_wo_entrp">     -2.38285874 </i>
    <i name="e_0_energy">     -2.38286636 </i>
   </energy>
  </scstep>
  <scstep>
   <time name="dav">    0.22    0.23</time>
   <time name="total">    0.99    1.00</time>
   <energy>
    <i name="e_fr_energy">     -2.38738924 </i>
    <i name="e_wo_entrp">     -2.38735735 </i>
    <i name="e_0_energy">     -2.38737329 </i>
   </energy>
  </scstep>
  <scstep>
   <time name="dav">    0.22    0.23</time>
   <time name="total">    1.00    1.00</time>
   <energy>
    <i name="e_fr_energy">     -2.38816755 </i>
    <i name="e_wo_entrp">     -2.38811337 </i>
    <i name="e_0_energy">     -2.38814046 </i>
   </energy>
  </scstep>
  <scstep>
   <time name="dav">    0.26    0.26</time>
   <time name="total">    1.02    1.03</time>
   <energy>
    <i name="e_fr_energy">     -2.39042017 </i>
    <i name="e_wo_entrp">     -2.39036582 </i>
    <i name="e_0_energy">     -2.39039299 </i>
   </energy>
  </scstep>
  <scstep>
   <time name="dav">    0.27    0.27</time>
   <time name="total">    0.85    0.88</time>
   <energy>
    <i name="alphaZ">      1.09052110 </i>
    <i name="ewald">   -204.28240005 </i>
    <i name="hartreedc">   -622.36950695 </i>
    <i name="XCdc">     32.83299036 </i>
    <i name="pawpsdc">    792.70352983 </i>
    <i name="pawaedc">   -796.67577925 </i>
    <i name="eentropy">     -0.00006631 </i>
    <i name="bandstr">   -248.28725198 </i>
    <i name="atom">   1042.59758728 </i>
    <i name="e_fr_energy">     -2.39037597 </i>
    <i name="e_wo_entrp">     -2.39030966 </i>
    <i name="e_0_energy">     -2.39034281 </i>
   </energy>
  </scstep>
  <structure>
   <crystal>
    <varray name="basis" >
     <v>      10.00000000       0.00000000       0.00000000 </v>
     <v>       0.00000000      10.00000000       0.00000000 </v>
     <v>       0.00000000       0.00000000      10.00000000 </v>
    </varray>
    <i name="volume">   1000.00000000 </i>
    <varray name="rec_basis" >
     <v>       0.10000000       0.00000000       0.00000000 </v>
     <v>       0.00000000       0.10000000       0.00000000 </v>
     <v>       0.00000000       0.00000000       0.10000000 </v>
    </varray>
   </crystal>
   <varray name="positions" >
    <v>       0.50000000       0.50000000       0.50000000 </v>
   </varray>
  </structure>
  <varray name="forces" >
   <v>       0.00000000       0.00000000       0.00000000 </v>
  </varray>
  <varray name="stress" >
   <v>      -0.06923055      -0.00000000      -0.00000000 </v>
   <v>      -0.00000000      -0.06923055      -0.00000000 </v>
   <v>       0.00000000       0.00000000      -0.06923055 </v>
  </varray>
  <energy>
   <i name="e_fr_energy">     -2.39037597 </i>
   <i name="e_wo_entrp">     -2.39034281 </i>
   <i name="e_0_energy">     -0.00006631 </i>
  </energy>
  <time name="totalsc">   21.48   21.68</time>
  <eigenvalues>
   <array>
    <dimension dim="1">band</dimension>
    <dimension dim="2">kpoint</dimension>
    <dimension dim="3">spin</dimension>
    <field>eigene</field>
    <field>occ</field>
    <set>
     <set comment="spin 1">
      <set comment="kpoint 1">
       <r>  -39.1389    1.0000 </r>
       <r>  -39.1387    1.0000 </r>
       <r>  -39.1382    1.0000 </r>
       <r>   -4.9908    1.0000 </r>
       <r>   -4.9904    1.0000 </r>
       <r>   -4.3872    0.9998 </r>
       <r>   -4.1308    0.0001 </r>
       <r>   -4.1305    0.0001 </r>
       <r>   -4.1299    0.0001 </r>
       <r>   -1.2471    0.0000 </r>
       <r>   -1.2471    0.0000 </r>
       <r>   -1.2470    0.0000 </r>
       <r>   -0.0667    0.0000 </r>
       <r>    0.7596    0.0000 </r>
       <r>    0.7596    0.0000 </r>
       <r>    1.7079    0.0000 </r>
       <r>    1.7079    0.0000 </r>
       <r>    1.7079    0.0000 </r>
       <r>    1.8578    0.0000 </r>
       <r>    1.8578    0.0000 </r>
       <r>    1.8579    0.0000 </r>
       <r>    2.0390    0.0000 </r>
       <r>    2.4325    0.0000 </r>
       <r>    2.4325    0.0000 </r>
       <r>    2.4325    0.0000 </r>
       <r>    2.6516    0.0000 </r>
       <r>    2.6516    0.0000 </r>
       <r>    3.5799    0.0000 </r>
       <r>    3.7200    0.0000 </r>
       <r>    3.7201    0.0000 </r>
       <r>    3.7201    0.0000 </r>
       <r>    3.9291    0.0000 </r>
       <r>    3.9291    0.0000 </r>
       <r>    3.9291    0.0000 </r>
       <r>    4.1123    0.0000 </r>
       <r>    4.2938    0.0000 </r>
      </set>
     </set>
     <set comment="spin 2">
      <set comment="kpoint 1">
       <r>  -37.5261    1.0000 </r>
       <r>  -37.5261    1.0000 </r>
       <r>  -37.5261    1.0000 </r>
       <r>   -3.9248    1.0000 </r>
       <r>   -3.3976    0.0000 </r>
       <r>   -3.3976    0.0000 </r>
       <r>   -3.3974    0.0000 </r>
       <r>   -2.6471    0.0000 </r>
       <r>   -2.6469    0.0000 </r>
       <r>   -1.0210    0.0000 </r>
       <r>   -1.0210    0.0000 </r>
       <r>   -1.0210    0.0000 </r>
       <r>   -0.1485    0.0000 </r>
       <r>    0.7739    0.0000 </r>
       <r>    0.7739    0.0000 </r>
       <r>    1.5947    0.0000 </r>
       <r>    1.5947    0.0000 </r>
       <r>    1.5947    0.0000 </r>
       <r>    1.8288    0.0000 </r>
       <r>    1.8288    0.0000 </r>
       <r>    1.8288    0.0000 </r>
       <r>    1.8810    0.0000 </r>
       <r>    2.3178    0.0000 </r>
       <r>    2.3178    0.0000 </r>
       <r>    2.3178    0.0000 </r>
       <r>    2.5356    0.0000 </r>
       <r>    2.5356    0.0000 </r>
       <r>    3.4563    0.0000 </r>
       <r>    3.6213    0.0000 </r>
       <r>    3.6213    0.0000 </r>
       <r>    3.6213    0.0000 </r>
       <r>    3.7356    0.0000 </r>
       <r>    3.7356    0.0000 </r>
       <r>    3.7356    0.0000 </r>
       <r>    3.9220    0.0000 </r>
       <r>    4.2782    0.0000 </r>
      </set>
     </set>
    </set>
   </array>
  </eigenvalues>
  <separator name="orbital magnetization" >
   <v name="MAGDIPOLOUT">      0.00000000      0.00000000      0.00000000</v>
  </separator>
  <dos>
   <i name="efermi">     -3.68696846 </i>
   <total>
    <array>
     <dimension dim="1">gridpoints</dimension>
     <dimension dim="2">spin</dimension>
     <field>energy</field>
     <field>total</field>
     <field>integrated</field>
     <set>
      <set comment="spin 1">
       <r>   -41.3105     0.0000     0.0000 </r>
       <r>   -41.1512     0.0000     0.0000 </r>
       <r>   -40.9920     0.0000     0.0000 </r>
       <r>   -40.8327     0.0000     0.0000 </r>
       <r>   -40.6735     0.0000     0.0000 </r>
       <r>   -40.5142     0.0000     0.0000 </r>
       <r>   -40.3550     0.0000     0.0000 </r>
       <r>   -40.1957     0.0000     0.0000 </r>
       <r>   -40.0365     0.0000     0.0000 </r>
       <r>   -39.8772     0.0000     0.0000 </r>
       <r>   -39.7180     0.0000     0.0000 </r>
       <r>   -39.5587     0.0000     0.0000 </r>
       <r>   -39.3995     0.0000     0.0000 </r>
       <r>   -39.2402     0.0763     0.0122 </r>
       <r>   -39.0810    35.6577     5.6907 </r>
       <r>   -38.9217     1.9419     6.0000 </r>
       <r>   -38.7624     0.0000     6.0000 </r>
       <r>   -38.6032     0.0000     6.0000 </r>
       <r>   -38.4439     0.0000     6.0000 </r>
       <r>   -38.2847     0.0000     6.0000 </r>
       <r>   -38.1254     0.0000     6.0000 </r>
       <r>   -37.9662     0.0000     6.0000 </r>
       <r>   -37.8069     0.0000     6.0000 </r>
       <r>   -37.6477     0.0000     6.0000 </r>
       <r>   -37.4884     0.0000     6.0000 </r>
       <r>   -37.3292     0.0000     6.0000 </r>
       <r>   -37.1699     0.0000     6.0000 </r>
       <r>   -37.0107     0.0000     6.0000 </r>
       <r>   -36.8514     0.0000     6.0000 </r>
       <r>   -36.6922     0.0000     6.0000 </r>
       <r>   -36.5329     0.0000     6.0000 </r>
       <r>   -36.3737     0.0000     6.0000 </r>
       <r>   -36.2144     0.0000     6.0000 </r>
       <r>   -36.0551     0.0000     6.0000 </r>
       <r>   -35.8959     0.0000     6.0000 </r>
       <r>   -35.7366     0.0000     6.0000 </r>
       <r>   -35.5774     0.0000     6.0000 </r>
       <r>   -35.4181     0.0000     6.0000 </r>
       <r>   -35.2589     0.0000     6.0000 </r>
       <r>   -35.0996     0.0000     6.0000 </r>
       <r>   -34.9404     0.0000     6.0000 </r>
       <r>   -34.7811     0.0000     6.0000 </r>
       <r>   -34.6219     0.0000     6.0000 </r>
       <r>   -34.4626     0.0000     6.0000 </r>
       <r>   -34.3034     0.0000     6.0000 </r>
       <r>   -34.1441     0.0000     6.0000 </r>
       <r>   -33.9849     0.0000     6.0000 </r>
       <r>   -33.8256     0.0000     6.0000 </r>
       <r>   -33.6664     0.0000     6.0000 </r>
       <r>   -33.5071     0.0000     6.0000 </r>
       <r>   -33.3478     0.0000     6.0000 </r>
       <r>   -33.1886     0.0000     6.0000 </r>
       <r>   -33.0293     0.0000     6.0000 </r>
       <r>   -32.8701     0.0000     6.0000 </r>
       <r>   -32.7108     0.0000     6.0000 </r>
       <r>   -32.5516     0.0000     6.0000 </r>
       <r>   -32.3923     0.0000     6.0000 </r>
       <r>   -32.2331     0.0000     6.0000 </r>
       <r>   -32.0738     0.0000     6.0000 </r>
       <r>   -31.9146     0.0000     6.0000 </r>
       <r>   -31.7553     0.0000     6.0000 </r>
       <r>   -31.5961     0.0000     6.0000 </r>
       <r>   -31.4368     0.0000     6.0000 </r>
       <r>   -31.2776     0.0000     6.0000 </r>
       <r>   -31.1183     0.0000     6.0000 </r>
       <r>   -30.9591     0.0000     6.0000 </r>
       <r>   -30.7998     0.0000     6.0000 </r>
       <r>   -30.6405     0.0000     6.0000 </r>
       <r>   -30.4813     0.0000     6.0000 </r>
       <r>   -30.3220     0.0000     6.0000 </r>
       <r>   -30.1628     0.0000     6.0000 </r>
       <r>   -30.0035     0.0000     6.0000 </r>
       <r>   -29.8443     0.0000     6.0000 </r>
       <r>   -29.6850     0.0000     6.0000 </r>
       <r>   -29.5258     0.0000     6.0000 </r>
       <r>   -29.3665     0.0000     6.0000 </r>
       <r>   -29.2073     0.0000     6.0000 </r>
       <r>   -29.0480     0.0000     6.0000 </r>
       <r>   -28.8888     0.0000     6.0000 </r>
       <r>   -28.7295     0.0000     6.0000 </r>
       <r>   -28.5703     0.0000     6.0000 </r>
       <r>   -28.4110     0.0000     6.0000 </r>
       <r>   -28.2517     0.0000     6.0000 </r>
       <r>   -28.0925     0.0000     6.0000 </r>
       <r>   -27.9332     0.0000     6.0000 </r>
       <r>   -27.7740     0.0000     6.0000 </r>
       <r>   -27.6147     0.0000     6.0000 </r>
       <r>   -27.4555     0.0000     6.0000 </r>
       <r>   -27.2962     0.0000     6.0000 </r>
       <r>   -27.1370     0.0000     6.0000 </r>
       <r>   -26.9777     0.0000     6.0000 </r>
       <r>   -26.8185     0.0000     6.0000 </r>
       <r>   -26.6592     0.0000     6.0000 </r>
       <r>   -26.5000     0.0000     6.0000 </r>
       <r>   -26.3407     0.0000     6.0000 </r>
       <r>   -26.1815     0.0000     6.0000 </r>
       <r>   -26.0222     0.0000     6.0000 </r>
       <r>   -25.8630     0.0000     6.0000 </r>
       <r>   -25.7037     0.0000     6.0000 </r>
       <r>   -25.5444     0.0000     6.0000 </r>
       <r>   -25.3852     0.0000     6.0000 </r>
       <r>   -25.2259     0.0000     6.0000 </r>
       <r>   -25.0667     0.0000     6.0000 </r>
       <r>   -24.9074     0.0000     6.0000 </r>
       <r>   -24.7482     0.0000     6.0000 </r>
       <r>   -24.5889     0.0000     6.0000 </r>
       <r>   -24.4297     0.0000     6.0000 </r>
       <r>   -24.2704     0.0000     6.0000 </r>
       <r>   -24.1112     0.0000     6.0000 </r>
       <r>   -23.9519     0.0000     6.0000 </r>
       <r>   -23.7927     0.0000     6.0000 </r>
       <r>   -23.6334     0.0000     6.0000 </r>
       <r>   -23.4742     0.0000     6.0000 </r>
       <r>   -23.3149     0.0000     6.0000 </r>
       <r>   -23.1557     0.0000     6.0000 </r>
       <r>   -22.9964     0.0000     6.0000 </r>
       <r>   -22.8371     0.0000     6.0000 </r>
       <r>   -22.6779     0.0000     6.0000 </r>
       <r>   -22.5186     0.0000     6.0000 </r>
       <r>   -22.3594     0.0000     6.0000 </r>
       <r>   -22.2001     0.0000     6.0000 </r>
       <r>   -22.0409     0.0000     6.0000 </r>
       <r>   -21.8816     0.0000     6.0000 </r>
       <r>   -21.7224     0.0000     6.0000 </r>
       <r>   -21.5631     0.0000     6.0000 </r>
       <r>   -21.4039     0.0000     6.0000 </r>
       <r>   -21.2446     0.0000     6.0000 </r>
       <r>   -21.0854     0.0000     6.0000 </r>
       <r>   -20.9261     0.0000     6.0000 </r>
       <r>   -20.7669     0.0000     6.0000 </r>
       <r>   -20.6076     0.0000     6.0000 </r>
       <r>   -20.4483     0.0000     6.0000 </r>
       <r>   -20.2891     0.0000     6.0000 </r>
       <r>   -20.1298     0.0000     6.0000 </r>
       <r>   -19.9706     0.0000     6.0000 </r>
       <r>   -19.8113     0.0000     6.0000 </r>
       <r>   -19.6521     0.0000     6.0000 </r>
       <r>   -19.4928     0.0000     6.0000 </r>
       <r>   -19.3336     0.0000     6.0000 </r>
       <r>   -19.1743     0.0000     6.0000 </r>
       <r>   -19.0151     0.0000     6.0000 </r>
       <r>   -18.8558     0.0000     6.0000 </r>
       <r>   -18.6966     0.0000     6.0000 </r>
       <r>   -18.5373     0.0000     6.0000 </r>
       <r>   -18.3781     0.0000     6.0000 </r>
       <r>   -18.2188     0.0000     6.0000 </r>
       <r>   -18.0596     0.0000     6.0000 </r>
       <r>   -17.9003     0.0000     6.0000 </r>
       <r>   -17.7410     0.0000     6.0000 </r>
       <r>   -17.5818     0.0000     6.0000 </r>
       <r>   -17.4225     0.0000     6.0000 </r>
       <r>   -17.2633     0.0000     6.0000 </r>
       <r>   -17.1040     0.0000     6.0000 </r>
       <r>   -16.9448     0.0000     6.0000 </r>
       <r>   -16.7855     0.0000     6.0000 </r>
       <r>   -16.6263     0.0000     6.0000 </r>
       <r>   -16.4670     0.0000     6.0000 </r>
       <r>   -16.3078     0.0000     6.0000 </r>
       <r>   -16.1485     0.0000     6.0000 </r>
       <r>   -15.9893     0.0000     6.0000 </r>
       <r>   -15.8300     0.0000     6.0000 </r>
       <r>   -15.6708     0.0000     6.0000 </r>
       <r>   -15.5115     0.0000     6.0000 </r>
       <r>   -15.3523     0.0000     6.0000 </r>
       <r>   -15.1930     0.0000     6.0000 </r>
       <r>   -15.0337     0.0000     6.0000 </r>
       <r>   -14.8745     0.0000     6.0000 </r>
       <r>   -14.7152     0.0000     6.0000 </r>
       <r>   -14.5560     0.0000     6.0000 </r>
       <r>   -14.3967     0.0000     6.0000 </r>
       <r>   -14.2375     0.0000     6.0000 </r>
       <r>   -14.0782     0.0000     6.0000 </r>
       <r>   -13.9190     0.0000     6.0000 </r>
       <r>   -13.7597     0.0000     6.0000 </r>
       <r>   -13.6005     0.0000     6.0000 </r>
       <r>   -13.4412     0.0000     6.0000 </r>
       <r>   -13.2820     0.0000     6.0000 </r>
       <r>   -13.1227     0.0000     6.0000 </r>
       <r>   -12.9635     0.0000     6.0000 </r>
       <r>   -12.8042     0.0000     6.0000 </r>
       <r>   -12.6450     0.0000     6.0000 </r>
       <r>   -12.4857     0.0000     6.0000 </r>
       <r>   -12.3264     0.0000     6.0000 </r>
       <r>   -12.1672     0.0000     6.0000 </r>
       <r>   -12.0079     0.0000     6.0000 </r>
       <r>   -11.8487     0.0000     6.0000 </r>
       <r>   -11.6894     0.0000     6.0000 </r>
       <r>   -11.5302     0.0000     6.0000 </r>
       <r>   -11.3709     0.0000     6.0000 </r>
       <r>   -11.2117     0.0000     6.0000 </r>
       <r>   -11.0524     0.0000     6.0000 </r>
       <r>   -10.8932     0.0000     6.0000 </r>
       <r>   -10.7339     0.0000     6.0000 </r>
       <r>   -10.5747     0.0000     6.0000 </r>
       <r>   -10.4154     0.0000     6.0000 </r>
       <r>   -10.2562     0.0000     6.0000 </r>
       <r>   -10.0969     0.0000     6.0000 </r>
       <r>    -9.9376     0.0000     6.0000 </r>
       <r>    -9.7784     0.0000     6.0000 </r>
       <r>    -9.6191     0.0000     6.0000 </r>
       <r>    -9.4599     0.0000     6.0000 </r>
       <r>    -9.3006     0.0000     6.0000 </r>
       <r>    -9.1414     0.0000     6.0000 </r>
       <r>    -8.9821     0.0000     6.0000 </r>
       <r>    -8.8229     0.0000     6.0000 </r>
       <r>    -8.6636     0.0000     6.0000 </r>
       <r>    -8.5044     0.0000     6.0000 </r>
       <r>    -8.3451     0.0000     6.0000 </r>
       <r>    -8.1859     0.0000     6.0000 </r>
       <r>    -8.0266     0.0000     6.0000 </r>
       <r>    -7.8674     0.0000     6.0000 </r>
       <r>    -7.7081     0.0000     6.0000 </r>
       <r>    -7.5489     0.0000     6.0000 </r>
       <r>    -7.3896     0.0000     6.0000 </r>
       <r>    -7.2303     0.0000     6.0000 </r>
       <r>    -7.0711     0.0000     6.0000 </r>
       <r>    -6.9118     0.0000     6.0000 </r>
       <r>    -6.7526     0.0000     6.0000 </r>
       <r>    -6.5933     0.0000     6.0000 </r>
       <r>    -6.4341     0.0000     6.0000 </r>
       <r>    -6.2748     0.0000     6.0000 </r>
       <r>    -6.1156     0.0000     6.0000 </r>
       <r>    -5.9563     0.0000     6.0000 </r>
       <r>    -5.7971     0.0000     6.0000 </r>
       <r>    -5.6378     0.0000     6.0000 </r>
       <r>    -5.4786     0.0000     6.0000 </r>
       <r>    -5.3193     0.0000     6.0000 </r>
       <r>    -5.1601     0.0000     6.0000 </r>
       <r>    -5.0008     9.7097     7.5463 </r>
       <r>    -4.8416    15.4073    10.0000 </r>
       <r>    -4.6823     0.0003    10.0000 </r>
       <r>    -4.5230     0.0008    10.0001 </r>
       <r>    -4.3638     9.3661    11.4917 </r>
       <r>    -4.2045     3.8703    12.1081 </r>
       <r>    -4.0453    36.6947    17.9518 </r>
       <r>    -3.8860     0.3026    18.0000 </r>
       <r>    -3.7268     0.0000    18.0000 </r>
       <r>    -3.5675     0.0000    18.0000 </r>
       <r>    -3.4083     0.0000    18.0000 </r>
       <r>    -3.2490     0.0000    18.0000 </r>
       <r>    -3.0898     0.0000    18.0000 </r>
       <r>    -2.9305     0.0000    18.0000 </r>
       <r>    -2.7713     0.0000    18.0000 </r>
       <r>    -2.6120     0.0000    18.0000 </r>
       <r>    -2.4528     0.0000    18.0000 </r>
       <r>    -2.2935     0.0000    18.0000 </r>
       <r>    -2.1343     0.0000    18.0000 </r>
       <r>    -1.9750     0.0000    18.0000 </r>
       <r>    -1.8157     0.0000    18.0000 </r>
       <r>    -1.6565     0.0000    18.0000 </r>
       <r>    -1.4972     0.0000    18.0000 </r>
       <r>    -1.3380     0.1905    18.0303 </r>
       <r>    -1.1787    36.4813    23.8401 </r>
       <r>    -1.0195     1.0041    24.0000 </r>
       <r>    -0.8602     0.0000    24.0000 </r>
       <r>    -0.7010     0.0000    24.0000 </r>
       <r>    -0.5417     0.0000    24.0000 </r>
       <r>    -0.3825     0.0000    24.0000 </r>
       <r>    -0.2232     0.0001    24.0000 </r>
       <r>    -0.0640     6.6619    25.0609 </r>
       <r>     0.0953     5.8967    26.0000 </r>
       <r>     0.2545     0.0000    26.0000 </r>
       <r>     0.4138     0.0000    26.0000 </r>
       <r>     0.5731     0.0000    26.0000 </r>
       <r>     0.7323     5.5182    26.8788 </r>
       <r>     0.8916    19.5966    29.9996 </r>
       <r>     1.0508     0.0024    30.0000 </r>
       <r>     1.2101     0.0000    30.0000 </r>
       <r>     1.3693     0.0000    30.0000 </r>
       <r>     1.5286     0.0000    30.0000 </r>
       <r>     1.6878    10.7301    31.7088 </r>
       <r>     1.8471    41.2735    38.2817 </r>
       <r>     2.0063    25.5802    42.3555 </r>
       <r>     2.1656    10.3244    43.9997 </r>
       <r>     2.3248     0.0458    44.0069 </r>
       <r>     2.4841    34.9028    49.5653 </r>
       <r>     2.6433    12.9672    51.6304 </r>
       <r>     2.8026    14.8793    54.0000 </r>
       <r>     2.9618     0.0002    54.0000 </r>
       <r>     3.1211     0.0000    54.0000 </r>
       <r>     3.2804     0.0000    54.0000 </r>
       <r>     3.4396     0.0005    54.0001 </r>
       <r>     3.5989     8.8479    55.4091 </r>
       <r>     3.7581    36.0695    61.1533 </r>
       <r>     3.9174    19.2741    64.2228 </r>
       <r>     4.0766    25.6832    68.3129 </r>
       <r>     4.2359    11.2278    70.1010 </r>
       <r>     4.3951    11.8986    71.9958 </r>
       <r>     4.5544     0.0261    72.0000 </r>
       <r>     4.7136     0.0000    72.0000 </r>
       <r>     4.8729     0.0000    72.0000 </r>
       <r>     5.0321     0.0000    72.0000 </r>
       <r>     5.1914     0.0000    72.0000 </r>
       <r>     5.3506     0.0000    72.0000 </r>
       <r>     5.5099     0.0000    72.0000 </r>
       <r>     5.6691     0.0000    72.0000 </r>
       <r>     5.8284     0.0000    72.0000 </r>
       <r>     5.9877     0.0000    72.0000 </r>
       <r>     6.1469     0.0000    72.0000 </r>
       <r>     6.3062     0.0000    72.0000 </r>
       <r>     6.4654     0.0000    72.0000 </r>
      </set>
      <set comment="spin 2">
       <r>   -41.3105     0.0000     0.0000 </r>
       <r>   -41.1512     0.0000     0.0000 </r>
       <r>   -40.9920     0.0000     0.0000 </r>
       <r>   -40.8327     0.0000     0.0000 </r>
       <r>   -40.6735     0.0000     0.0000 </r>
       <r>   -40.5142     0.0000     0.0000 </r>
       <r>   -40.3550     0.0000     0.0000 </r>
       <r>   -40.1957     0.0000     0.0000 </r>
       <r>   -40.0365     0.0000     0.0000 </r>
       <r>   -39.8772     0.0000     0.0000 </r>
       <r>   -39.7180     0.0000     0.0000 </r>
       <r>   -39.5587     0.0000     0.0000 </r>
       <r>   -39.3995     0.0000     0.0000 </r>
       <r>   -39.2402     0.0000     0.0000 </r>
       <r>   -39.0810     0.0000     0.0000 </r>
       <r>   -38.9217     0.0000     0.0000 </r>
       <r>   -38.7624     0.0000     0.0000 </r>
       <r>   -38.6032     0.0000     0.0000 </r>
       <r>   -38.4439     0.0000     0.0000 </r>
       <r>   -38.2847     0.0000     0.0000 </r>
       <r>   -38.1254     0.0000     0.0000 </r>
       <r>   -37.9662     0.0000     0.0000 </r>
       <r>   -37.8069     0.0000     0.0000 </r>
       <r>   -37.6477     0.0110     0.0018 </r>
       <r>   -37.4884    32.2655     5.1401 </r>
       <r>   -37.3292     5.3994     6.0000 </r>
       <r>   -37.1699     0.0000     6.0000 </r>
       <r>   -37.0107     0.0000     6.0000 </r>
       <r>   -36.8514     0.0000     6.0000 </r>
       <r>   -36.6922     0.0000     6.0000 </r>
       <r>   -36.5329     0.0000     6.0000 </r>
       <r>   -36.3737     0.0000     6.0000 </r>
       <r>   -36.2144     0.0000     6.0000 </r>
       <r>   -36.0551     0.0000     6.0000 </r>
       <r>   -35.8959     0.0000     6.0000 </r>
       <r>   -35.7366     0.0000     6.0000 </r>
       <r>   -35.5774     0.0000     6.0000 </r>
       <r>   -35.4181     0.0000     6.0000 </r>
       <r>   -35.2589     0.0000     6.0000 </r>
       <r>   -35.0996     0.0000     6.0000 </r>
       <r>   -34.9404     0.0000     6.0000 </r>
       <r>   -34.7811     0.0000     6.0000 </r>
       <r>   -34.6219     0.0000     6.0000 </r>
       <r>   -34.4626     0.0000     6.0000 </r>
       <r>   -34.3034     0.0000     6.0000 </r>
       <r>   -34.1441     0.0000     6.0000 </r>
       <r>   -33.9849     0.0000     6.0000 </r>
       <r>   -33.8256     0.0000     6.0000 </r>
       <r>   -33.6664     0.0000     6.0000 </r>
       <r>   -33.5071     0.0000     6.0000 </r>
       <r>   -33.3478     0.0000     6.0000 </r>
       <r>   -33.1886     0.0000     6.0000 </r>
       <r>   -33.0293     0.0000     6.0000 </r>
       <r>   -32.8701     0.0000     6.0000 </r>
       <r>   -32.7108     0.0000     6.0000 </r>
       <r>   -32.5516     0.0000     6.0000 </r>
       <r>   -32.3923     0.0000     6.0000 </r>
       <r>   -32.2331     0.0000     6.0000 </r>
       <r>   -32.0738     0.0000     6.0000 </r>
       <r>   -31.9146     0.0000     6.0000 </r>
       <r>   -31.7553     0.0000     6.0000 </r>
       <r>   -31.5961     0.0000     6.0000 </r>
       <r>   -31.4368     0.0000     6.0000 </r>
       <r>   -31.2776     0.0000     6.0000 </r>
       <r>   -31.1183     0.0000     6.0000 </r>
       <r>   -30.9591     0.0000     6.0000 </r>
       <r>   -30.7998     0.0000     6.0000 </r>
       <r>   -30.6405     0.0000     6.0000 </r>
       <r>   -30.4813     0.0000     6.0000 </r>
       <r>   -30.3220     0.0000     6.0000 </r>
       <r>   -30.1628     0.0000     6.0000 </r>
       <r>   -30.0035     0.0000     6.0000 </r>
       <r>   -29.8443     0.0000     6.0000 </r>
       <r>   -29.6850     0.0000     6.0000 </r>
       <r>   -29.5258     0.0000     6.0000 </r>
       <r>   -29.3665     0.0000     6.0000 </r>
       <r>   -29.2073     0.0000     6.0000 </r>
       <r>   -29.0480     0.0000     6.0000 </r>
       <r>   -28.8888     0.0000     6.0000 </r>
       <r>   -28.7295     0.0000     6.0000 </r>
       <r>   -28.5703     0.0000     6.0000 </r>
       <r>   -28.4110     0.0000     6.0000 </r>
       <r>   -28.2517     0.0000     6.0000 </r>
       <r>   -28.0925     0.0000     6.0000 </r>
       <r>   -27.9332     0.0000     6.0000 </r>
       <r>   -27.7740     0.0000     6.0000 </r>
       <r>   -27.6147     0.0000     6.0000 </r>
       <r>   -27.4555     0.0000     6.0000 </r>
       <r>   -27.2962     0.0000     6.0000 </r>
       <r>   -27.1370     0.0000     6.0000 </r>
       <r>   -26.9777     0.0000     6.0000 </r>
       <r>   -26.8185     0.0000     6.0000 </r>
       <r>   -26.6592     0.0000     6.0000 </r>
       <r>   -26.5000     0.0000     6.0000 </r>
       <r>   -26.3407     0.0000     6.0000 </r>
       <r>   -26.1815     0.0000     6.0000 </r>
       <r>   -26.0222     0.0000     6.0000 </r>
       <r>   -25.8630     0.0000     6.0000 </r>
       <r>   -25.7037     0.0000     6.0000 </r>
       <r>   -25.5444     0.0000     6.0000 </r>
       <r>   -25.3852     0.0000     6.0000 </r>
       <r>   -25.2259     0.0000     6.0000 </r>
       <r>   -25.0667     0.0000     6.0000 </r>
       <r>   -24.9074     0.0000     6.0000 </r>
       <r>   -24.7482     0.0000     6.0000 </r>
       <r>   -24.5889     0.0000     6.0000 </r>
       <r>   -24.4297     0.0000     6.0000 </r>
       <r>   -24.2704     0.0000     6.0000 </r>
       <r>   -24.1112     0.0000     6.0000 </r>
       <r>   -23.9519     0.0000     6.0000 </r>
       <r>   -23.7927     0.0000     6.0000 </r>
       <r>   -23.6334     0.0000     6.0000 </r>
       <r>   -23.4742     0.0000     6.0000 </r>
       <r>   -23.3149     0.0000     6.0000 </r>
       <r>   -23.1557     0.0000     6.0000 </r>
       <r>   -22.9964     0.0000     6.0000 </r>
       <r>   -22.8371     0.0000     6.0000 </r>
       <r>   -22.6779     0.0000     6.0000 </r>
       <r>   -22.5186     0.0000     6.0000 </r>
       <r>   -22.3594     0.0000     6.0000 </r>
       <r>   -22.2001     0.0000     6.0000 </r>
       <r>   -22.0409     0.0000     6.0000 </r>
       <r>   -21.8816     0.0000     6.0000 </r>
       <r>   -21.7224     0.0000     6.0000 </r>
       <r>   -21.5631     0.0000     6.0000 </r>
       <r>   -21.4039     0.0000     6.0000 </r>
       <r>   -21.2446     0.0000     6.0000 </r>
       <r>   -21.0854     0.0000     6.0000 </r>
       <r>   -20.9261     0.0000     6.0000 </r>
       <r>   -20.7669     0.0000     6.0000 </r>
       <r>   -20.6076     0.0000     6.0000 </r>
       <r>   -20.4483     0.0000     6.0000 </r>
       <r>   -20.2891     0.0000     6.0000 </r>
       <r>   -20.1298     0.0000     6.0000 </r>
       <r>   -19.9706     0.0000     6.0000 </r>
       <r>   -19.8113     0.0000     6.0000 </r>
       <r>   -19.6521     0.0000     6.0000 </r>
       <r>   -19.4928     0.0000     6.0000 </r>
       <r>   -19.3336     0.0000     6.0000 </r>
       <r>   -19.1743     0.0000     6.0000 </r>
       <r>   -19.0151     0.0000     6.0000 </r>
       <r>   -18.8558     0.0000     6.0000 </r>
       <r>   -18.6966     0.0000     6.0000 </r>
       <r>   -18.5373     0.0000     6.0000 </r>
       <r>   -18.3781     0.0000     6.0000 </r>
       <r>   -18.2188     0.0000     6.0000 </r>
       <r>   -18.0596     0.0000     6.0000 </r>
       <r>   -17.9003     0.0000     6.0000 </r>
       <r>   -17.7410     0.0000     6.0000 </r>
       <r>   -17.5818     0.0000     6.0000 </r>
       <r>   -17.4225     0.0000     6.0000 </r>
       <r>   -17.2633     0.0000     6.0000 </r>
       <r>   -17.1040     0.0000     6.0000 </r>
       <r>   -16.9448     0.0000     6.0000 </r>
       <r>   -16.7855     0.0000     6.0000 </r>
       <r>   -16.6263     0.0000     6.0000 </r>
       <r>   -16.4670     0.0000     6.0000 </r>
       <r>   -16.3078     0.0000     6.0000 </r>
       <r>   -16.1485     0.0000     6.0000 </r>
       <r>   -15.9893     0.0000     6.0000 </r>
       <r>   -15.8300     0.0000     6.0000 </r>
       <r>   -15.6708     0.0000     6.0000 </r>
       <r>   -15.5115     0.0000     6.0000 </r>
       <r>   -15.3523     0.0000     6.0000 </r>
       <r>   -15.1930     0.0000     6.0000 </r>
       <r>   -15.0337     0.0000     6.0000 </r>
       <r>   -14.8745     0.0000     6.0000 </r>
       <r>   -14.7152     0.0000     6.0000 </r>
       <r>   -14.5560     0.0000     6.0000 </r>
       <r>   -14.3967     0.0000     6.0000 </r>
       <r>   -14.2375     0.0000     6.0000 </r>
       <r>   -14.0782     0.0000     6.0000 </r>
       <r>   -13.9190     0.0000     6.0000 </r>
       <r>   -13.7597     0.0000     6.0000 </r>
       <r>   -13.6005     0.0000     6.0000 </r>
       <r>   -13.4412     0.0000     6.0000 </r>
       <r>   -13.2820     0.0000     6.0000 </r>
       <r>   -13.1227     0.0000     6.0000 </r>
       <r>   -12.9635     0.0000     6.0000 </r>
       <r>   -12.8042     0.0000     6.0000 </r>
       <r>   -12.6450     0.0000     6.0000 </r>
       <r>   -12.4857     0.0000     6.0000 </r>
       <r>   -12.3264     0.0000     6.0000 </r>
       <r>   -12.1672     0.0000     6.0000 </r>
       <r>   -12.0079     0.0000     6.0000 </r>
       <r>   -11.8487     0.0000     6.0000 </r>
       <r>   -11.6894     0.0000     6.0000 </r>
       <r>   -11.5302     0.0000     6.0000 </r>
       <r>   -11.3709     0.0000     6.0000 </r>
       <r>   -11.2117     0.0000     6.0000 </r>
       <r>   -11.0524     0.0000     6.0000 </r>
       <r>   -10.8932     0.0000     6.0000 </r>
       <r>   -10.7339     0.0000     6.0000 </r>
       <r>   -10.5747     0.0000     6.0000 </r>
       <r>   -10.4154     0.0000     6.0000 </r>
       <r>   -10.2562     0.0000     6.0000 </r>
       <r>   -10.0969     0.0000     6.0000 </r>
       <r>    -9.9376     0.0000     6.0000 </r>
       <r>    -9.7784     0.0000     6.0000 </r>
       <r>    -9.6191     0.0000     6.0000 </r>
       <r>    -9.4599     0.0000     6.0000 </r>
       <r>    -9.3006     0.0000     6.0000 </r>
       <r>    -9.1414     0.0000     6.0000 </r>
       <r>    -8.9821     0.0000     6.0000 </r>
       <r>    -8.8229     0.0000     6.0000 </r>
       <r>    -8.6636     0.0000     6.0000 </r>
       <r>    -8.5044     0.0000     6.0000 </r>
       <r>    -8.3451     0.0000     6.0000 </r>
       <r>    -8.1859     0.0000     6.0000 </r>
       <r>    -8.0266     0.0000     6.0000 </r>
       <r>    -7.8674     0.0000     6.0000 </r>
       <r>    -7.7081     0.0000     6.0000 </r>
       <r>    -7.5489     0.0000     6.0000 </r>
       <r>    -7.3896     0.0000     6.0000 </r>
       <r>    -7.2303     0.0000     6.0000 </r>
       <r>    -7.0711     0.0000     6.0000 </r>
       <r>    -6.9118     0.0000     6.0000 </r>
       <r>    -6.7526     0.0000     6.0000 </r>
       <r>    -6.5933     0.0000     6.0000 </r>
       <r>    -6.4341     0.0000     6.0000 </r>
       <r>    -6.2748     0.0000     6.0000 </r>
       <r>    -6.1156     0.0000     6.0000 </r>
       <r>    -5.9563     0.0000     6.0000 </r>
       <r>    -5.7971     0.0000     6.0000 </r>
       <r>    -5.6378     0.0000     6.0000 </r>
       <r>    -5.4786     0.0000     6.0000 </r>
       <r>    -5.3193     0.0000     6.0000 </r>
       <r>    -5.1601     0.0000     6.0000 </r>
       <r>    -5.0008     0.0000     6.0000 </r>
       <r>    -4.8416     0.0000     6.0000 </r>
       <r>    -4.6823     0.0000     6.0000 </r>
       <r>    -4.5230     0.0000     6.0000 </r>
       <r>    -4.3638     0.0000     6.0000 </r>
       <r>    -4.2045     0.0000     6.0000 </r>
       <r>    -4.0453     0.0041     6.0007 </r>
       <r>    -3.8860    10.8446     7.7277 </r>
       <r>    -3.7268     1.7099     8.0000 </r>
       <r>    -3.5675     0.0000     8.0000 </r>
       <r>    -3.4083    14.3431    10.2842 </r>
       <r>    -3.2490    23.3323    13.9999 </r>
       <r>    -3.0898     0.0005    14.0000 </r>
       <r>    -2.9305     0.0000    14.0000 </r>
       <r>    -2.7713     0.0055    14.0009 </r>
       <r>    -2.6120    21.0608    17.3549 </r>
       <r>    -2.4528     4.0509    18.0000 </r>
       <r>    -2.2935     0.0000    18.0000 </r>
       <r>    -2.1343     0.0000    18.0000 </r>
       <r>    -1.9750     0.0000    18.0000 </r>
       <r>    -1.8157     0.0000    18.0000 </r>
       <r>    -1.6565     0.0000    18.0000 </r>
       <r>    -1.4972     0.0000    18.0000 </r>
       <r>    -1.3380     0.0000    18.0000 </r>
       <r>    -1.1787     0.0002    18.0000 </r>
       <r>    -1.0195    19.4651    21.0999 </r>
       <r>    -0.8602    18.2105    24.0000 </r>
       <r>    -0.7010     0.0001    24.0000 </r>
       <r>    -0.5417     0.0000    24.0000 </r>
       <r>    -0.3825     0.0000    24.0000 </r>
       <r>    -0.2232     0.2170    24.0346 </r>
       <r>    -0.0640    12.2361    25.9832 </r>
       <r>     0.0953     0.1056    26.0000 </r>
       <r>     0.2545     0.0000    26.0000 </r>
       <r>     0.4138     0.0000    26.0000 </r>
       <r>     0.5731     0.0000    26.0000 </r>
       <r>     0.7323     3.0120    26.4797 </r>
       <r>     0.8916    22.0943    29.9983 </r>
       <r>     1.0508     0.0109    30.0000 </r>
       <r>     1.2101     0.0000    30.0000 </r>
       <r>     1.3693     0.0000    30.0000 </r>
       <r>     1.5286     1.1576    30.1844 </r>
       <r>     1.6878    36.3606    35.9749 </r>
       <r>     1.8471    28.5589    40.5230 </r>
       <r>     2.0063    21.8308    43.9996 </r>
       <r>     2.1656     0.0028    44.0000 </r>
       <r>     2.3248    21.7905    47.4702 </r>
       <r>     2.4841    17.7084    50.2904 </r>
       <r>     2.6433    23.2651    53.9954 </r>
       <r>     2.8026     0.0290    54.0000 </r>
       <r>     2.9618     0.0000    54.0000 </r>
       <r>     3.1211     0.0000    54.0000 </r>
       <r>     3.2804     0.0000    54.0000 </r>
       <r>     3.4396     3.9936    54.6360 </r>
       <r>     3.5989    18.4615    57.5760 </r>
       <r>     3.7581    55.5629    66.4246 </r>
       <r>     3.9174    15.5222    68.8966 </r>
       <r>     4.0766     6.9288    70.0000 </r>
       <r>     4.2359     1.4525    70.2313 </r>
       <r>     4.3951    11.1003    71.9991 </r>
       <r>     4.5544     0.0059    72.0000 </r>
       <r>     4.7136     0.0000    72.0000 </r>
       <r>     4.8729     0.0000    72.0000 </r>
       <r>     5.0321     0.0000    72.0000 </r>
       <r>     5.1914     0.0000    72.0000 </r>
       <r>     5.3506     0.0000    72.0000 </r>
       <r>     5.5099     0.0000    72.0000 </r>
       <r>     5.6691     0.0000    72.0000 </r>
       <r>     5.8284     0.0000    72.0000 </r>
       <r>     5.9877     0.0000    72.0000 </r>
       <r>     6.1469     0.0000    72.0000 </r>
       <r>     6.3062     0.0000    72.0000 </r>
       <r>     6.4654     0.0000    72.0000 </r>
      </set>
     </set>
    </array>
   </total>
   <partial>
    <array>
     <dimension dim="1">gridpoints</dimension>
     <dimension dim="2">spin</dimension>
     <dimension dim="3">ion</dimension>
     <field>energy</field>
     <field>    s</field>
     <field>   py</field>
     <field>   pz</field>
     <field>   px</field>
     <field>  dxy</field>
     <field>  dyz</field>
     <field>  dz2</field>
     <field>  dxz</field>
     <field>x2-y2</field>
     <set>
      <set comment="ion 1">
       <set comment="spin 1">
        <r>   -41.3105     0.0000     0.0000     0.0000     0.0000     0.0000     0.0000     0.0000     0.0000     0.0000 </r>
        <r>   -41.1512     0.0000     0.0000     0.0000     0.0000     0.0000     0.0000     0.0000     0.0000     0.0000 </r>
        <r>   -40.9920     0.0000     0.0000     0.0000     0.0000     0.0000     0.0000     0.0000     0.0000     0.0000 </r>
        <r>   -40.8327     0.0000     0.0000     0.0000     0.0000     0.0000     0.0000     0.0000     0.0000     0.0000 </r>
        <r>   -40.6735     0.0000     0.0000     0.0000     0.0000     0.0000     0.0000     0.0000     0.0000     0.0000 </r>
        <r>   -40.5142     0.0000     0.0000     0.0000     0.0000     0.0000     0.0000     0.0000     0.0000     0.0000 </r>
        <r>   -40.3550     0.0000     0.0000     0.0000     0.0000     0.0000     0.0000     0.0000     0.0000     0.0000 </r>
        <r>   -40.1957     0.0000     0.0000     0.0000     0.0000     0.0000     0.0000     0.0000     0.0000     0.0000 </r>
        <r>   -40.0365     0.0000     0.0000     0.0000     0.0000     0.0000     0.0000     0.0000     0.0000     0.0000 </r>
        <r>   -39.8772     0.0000     0.0000     0.0000     0.0000     0.0000     0.0000     0.0000     0.0000     0.0000 </r>
        <r>   -39.7180     0.0000     0.0000     0.0000     0.0000     0.0000     0.0000     0.0000     0.0000     0.0000 </r>
        <r>   -39.5587     0.0000     0.0000     0.0000     0.0000     0.0000     0.0000     0.0000     0.0000     0.0000 </r>
        <r>   -39.3995     0.0000     0.0000     0.0000     0.0000     0.0000     0.0000     0.0000     0.0000     0.0000 </r>
        <r>   -39.2402     0.0000     0.0254     0.0258     0.0244     0.0000     0.0000     0.0000     0.0000     0.0000 </r>
        <r>   -39.0810     0.0000    11.7786    11.7846    11.7617     0.0000     0.0000     0.0000     0.0000     0.0000 </r>
        <r>   -38.9217     0.0000     0.6374     0.6310     0.6554     0.0000     0.0000     0.0000     0.0000     0.0000 </r>
        <r>   -38.7624     0.0000     0.0000     0.0000     0.0000     0.0000     0.0000     0.0000     0.0000     0.0000 </r>
        <r>   -38.6032     0.0000     0.0000     0.0000     0.0000     0.0000     0.0000     0.0000     0.0000     0.0000 </r>
        <r>   -38.4439     0.0000     0.0000     0.0000     0.0000     0.0000     0.0000     0.0000     0.0000     0.0000 </r>
        <r>   -38.2847     0.0000     0.0000     0.0000     0.0000     0.0000     0.0000     0.0000     0.0000     0.0000 </r>
        <r>   -38.1254     0.0000     0.0000     0.0000     0.0000     0.0000     0.0000     0.0000     0.0000     0.0000 </r>
        <r>   -37.9662     0.0000     0.0000     0.0000     0.0000     0.0000     0.0000     0.0000     0.0000     0.0000 </r>
        <r>   -37.8069     0.0000     0.0000     0.0000     0.0000     0.0000     0.0000     0.0000     0.0000     0.0000 </r>
        <r>   -37.6477     0.0000     0.0000     0.0000     0.0000     0.0000     0.0000     0.0000     0.0000     0.0000 </r>
        <r>   -37.4884     0.0000     0.0000     0.0000     0.0000     0.0000     0.0000     0.0000     0.0000     0.0000 </r>
        <r>   -37.3292     0.0000     0.0000     0.0000     0.0000     0.0000     0.0000     0.0000     0.0000     0.0000 </r>
        <r>   -37.1699     0.0000     0.0000     0.0000     0.0000     0.0000     0.0000     0.0000     0.0000     0.0000 </r>
        <r>   -37.0107     0.0000     0.0000     0.0000     0.0000     0.0000     0.0000     0.0000     0.0000     0.0000 </r>
        <r>   -36.8514     0.0000     0.0000     0.0000     0.0000     0.0000     0.0000     0.0000     0.0000     0.0000 </r>
        <r>   -36.6922     0.0000     0.0000     0.0000     0.0000     0.0000     0.0000     0.0000     0.0000     0.0000 </r>
        <r>   -36.5329     0.0000     0.0000     0.0000     0.0000     0.0000     0.0000     0.0000     0.0000     0.0000 </r>
        <r>   -36.3737     0.0000     0.0000     0.0000     0.0000     0.0000     0.0000     0.0000     0.0000     0.0000 </r>
        <r>   -36.2144     0.0000     0.0000     0.0000     0.0000     0.0000     0.0000     0.0000     0.0000     0.0000 </r>
        <r>   -36.0551     0.0000     0.0000     0.0000     0.0000     0.0000     0.0000     0.0000     0.0000     0.0000 </r>
        <r>   -35.8959     0.0000     0.0000     0.0000     0.0000     0.0000     0.0000     0.0000     0.0000     0.0000 </r>
        <r>   -35.7366     0.0000     0.0000     0.0000     0.0000     0.0000     0.0000     0.0000     0.0000     0.0000 </r>
        <r>   -35.5774     0.0000     0.0000     0.0000     0.0000     0.0000     0.0000     0.0000     0.0000     0.0000 </r>
        <r>   -35.4181     0.0000     0.0000     0.0000     0.0000     0.0000     0.0000     0.0000     0.0000     0.0000 </r>
        <r>   -35.2589     0.0000     0.0000     0.0000     0.0000     0.0000     0.0000     0.0000     0.0000     0.0000 </r>
        <r>   -35.0996     0.0000     0.0000     0.0000     0.0000     0.0000     0.0000     0.0000     0.0000     0.0000 </r>
        <r>   -34.9404     0.0000     0.0000     0.0000     0.0000     0.0000     0.0000     0.0000     0.0000     0.0000 </r>
        <r>   -34.7811     0.0000     0.0000     0.0000     0.0000     0.0000     0.0000     0.0000     0.0000     0.0000 </r>
        <r>   -34.6219     0.0000     0.0000     0.0000     0.0000     0.0000     0.0000     0.0000     0.0000     0.0000 </r>
        <r>   -34.4626     0.0000     0.0000     0.0000     0.0000     0.0000     0.0000     0.0000     0.0000     0.0000 </r>
        <r>   -34.3034     0.0000     0.0000     0.0000     0.0000     0.0000     0.0000     0.0000     0.0000     0.0000 </r>
        <r>   -34.1441     0.0000     0.0000     0.0000     0.0000     0.0000     0.0000     0.0000     0.0000     0.0000 </r>
        <r>   -33.9849     0.0000     0.0000     0.0000     0.0000     0.0000     0.0000     0.0000     0.0000     0.0000 </r>
        <r>   -33.8256     0.0000     0.0000     0.0000     0.0000     0.0000     0.0000     0.0000     0.0000     0.0000 </r>
        <r>   -33.6664     0.0000     0.0000     0.0000     0.0000     0.0000     0.0000     0.0000     0.0000     0.0000 </r>
        <r>   -33.5071     0.0000     0.0000     0.0000     0.0000     0.0000     0.0000     0.0000     0.0000     0.0000 </r>
        <r>   -33.3478     0.0000     0.0000     0.0000     0.0000     0.0000     0.0000     0.0000     0.0000     0.0000 </r>
        <r>   -33.1886     0.0000     0.0000     0.0000     0.0000     0.0000     0.0000     0.0000     0.0000     0.0000 </r>
        <r>   -33.0293     0.0000     0.0000     0.0000     0.0000     0.0000     0.0000     0.0000     0.0000     0.0000 </r>
        <r>   -32.8701     0.0000     0.0000     0.0000     0.0000     0.0000     0.0000     0.0000     0.0000     0.0000 </r>
        <r>   -32.7108     0.0000     0.0000     0.0000     0.0000     0.0000     0.0000     0.0000     0.0000     0.0000 </r>
        <r>   -32.5516     0.0000     0.0000     0.0000     0.0000     0.0000     0.0000     0.0000     0.0000     0.0000 </r>
        <r>   -32.3923     0.0000     0.0000     0.0000     0.0000     0.0000     0.0000     0.0000     0.0000     0.0000 </r>
        <r>   -32.2331     0.0000     0.0000     0.0000     0.0000     0.0000     0.0000     0.0000     0.0000     0.0000 </r>
        <r>   -32.0738     0.0000     0.0000     0.0000     0.0000     0.0000     0.0000     0.0000     0.0000     0.0000 </r>
        <r>   -31.9146     0.0000     0.0000     0.0000     0.0000     0.0000     0.0000     0.0000     0.0000     0.0000 </r>
        <r>   -31.7553     0.0000     0.0000     0.0000     0.0000     0.0000     0.0000     0.0000     0.0000     0.0000 </r>
        <r>   -31.5961     0.0000     0.0000     0.0000     0.0000     0.0000     0.0000     0.0000     0.0000     0.0000 </r>
        <r>   -31.4368     0.0000     0.0000     0.0000     0.0000     0.0000     0.0000     0.0000     0.0000     0.0000 </r>
        <r>   -31.2776     0.0000     0.0000     0.0000     0.0000     0.0000     0.0000     0.0000     0.0000     0.0000 </r>
        <r>   -31.1183     0.0000     0.0000     0.0000     0.0000     0.0000     0.0000     0.0000     0.0000     0.0000 </r>
        <r>   -30.9591     0.0000     0.0000     0.0000     0.0000     0.0000     0.0000     0.0000     0.0000     0.0000 </r>
        <r>   -30.7998     0.0000     0.0000     0.0000     0.0000     0.0000     0.0000     0.0000     0.0000     0.0000 </r>
        <r>   -30.6405     0.0000     0.0000     0.0000     0.0000     0.0000     0.0000     0.0000     0.0000     0.0000 </r>
        <r>   -30.4813     0.0000     0.0000     0.0000     0.0000     0.0000     0.0000     0.0000     0.0000     0.0000 </r>
        <r>   -30.3220     0.0000     0.0000     0.0000     0.0000     0.0000     0.0000     0.0000     0.0000     0.0000 </r>
        <r>   -30.1628     0.0000     0.0000     0.0000     0.0000     0.0000     0.0000     0.0000     0.0000     0.0000 </r>
        <r>   -30.0035     0.0000     0.0000     0.0000     0.0000     0.0000     0.0000     0.0000     0.0000     0.0000 </r>
        <r>   -29.8443     0.0000     0.0000     0.0000     0.0000     0.0000     0.0000     0.0000     0.0000     0.0000 </r>
        <r>   -29.6850     0.0000     0.0000     0.0000     0.0000     0.0000     0.0000     0.0000     0.0000     0.0000 </r>
        <r>   -29.5258     0.0000     0.0000     0.0000     0.0000     0.0000     0.0000     0.0000     0.0000     0.0000 </r>
        <r>   -29.3665     0.0000     0.0000     0.0000     0.0000     0.0000     0.0000     0.0000     0.0000     0.0000 </r>
        <r>   -29.2073     0.0000     0.0000     0.0000     0.0000     0.0000     0.0000     0.0000     0.0000     0.0000 </r>
        <r>   -29.0480     0.0000     0.0000     0.0000     0.0000     0.0000     0.0000     0.0000     0.0000     0.0000 </r>
        <r>   -28.8888     0.0000     0.0000     0.0000     0.0000     0.0000     0.0000     0.0000     0.0000     0.0000 </r>
        <r>   -28.7295     0.0000     0.0000     0.0000     0.0000     0.0000     0.0000     0.0000     0.0000     0.0000 </r>
        <r>   -28.5703     0.0000     0.0000     0.0000     0.0000     0.0000     0.0000     0.0000     0.0000     0.0000 </r>
        <r>   -28.4110     0.0000     0.0000     0.0000     0.0000     0.0000     0.0000     0.0000     0.0000     0.0000 </r>
        <r>   -28.2517     0.0000     0.0000     0.0000     0.0000     0.0000     0.0000     0.0000     0.0000     0.0000 </r>
        <r>   -28.0925     0.0000     0.0000     0.0000     0.0000     0.0000     0.0000     0.0000     0.0000     0.0000 </r>
        <r>   -27.9332     0.0000     0.0000     0.0000     0.0000     0.0000     0.0000     0.0000     0.0000     0.0000 </r>
        <r>   -27.7740     0.0000     0.0000     0.0000     0.0000     0.0000     0.0000     0.0000     0.0000     0.0000 </r>
        <r>   -27.6147     0.0000     0.0000     0.0000     0.0000     0.0000     0.0000     0.0000     0.0000     0.0000 </r>
        <r>   -27.4555     0.0000     0.0000     0.0000     0.0000     0.0000     0.0000     0.0000     0.0000     0.0000 </r>
        <r>   -27.2962     0.0000     0.0000     0.0000     0.0000     0.0000     0.0000     0.0000     0.0000     0.0000 </r>
        <r>   -27.1370     0.0000     0.0000     0.0000     0.0000     0.0000     0.0000     0.0000     0.0000     0.0000 </r>
        <r>   -26.9777     0.0000     0.0000     0.0000     0.0000     0.0000     0.0000     0.0000     0.0000     0.0000 </r>
        <r>   -26.8185     0.0000     0.0000     0.0000     0.0000     0.0000     0.0000     0.0000     0.0000     0.0000 </r>
        <r>   -26.6592     0.0000     0.0000     0.0000     0.0000     0.0000     0.0000     0.0000     0.0000     0.0000 </r>
        <r>   -26.5000     0.0000     0.0000     0.0000     0.0000     0.0000     0.0000     0.0000     0.0000     0.0000 </r>
        <r>   -26.3407     0.0000     0.0000     0.0000     0.0000     0.0000     0.0000     0.0000     0.0000     0.0000 </r>
        <r>   -26.1815     0.0000     0.0000     0.0000     0.0000     0.0000     0.0000     0.0000     0.0000     0.0000 </r>
        <r>   -26.0222     0.0000     0.0000     0.0000     0.0000     0.0000     0.0000     0.0000     0.0000     0.0000 </r>
        <r>   -25.8630     0.0000     0.0000     0.0000     0.0000     0.0000     0.0000     0.0000     0.0000     0.0000 </r>
        <r>   -25.7037     0.0000     0.0000     0.0000     0.0000     0.0000     0.0000     0.0000     0.0000     0.0000 </r>
        <r>   -25.5444     0.0000     0.0000     0.0000     0.0000     0.0000     0.0000     0.0000     0.0000     0.0000 </r>
        <r>   -25.3852     0.0000     0.0000     0.0000     0.0000     0.0000     0.0000     0.0000     0.0000     0.0000 </r>
        <r>   -25.2259     0.0000     0.0000     0.0000     0.0000     0.0000     0.0000     0.0000     0.0000     0.0000 </r>
        <r>   -25.0667     0.0000     0.0000     0.0000     0.0000     0.0000     0.0000     0.0000     0.0000     0.0000 </r>
        <r>   -24.9074     0.0000     0.0000     0.0000     0.0000     0.0000     0.0000     0.0000     0.0000     0.0000 </r>
        <r>   -24.7482     0.0000     0.0000     0.0000     0.0000     0.0000     0.0000     0.0000     0.0000     0.0000 </r>
        <r>   -24.5889     0.0000     0.0000     0.0000     0.0000     0.0000     0.0000     0.0000     0.0000     0.0000 </r>
        <r>   -24.4297     0.0000     0.0000     0.0000     0.0000     0.0000     0.0000     0.0000     0.0000     0.0000 </r>
        <r>   -24.2704     0.0000     0.0000     0.0000     0.0000     0.0000     0.0000     0.0000     0.0000     0.0000 </r>
        <r>   -24.1112     0.0000     0.0000     0.0000     0.0000     0.0000     0.0000     0.0000     0.0000     0.0000 </r>
        <r>   -23.9519     0.0000     0.0000     0.0000     0.0000     0.0000     0.0000     0.0000     0.0000     0.0000 </r>
        <r>   -23.7927     0.0000     0.0000     0.0000     0.0000     0.0000     0.0000     0.0000     0.0000     0.0000 </r>
        <r>   -23.6334     0.0000     0.0000     0.0000     0.0000     0.0000     0.0000     0.0000     0.0000     0.0000 </r>
        <r>   -23.4742     0.0000     0.0000     0.0000     0.0000     0.0000     0.0000     0.0000     0.0000     0.0000 </r>
        <r>   -23.3149     0.0000     0.0000     0.0000     0.0000     0.0000     0.0000     0.0000     0.0000     0.0000 </r>
        <r>   -23.1557     0.0000     0.0000     0.0000     0.0000     0.0000     0.0000     0.0000     0.0000     0.0000 </r>
        <r>   -22.9964     0.0000     0.0000     0.0000     0.0000     0.0000     0.0000     0.0000     0.0000     0.0000 </r>
        <r>   -22.8371     0.0000     0.0000     0.0000     0.0000     0.0000     0.0000     0.0000     0.0000     0.0000 </r>
        <r>   -22.6779     0.0000     0.0000     0.0000     0.0000     0.0000     0.0000     0.0000     0.0000     0.0000 </r>
        <r>   -22.5186     0.0000     0.0000     0.0000     0.0000     0.0000     0.0000     0.0000     0.0000     0.0000 </r>
        <r>   -22.3594     0.0000     0.0000     0.0000     0.0000     0.0000     0.0000     0.0000     0.0000     0.0000 </r>
        <r>   -22.2001     0.0000     0.0000     0.0000     0.0000     0.0000     0.0000     0.0000     0.0000     0.0000 </r>
        <r>   -22.0409     0.0000     0.0000     0.0000     0.0000     0.0000     0.0000     0.0000     0.0000     0.0000 </r>
        <r>   -21.8816     0.0000     0.0000     0.0000     0.0000     0.0000     0.0000     0.0000     0.0000     0.0000 </r>
        <r>   -21.7224     0.0000     0.0000     0.0000     0.0000     0.0000     0.0000     0.0000     0.0000     0.0000 </r>
        <r>   -21.5631     0.0000     0.0000     0.0000     0.0000     0.0000     0.0000     0.0000     0.0000     0.0000 </r>
        <r>   -21.4039     0.0000     0.0000     0.0000     0.0000     0.0000     0.0000     0.0000     0.0000     0.0000 </r>
        <r>   -21.2446     0.0000     0.0000     0.0000     0.0000     0.0000     0.0000     0.0000     0.0000     0.0000 </r>
        <r>   -21.0854     0.0000     0.0000     0.0000     0.0000     0.0000     0.0000     0.0000     0.0000     0.0000 </r>
        <r>   -20.9261     0.0000     0.0000     0.0000     0.0000     0.0000     0.0000     0.0000     0.0000     0.0000 </r>
        <r>   -20.7669     0.0000     0.0000     0.0000     0.0000     0.0000     0.0000     0.0000     0.0000     0.0000 </r>
        <r>   -20.6076     0.0000     0.0000     0.0000     0.0000     0.0000     0.0000     0.0000     0.0000     0.0000 </r>
        <r>   -20.4483     0.0000     0.0000     0.0000     0.0000     0.0000     0.0000     0.0000     0.0000     0.0000 </r>
        <r>   -20.2891     0.0000     0.0000     0.0000     0.0000     0.0000     0.0000     0.0000     0.0000     0.0000 </r>
        <r>   -20.1298     0.0000     0.0000     0.0000     0.0000     0.0000     0.0000     0.0000     0.0000     0.0000 </r>
        <r>   -19.9706     0.0000     0.0000     0.0000     0.0000     0.0000     0.0000     0.0000     0.0000     0.0000 </r>
        <r>   -19.8113     0.0000     0.0000     0.0000     0.0000     0.0000     0.0000     0.0000     0.0000     0.0000 </r>
        <r>   -19.6521     0.0000     0.0000     0.0000     0.0000     0.0000     0.0000     0.0000     0.0000     0.0000 </r>
        <r>   -19.4928     0.0000     0.0000     0.0000     0.0000     0.0000     0.0000     0.0000     0.0000     0.0000 </r>
        <r>   -19.3336     0.0000     0.0000     0.0000     0.0000     0.0000     0.0000     0.0000     0.0000     0.0000 </r>
        <r>   -19.1743     0.0000     0.0000     0.0000     0.0000     0.0000     0.0000     0.0000     0.0000     0.0000 </r>
        <r>   -19.0151     0.0000     0.0000     0.0000     0.0000     0.0000     0.0000     0.0000     0.0000     0.0000 </r>
        <r>   -18.8558     0.0000     0.0000     0.0000     0.0000     0.0000     0.0000     0.0000     0.0000     0.0000 </r>
        <r>   -18.6966     0.0000     0.0000     0.0000     0.0000     0.0000     0.0000     0.0000     0.0000     0.0000 </r>
        <r>   -18.5373     0.0000     0.0000     0.0000     0.0000     0.0000     0.0000     0.0000     0.0000     0.0000 </r>
        <r>   -18.3781     0.0000     0.0000     0.0000     0.0000     0.0000     0.0000     0.0000     0.0000     0.0000 </r>
        <r>   -18.2188     0.0000     0.0000     0.0000     0.0000     0.0000     0.0000     0.0000     0.0000     0.0000 </r>
        <r>   -18.0596     0.0000     0.0000     0.0000     0.0000     0.0000     0.0000     0.0000     0.0000     0.0000 </r>
        <r>   -17.9003     0.0000     0.0000     0.0000     0.0000     0.0000     0.0000     0.0000     0.0000     0.0000 </r>
        <r>   -17.7410     0.0000     0.0000     0.0000     0.0000     0.0000     0.0000     0.0000     0.0000     0.0000 </r>
        <r>   -17.5818     0.0000     0.0000     0.0000     0.0000     0.0000     0.0000     0.0000     0.0000     0.0000 </r>
        <r>   -17.4225     0.0000     0.0000     0.0000     0.0000     0.0000     0.0000     0.0000     0.0000     0.0000 </r>
        <r>   -17.2633     0.0000     0.0000     0.0000     0.0000     0.0000     0.0000     0.0000     0.0000     0.0000 </r>
        <r>   -17.1040     0.0000     0.0000     0.0000     0.0000     0.0000     0.0000     0.0000     0.0000     0.0000 </r>
        <r>   -16.9448     0.0000     0.0000     0.0000     0.0000     0.0000     0.0000     0.0000     0.0000     0.0000 </r>
        <r>   -16.7855     0.0000     0.0000     0.0000     0.0000     0.0000     0.0000     0.0000     0.0000     0.0000 </r>
        <r>   -16.6263     0.0000     0.0000     0.0000     0.0000     0.0000     0.0000     0.0000     0.0000     0.0000 </r>
        <r>   -16.4670     0.0000     0.0000     0.0000     0.0000     0.0000     0.0000     0.0000     0.0000     0.0000 </r>
        <r>   -16.3078     0.0000     0.0000     0.0000     0.0000     0.0000     0.0000     0.0000     0.0000     0.0000 </r>
        <r>   -16.1485     0.0000     0.0000     0.0000     0.0000     0.0000     0.0000     0.0000     0.0000     0.0000 </r>
        <r>   -15.9893     0.0000     0.0000     0.0000     0.0000     0.0000     0.0000     0.0000     0.0000     0.0000 </r>
        <r>   -15.8300     0.0000     0.0000     0.0000     0.0000     0.0000     0.0000     0.0000     0.0000     0.0000 </r>
        <r>   -15.6708     0.0000     0.0000     0.0000     0.0000     0.0000     0.0000     0.0000     0.0000     0.0000 </r>
        <r>   -15.5115     0.0000     0.0000     0.0000     0.0000     0.0000     0.0000     0.0000     0.0000     0.0000 </r>
        <r>   -15.3523     0.0000     0.0000     0.0000     0.0000     0.0000     0.0000     0.0000     0.0000     0.0000 </r>
        <r>   -15.1930     0.0000     0.0000     0.0000     0.0000     0.0000     0.0000     0.0000     0.0000     0.0000 </r>
        <r>   -15.0337     0.0000     0.0000     0.0000     0.0000     0.0000     0.0000     0.0000     0.0000     0.0000 </r>
        <r>   -14.8745     0.0000     0.0000     0.0000     0.0000     0.0000     0.0000     0.0000     0.0000     0.0000 </r>
        <r>   -14.7152     0.0000     0.0000     0.0000     0.0000     0.0000     0.0000     0.0000     0.0000     0.0000 </r>
        <r>   -14.5560     0.0000     0.0000     0.0000     0.0000     0.0000     0.0000     0.0000     0.0000     0.0000 </r>
        <r>   -14.3967     0.0000     0.0000     0.0000     0.0000     0.0000     0.0000     0.0000     0.0000     0.0000 </r>
        <r>   -14.2375     0.0000     0.0000     0.0000     0.0000     0.0000     0.0000     0.0000     0.0000     0.0000 </r>
        <r>   -14.0782     0.0000     0.0000     0.0000     0.0000     0.0000     0.0000     0.0000     0.0000     0.0000 </r>
        <r>   -13.9190     0.0000     0.0000     0.0000     0.0000     0.0000     0.0000     0.0000     0.0000     0.0000 </r>
        <r>   -13.7597     0.0000     0.0000     0.0000     0.0000     0.0000     0.0000     0.0000     0.0000     0.0000 </r>
        <r>   -13.6005     0.0000     0.0000     0.0000     0.0000     0.0000     0.0000     0.0000     0.0000     0.0000 </r>
        <r>   -13.4412     0.0000     0.0000     0.0000     0.0000     0.0000     0.0000     0.0000     0.0000     0.0000 </r>
        <r>   -13.2820     0.0000     0.0000     0.0000     0.0000     0.0000     0.0000     0.0000     0.0000     0.0000 </r>
        <r>   -13.1227     0.0000     0.0000     0.0000     0.0000     0.0000     0.0000     0.0000     0.0000     0.0000 </r>
        <r>   -12.9635     0.0000     0.0000     0.0000     0.0000     0.0000     0.0000     0.0000     0.0000     0.0000 </r>
        <r>   -12.8042     0.0000     0.0000     0.0000     0.0000     0.0000     0.0000     0.0000     0.0000     0.0000 </r>
        <r>   -12.6450     0.0000     0.0000     0.0000     0.0000     0.0000     0.0000     0.0000     0.0000     0.0000 </r>
[...]
        <r>    -0.7010     0.0000     0.0000     0.0000     0.0000     0.0000     0.0000     0.0000     0.0000     0.0000 </r>
        <r>    -0.5417     0.0000     0.0000     0.0000     0.0000     0.0000     0.0000     0.0000     0.0000     0.0000 </r>
        <r>    -0.3825     0.0000     0.0000     0.0000     0.0000     0.0000     0.0000     0.0000     0.0000     0.0000 </r>
        <r>    -0.2232     0.0074     0.0000     0.0000     0.0000     0.0000     0.0000     0.0000     0.0000     0.0000 </r>
        <r>    -0.0640     0.4171     0.0000     0.0000     0.0000     0.0000     0.0000     0.0000     0.0000     0.0000 </r>
        <r>     0.0953     0.0036     0.0000     0.0000     0.0000     0.0000     0.0000     0.0000     0.0000     0.0000 </r>
        <r>     0.2545     0.0000     0.0000     0.0000     0.0000     0.0000     0.0000     0.0000     0.0000     0.0000 </r>
        <r>     0.4138     0.0000     0.0000     0.0000     0.0000     0.0000     0.0000     0.0000     0.0000     0.0000 </r>
        <r>     0.5731     0.0000     0.0000     0.0000     0.0000     0.0000     0.0000     0.0000     0.0000     0.0000 </r>
        <r>     0.7323     0.0000     0.0000     0.0000     0.0000     0.0000     0.0000     0.0412     0.0000     0.0412 </r>
        <r>     0.8916     0.0000     0.0000     0.0000     0.0000     0.0000     0.0000     0.3022     0.0000     0.3021 </r>
        <r>     1.0508     0.0000     0.0000     0.0000     0.0000     0.0000     0.0000     0.0001     0.0000     0.0001 </r>
        <r>     1.2101     0.0000     0.0000     0.0000     0.0000     0.0000     0.0000     0.0000     0.0000     0.0000 </r>
        <r>     1.3693     0.0000     0.0000     0.0000     0.0000     0.0000     0.0000     0.0000     0.0000     0.0000 </r>
        <r>     1.5286     0.0000     0.0098     0.0098     0.0098     0.0000     0.0000     0.0000     0.0000     0.0000 </r>
        <r>     1.6878     0.0000     0.3085     0.3084     0.3084     0.0000     0.0000     0.0000     0.0000     0.0000 </r>
        <r>     1.8471     0.0603     0.0013     0.0013     0.0013     0.3553     0.3554     0.0000     0.3554     0.0000 </r>
        <r>     2.0063     0.2971     0.0000     0.0000     0.0000     0.1541     0.1540     0.0000     0.1540     0.0000 </r>
        <r>     2.1656     0.0001     0.0000     0.0000     0.0000     0.0000     0.0000     0.0000     0.0000     0.0000 </r>
        <r>     2.3248     0.0000     0.0000     0.0000     0.0000     0.0000     0.0000     0.0000     0.0000     0.0000 </r>
        <r>     2.4841     0.0000     0.0000     0.0000     0.0000     0.0000     0.0000     0.0094     0.0000     0.0094 </r>
        <r>     2.6433     0.0000     0.0000     0.0000     0.0000     0.0000     0.0000     0.1198     0.0000     0.1198 </r>
        <r>     2.8026     0.0000     0.0000     0.0000     0.0000     0.0000     0.0000     0.0001     0.0000     0.0001 </r>
        <r>     2.9618     0.0000     0.0000     0.0000     0.0000     0.0000     0.0000     0.0000     0.0000     0.0000 </r>
        <r>     3.1211     0.0000     0.0000     0.0000     0.0000     0.0000     0.0000     0.0000     0.0000     0.0000 </r>
        <r>     3.2804     0.0000     0.0000     0.0000     0.0000     0.0000     0.0000     0.0000     0.0000     0.0000 </r>
        <r>     3.4396     0.0000     0.0000     0.0000     0.0000     0.0000     0.0000     0.0000     0.0000     0.0000 </r>
        <r>     3.5989     0.0000     0.1114     0.1112     0.1112     0.0000     0.0000     0.0000     0.0000     0.0000 </r>
        <r>     3.7581     0.0000     0.3128     0.3123     0.3122     0.1303     0.1303     0.0000     0.1303     0.0000 </r>
        <r>     3.9174     0.1411     0.0000     0.0000     0.0000     0.0464     0.0464     0.0000     0.0464     0.0000 </r>
        <r>     4.0766     0.1737     0.0000     0.0000     0.0000     0.0000     0.0000     0.0000     0.0000     0.0000 </r>
        <r>     4.2359     0.0000     0.0001     0.0149     0.0169     0.0000     0.0000     0.0000     0.0000     0.0000 </r>
        <r>     4.3951     0.0000     0.0006     0.1137     0.1289     0.0000     0.0000     0.0000     0.0000     0.0000 </r>
        <r>     4.5544     0.0000     0.0000     0.0001     0.0001     0.0000     0.0000     0.0000     0.0000     0.0000 </r>
        <r>     4.7136     0.0000     0.0000     0.0000     0.0000     0.0000     0.0000     0.0000     0.0000     0.0000 </r>
        <r>     4.8729     0.0000     0.0000     0.0000     0.0000     0.0000     0.0000     0.0000     0.0000     0.0000 </r>
        <r>     5.0321     0.0000     0.0000     0.0000     0.0000     0.0000     0.0000     0.0000     0.0000     0.0000 </r>
        <r>     5.1914     0.0000     0.0000     0.0000     0.0000     0.0000     0.0000     0.0000     0.0000     0.0000 </r>
        <r>     5.3506     0.0000     0.0000     0.0000     0.0000     0.0000     0.0000     0.0000     0.0000     0.0000 </r>
        <r>     5.5099     0.0000     0.0000     0.0000     0.0000     0.0000     0.0000     0.0000     0.0000     0.0000 </r>
        <r>     5.6691     0.0000     0.0000     0.0000     0.0000     0.0000     0.0000     0.0000     0.0000     0.0000 </r>
        <r>     5.8284     0.0000     0.0000     0.0000     0.0000     0.0000     0.0000     0.0000     0.0000     0.0000 </r>
        <r>     5.9877     0.0000     0.0000     0.0000     0.0000     0.0000     0.0000     0.0000     0.0000     0.0000 </r>
        <r>     6.1469     0.0000     0.0000     0.0000     0.0000     0.0000     0.0000     0.0000     0.0000     0.0000 </r>
        <r>     6.3062     0.0000     0.0000     0.0000     0.0000     0.0000     0.0000     0.0000     0.0000     0.0000 </r>
        <r>     6.4654     0.0000     0.0000     0.0000     0.0000     0.0000     0.0000     0.0000     0.0000     0.0000 </r>
       </set>
      </set>
     </set>
    </array>
   </partial>
  </dos>
  <projected>
   <eigenvalues>
    <array>
     <dimension dim="1">band</dimension>
     <dimension dim="2">kpoint</dimension>
     <dimension dim="3">spin</dimension>
     <field>eigene</field>
     <field>occ</field>
     <set>
      <set comment="spin 1">
       <set comment="kpoint 1">
        <r>  -39.1389    1.0000 </r>
        <r>  -39.1387    1.0000 </r>
        <r>  -39.1382    1.0000 </r>
        <r>   -4.9908    1.0000 </r>
        <r>   -4.9904    1.0000 </r>
        <r>   -4.3872    0.9998 </r>
        <r>   -4.1308    0.0001 </r>
        <r>   -4.1305    0.0001 </r>
        <r>   -4.1299    0.0001 </r>
        <r>   -1.2471    0.0000 </r>
        <r>   -1.2471    0.0000 </r>
        <r>   -1.2470    0.0000 </r>
        <r>   -0.0667    0.0000 </r>
        <r>    0.7596    0.0000 </r>
        <r>    0.7596    0.0000 </r>
        <r>    1.7079    0.0000 </r>
        <r>    1.7079    0.0000 </r>
        <r>    1.7079    0.0000 </r>
        <r>    1.8578    0.0000 </r>
        <r>    1.8578    0.0000 </r>
        <r>    1.8579    0.0000 </r>
        <r>    2.0390    0.0000 </r>
        <r>    2.4325    0.0000 </r>
        <r>    2.4325    0.0000 </r>
        <r>    2.4325    0.0000 </r>
        <r>    2.6516    0.0000 </r>
        <r>    2.6516    0.0000 </r>
        <r>    3.5799    0.0000 </r>
        <r>    3.7200    0.0000 </r>
        <r>    3.7201    0.0000 </r>
        <r>    3.7201    0.0000 </r>
        <r>    3.9291    0.0000 </r>
        <r>    3.9291    0.0000 </r>
        <r>    3.9291    0.0000 </r>
        <r>    4.1123    0.0000 </r>
        <r>    4.2938    0.0000 </r>
       </set>
      </set>
      <set comment="spin 2">
       <set comment="kpoint 1">
        <r>  -37.5261    1.0000 </r>
        <r>  -37.5261    1.0000 </r>
        <r>  -37.5261    1.0000 </r>
        <r>   -3.9248    1.0000 </r>
        <r>   -3.3976    0.0000 </r>
        <r>   -3.3976    0.0000 </r>
        <r>   -3.3974    0.0000 </r>
        <r>   -2.6471    0.0000 </r>
        <r>   -2.6469    0.0000 </r>
        <r>   -1.0210    0.0000 </r>
        <r>   -1.0210    0.0000 </r>
        <r>   -1.0210    0.0000 </r>
        <r>   -0.1485    0.0000 </r>
        <r>    0.7739    0.0000 </r>
        <r>    0.7739    0.0000 </r>
        <r>    1.5947    0.0000 </r>
        <r>    1.5947    0.0000 </r>
        <r>    1.5947    0.0000 </r>
        <r>    1.8288    0.0000 </r>
        <r>    1.8288    0.0000 </r>
        <r>    1.8288    0.0000 </r>
        <r>    1.8810    0.0000 </r>
        <r>    2.3178    0.0000 </r>
        <r>    2.3178    0.0000 </r>
        <r>    2.3178    0.0000 </r>
        <r>    2.5356    0.0000 </r>
        <r>    2.5356    0.0000 </r>
        <r>    3.4563    0.0000 </r>
        <r>    3.6213    0.0000 </r>
        <r>    3.6213    0.0000 </r>
        <r>    3.6213    0.0000 </r>
        <r>    3.7356    0.0000 </r>
        <r>    3.7356    0.0000 </r>
        <r>    3.7356    0.0000 </r>
        <r>    3.9220    0.0000 </r>
        <r>    4.2782    0.0000 </r>
       </set>
      </set>
     </set>
    </array>
   </eigenvalues>
   <array>
    <dimension dim="1">ion</dimension>
    <dimension dim="2">band</dimension>
    <dimension dim="3">kpoint</dimension>
    <dimension dim="4">spin</dimension>
    <field>    s</field>
    <field>   py</field>
    <field>   pz</field>
    <field>   px</field>
    <field>  dxy</field>
    <field>  dyz</field>
    <field>  dz2</field>
    <field>  dxz</field>
    <field>x2-y2</field>
    <set>
     <set comment="spin1">
      <set comment="kpoint 1">
       <set comment="band 1">
        <r>  0.0000  0.0000  0.9907  0.0000  0.0000  0.0000  0.0000  0.0000  0.0000 </r>
       </set>
       <set comment="band 2">
        <r>  0.0000  0.9907  0.0000  0.0000  0.0000  0.0000  0.0000  0.0000  0.0000 </r>
       </set>
       <set comment="band 3">
        <r>  0.0000  0.0000  0.0000  0.9907  0.0000  0.0000  0.0000  0.0000  0.0000 </r>
       </set>
       <set comment="band 4">
        <r>  0.0000  0.0000  0.0000  0.0000  0.0000  0.0000  0.2030  0.0000  0.6593 </r>
       </set>
       <set comment="band 5">
        <r>  0.0000  0.0000  0.0000  0.0000  0.0000  0.0000  0.6593  0.0000  0.2030 </r>
       </set>
       <set comment="band 6">
        <r>  0.2456  0.0000  0.0000  0.0000  0.0000  0.0000  0.0000  0.0000  0.0000 </r>
       </set>
       <set comment="band 7">
        <r>  0.0000  0.0000  0.0000  0.0000  0.0000  0.8495  0.0000  0.0000  0.0000 </r>
       </set>
       <set comment="band 8">
        <r>  0.0000  0.0000  0.0000  0.0000  0.0000  0.0000  0.0000  0.8495  0.0000 </r>
       </set>
       <set comment="band 9">
        <r>  0.0000  0.0000  0.0000  0.0000  0.8495  0.0000  0.0000  0.0000  0.0000 </r>
       </set>
       <set comment="band 10">
        <r>  0.0000  0.0000  0.0000  0.0972  0.0000  0.0000  0.0000  0.0000  0.0000 </r>
       </set>
       <set comment="band 11">
        <r>  0.0000  0.0972  0.0000  0.0000  0.0000  0.0000  0.0000  0.0000  0.0000 </r>
       </set>
       <set comment="band 12">
        <r>  0.0000  0.0000  0.0972  0.0000  0.0000  0.0000  0.0000  0.0000  0.0000 </r>
       </set>
       <set comment="band 13">
        <r>  0.0365  0.0000  0.0000  0.0000  0.0000  0.0000  0.0000  0.0000  0.0000 </r>
       </set>
       <set comment="band 14">
        <r>  0.0000  0.0000  0.0000  0.0000  0.0000  0.0000  0.0126  0.0000  0.0028 </r>
       </set>
       <set comment="band 15">
        <r>  0.0000  0.0000  0.0000  0.0000  0.0000  0.0000  0.0028  0.0000  0.0126 </r>
       </set>
       <set comment="band 16">
        <r>  0.0000  0.0011  0.0000  0.0278  0.0000  0.0000  0.0000  0.0000  0.0000 </r>
       </set>
       <set comment="band 17">
        <r>  0.0000  0.0277  0.0002  0.0011  0.0000  0.0000  0.0000  0.0000  0.0000 </r>
       </set>
       <set comment="band 18">
        <r>  0.0000  0.0002  0.0288  0.0000  0.0000  0.0000  0.0000  0.0000  0.0000 </r>
       </set>
       <set comment="band 19">
        <r>  0.0000  0.0000  0.0000  0.0000  0.0000  0.0362  0.0000  0.0000  0.0000 </r>
       </set>
       <set comment="band 20">
        <r>  0.0000  0.0000  0.0000  0.0000  0.0000  0.0000  0.0000  0.0362  0.0000 </r>
       </set>
       <set comment="band 21">
        <r>  0.0000  0.0000  0.0000  0.0000  0.0362  0.0000  0.0000  0.0000  0.0000 </r>
       </set>
       <set comment="band 22">
        <r>  0.0277  0.0000  0.0000  0.0000  0.0000  0.0000  0.0000  0.0000  0.0000 </r>
       </set>
       <set comment="band 23">
        <r>  0.0000  0.0000  0.0000  0.0000  0.0000  0.0000  0.0000  0.0000  0.0000 </r>
       </set>
       <set comment="band 24">
        <r>  0.0000  0.0000  0.0000  0.0000  0.0000  0.0000  0.0000  0.0000  0.0000 </r>
       </set>
       <set comment="band 25">
        <r>  0.0000  0.0000  0.0000  0.0000  0.0000  0.0000  0.0000  0.0000  0.0000 </r>
       </set>
       <set comment="band 26">
        <r>  0.0000  0.0000  0.0000  0.0000  0.0000  0.0000  0.0067  0.0000  0.0006 </r>
       </set>
       <set comment="band 27">
        <r>  0.0000  0.0000  0.0000  0.0000  0.0000  0.0000  0.0006  0.0000  0.0067 </r>
       </set>
       <set comment="band 28">
        <r>  0.0000  0.0000  0.0000  0.0000  0.0000  0.0000  0.0000  0.0000  0.0000 </r>
       </set>
       <set comment="band 29">
        <r>  0.0000  0.0377  0.0038  0.0025  0.0000  0.0000  0.0000  0.0000  0.0000 </r>
       </set>
       <set comment="band 30">
        <r>  0.0000  0.0026  0.0000  0.0413  0.0000  0.0000  0.0000  0.0000  0.0000 </r>
       </set>
       <set comment="band 31">
        <r>  0.0000  0.0038  0.0401  0.0001  0.0000  0.0000  0.0000  0.0000  0.0000 </r>
       </set>
       <set comment="band 32">
        <r>  0.0000  0.0000  0.0000  0.0000  0.0000  0.0115  0.0000  0.0000  0.0000 </r>
       </set>
       <set comment="band 33">
        <r>  0.0000  0.0000  0.0000  0.0000  0.0115  0.0000  0.0000  0.0000  0.0000 </r>
       </set>
       <set comment="band 34">
        <r>  0.0000  0.0000  0.0000  0.0000  0.0000  0.0000  0.0000  0.0115  0.0000 </r>
       </set>
       <set comment="band 35">
        <r>  0.0284  0.0000  0.0000  0.0000  0.0000  0.0000  0.0000  0.0000  0.0000 </r>
       </set>
       <set comment="band 36">
        <r>  0.0000  0.0133  0.0018  0.0008  0.0000  0.0000  0.0000  0.0000  0.0000 </r>
       </set>
      </set>
     </set>
     <set comment="spin2">
      <set comment="kpoint 1">
       <set comment="band 1">
        <r>  0.0000  0.0000  0.9905  0.0000  0.0000  0.0000  0.0000  0.0000  0.0000 </r>
       </set>
       <set comment="band 2">
        <r>  0.0000  0.9905  0.0000  0.0000  0.0000  0.0000  0.0000  0.0000  0.0000 </r>
       </set>
       <set comment="band 3">
        <r>  0.0000  0.0000  0.0000  0.9905  0.0000  0.0000  0.0000  0.0000  0.0000 </r>
       </set>
       <set comment="band 4">
        <r>  0.2189  0.0000  0.0000  0.0000  0.0000  0.0000  0.0000  0.0000  0.0000 </r>
       </set>
       <set comment="band 5">
        <r>  0.0000  0.0000  0.0000  0.0000  0.0000  0.8303  0.0000  0.0000  0.0000 </r>
       </set>
       <set comment="band 6">
        <r>  0.0000  0.0000  0.0000  0.0000  0.0000  0.0000  0.0000  0.8303  0.0000 </r>
       </set>
       <set comment="band 7">
        <r>  0.0000  0.0000  0.0000  0.0000  0.8303  0.0000  0.0000  0.0000  0.0000 </r>
       </set>
       <set comment="band 8">
        <r>  0.0000  0.0000  0.0000  0.0000  0.0000  0.0000  0.0039  0.0000  0.8023 </r>
       </set>
       <set comment="band 9">
        <r>  0.0000  0.0000  0.0000  0.0000  0.0000  0.0000  0.8023  0.0000  0.0039 </r>
       </set>
       <set comment="band 10">
        <r>  0.0000  0.0798  0.0000  0.0000  0.0000  0.0000  0.0000  0.0000  0.0000 </r>
       </set>
       <set comment="band 11">
        <r>  0.0000  0.0000  0.0798  0.0000  0.0000  0.0000  0.0000  0.0000  0.0000 </r>
       </set>
       <set comment="band 12">
        <r>  0.0000  0.0000  0.0000  0.0798  0.0000  0.0000  0.0000  0.0000  0.0000 </r>
       </set>
       <set comment="band 13">
        <r>  0.0341  0.0000  0.0000  0.0000  0.0000  0.0000  0.0000  0.0000  0.0000 </r>
       </set>
       <set comment="band 14">
        <r>  0.0000  0.0000  0.0000  0.0000  0.0000  0.0000  0.0001  0.0000  0.0273 </r>
       </set>
       <set comment="band 15">
        <r>  0.0000  0.0000  0.0000  0.0000  0.0000  0.0000  0.0273  0.0000  0.0001 </r>
       </set>
       <set comment="band 16">
        <r>  0.0000  0.0254  0.0000  0.0000  0.0000  0.0000  0.0000  0.0000  0.0000 </r>
       </set>
       <set comment="band 17">
        <r>  0.0000  0.0000  0.0253  0.0002  0.0000  0.0000  0.0000  0.0000  0.0000 </r>
       </set>
       <set comment="band 18">
        <r>  0.0000  0.0000  0.0002  0.0253  0.0000  0.0000  0.0000  0.0000  0.0000 </r>
       </set>
       <set comment="band 19">
        <r>  0.0000  0.0000  0.0000  0.0000  0.0000  0.0406  0.0000  0.0000  0.0000 </r>
       </set>
       <set comment="band 20">
        <r>  0.0000  0.0000  0.0000  0.0000  0.0000  0.0000  0.0000  0.0406  0.0000 </r>
       </set>
       <set comment="band 21">
        <r>  0.0000  0.0000  0.0000  0.0000  0.0406  0.0000  0.0000  0.0000  0.0000 </r>
       </set>
       <set comment="band 22">
        <r>  0.0285  0.0000  0.0000  0.0000  0.0000  0.0000  0.0000  0.0000  0.0000 </r>
       </set>
       <set comment="band 23">
        <r>  0.0000  0.0000  0.0000  0.0000  0.0000  0.0000  0.0000  0.0000  0.0000 </r>
       </set>
       <set comment="band 24">
        <r>  0.0000  0.0000  0.0000  0.0000  0.0000  0.0000  0.0000  0.0000  0.0000 </r>
       </set>
       <set comment="band 25">
        <r>  0.0000  0.0000  0.0000  0.0000  0.0000  0.0000  0.0000  0.0000  0.0000 </r>
       </set>
       <set comment="band 26">
        <r>  0.0000  0.0000  0.0000  0.0000  0.0000  0.0000  0.0000  0.0000  0.0103 </r>
       </set>
       <set comment="band 27">
        <r>  0.0000  0.0000  0.0000  0.0000  0.0000  0.0000  0.0103  0.0000  0.0000 </r>
       </set>
       <set comment="band 28">
        <r>  0.0000  0.0000  0.0000  0.0000  0.0000  0.0000  0.0000  0.0000  0.0000 </r>
       </set>
       <set comment="band 29">
        <r>  0.0000  0.0001  0.0161  0.0175  0.0000  0.0000  0.0000  0.0000  0.0000 </r>
       </set>
       <set comment="band 30">
        <r>  0.0000  0.0337  0.0001  0.0000  0.0000  0.0000  0.0000  0.0000  0.0000 </r>
       </set>
       <set comment="band 31">
        <r>  0.0000  0.0000  0.0175  0.0162  0.0000  0.0000  0.0000  0.0000  0.0000 </r>
       </set>
       <set comment="band 32">
        <r>  0.0000  0.0000  0.0000  0.0000  0.0000  0.0141  0.0000  0.0000  0.0000 </r>
       </set>
       <set comment="band 33">
        <r>  0.0000  0.0000  0.0000  0.0000  0.0000  0.0000  0.0000  0.0141  0.0000 </r>
       </set>
       <set comment="band 34">
        <r>  0.0000  0.0000  0.0000  0.0000  0.0141  0.0000  0.0000  0.0000  0.0000 </r>
       </set>
       <set comment="band 35">
        <r>  0.0251  0.0000  0.0000  0.0000  0.0000  0.0000  0.0000  0.0000  0.0000 </r>
       </set>
       <set comment="band 36">
        <r>  0.0000  0.0001  0.0102  0.0116  0.0000  0.0000  0.0000  0.0000  0.0000 </r>
       </set>
      </set>
     </set>
    </set>
   </array>
  </projected>
 </calculation>
 <structure name="finalpos" >
  <crystal>
   <varray name="basis" >
    <v>      10.00000000       0.00000000       0.00000000 </v>
    <v>       0.00000000      10.00000000       0.00000000 </v>
    <v>       0.00000000       0.00000000      10.00000000 </v>
   </varray>
   <i name="volume">   1000.00000000 </i>
   <varray name="rec_basis" >
    <v>       0.10000000       0.00000000       0.00000000 </v>
    <v>       0.00000000       0.10000000       0.00000000 </v>
    <v>       0.00000000       0.00000000       0.10000000 </v>
   </varray>
  </crystal>
  <varray name="positions" >
   <v>       0.50000000       0.50000000       0.50000000 </v>
  </varray>
 </structure>
</modeling>
