       N       E                     dE             d eps       ncg     rms          rms(c)
DAV:   1     0.119311415966E+02    0.11931E+02   -0.80583E+03   288   0.262E+02
DAV:   2    -0.358717340517E+00   -0.12290E+02   -0.12239E+02   288   0.527E+01
DAV:   3    -0.363571145715E+00   -0.48538E-02   -0.48533E-02   144   0.897E-01
DAV:   4    -0.363624538637E+00   -0.53393E-04   -0.53393E-04   180   0.108E-01
DAV:   5    -0.363625374614E+00   -0.83598E-06   -0.83590E-06   144   0.100E-02    0.131E+01
DAV:   6    -0.296577073525E+01   -0.26021E+01   -0.29881E+01   144   0.171E+01    0.286E+01
DAV:   7    -0.522870686594E+00    0.24429E+01   -0.70484E+00   180   0.123E+01    0.154E+01
DAV:   8    -0.544896808948E+00   -0.22026E-01   -0.40922E+00   144   0.452E+00    0.106E+01
DAV:   9    -0.285141463509E+00    0.25976E+00   -0.46714E-01   144   0.179E+00    0.147E+00
DAV:  10    -0.287253557751E+00   -0.21121E-02   -0.82791E-04   144   0.769E-02    0.148E+00
DAV:  11    -0.285290535390E+00    0.19630E-02   -0.28486E-04   144   0.706E-02    0.151E+00
DAV:  12    -0.279854715972E+00    0.54358E-02   -0.29411E-03   144   0.174E-01    0.172E+00
DAV:  13    -0.291653084484E+00   -0.11798E-01   -0.17404E-03   180   0.151E-01    0.323E+00
DAV:  14    -0.293152183495E+00   -0.14991E-02   -0.22512E-01   144   0.699E-01    0.869E+00
DAV:  15    -0.102170534657E+00    0.19098E+00   -0.10659E-01   180   0.117E+00    0.939E+00
DAV:  16    -0.329405660395E+00   -0.22724E+00   -0.33517E+00   180   0.221E+00    0.554E+00
DAV:  17    -0.116481745557E+01   -0.83541E+00   -0.35100E-01   180   0.222E+00    0.187E+01
DAV:  18    -0.825924189232E+00    0.33889E+00   -0.37663E-01   180   0.245E+00    0.160E+01
DAV:  19    -0.652772684286E+00    0.17315E+00   -0.77359E-02   144   0.109E+00    0.141E+01
DAV:  20    -0.432511947042E+00    0.22026E+00   -0.16034E-01   180   0.154E+00    0.920E+00
DAV:  21    -0.393433700030E+00    0.39078E-01   -0.86761E-03   252   0.371E-01    0.481E+00
DAV:  22    -0.393613610363E+00   -0.17991E-03   -0.21253E-02   144   0.565E-01    0.378E+00
DAV:  23    -0.330977876854E+00    0.62636E-01   -0.21055E-01   144   0.352E-01    0.657E+00
DAV:  24    -0.199773268402E+00    0.13120E+00   -0.30928E-02   180   0.721E-01    0.107E+01
DAV:  25     0.258097037090E-01    0.22558E+00   -0.28521E-02   144   0.587E-01    0.110E+01
DAV:  26     0.682887138869E-01    0.42479E-01   -0.49542E-04   144   0.858E-02    0.110E+01
DAV:  27     0.580775827757E-01   -0.10211E-01   -0.26612E-03   144   0.192E-01    0.107E+01
DAV:  28    -0.550912365156E-01   -0.11317E+00   -0.20973E-02   144   0.581E-01    0.980E+00
DAV:  29    -0.173646239260E+00   -0.11856E+00   -0.53123E-03   144   0.309E-01    0.927E+00
DAV:  30    -0.256953500940E+00   -0.83307E-01   -0.23060E-03   144   0.149E-01    0.916E+00
DAV:  31    -0.251207147765E+00    0.57464E-02   -0.36525E-05   144   0.149E-02    0.915E+00
DAV:  32    -0.261672333369E+00   -0.10465E-01   -0.80882E-05   144   0.349E-02    0.918E+00
DAV:  33    -0.312206698513E+00   -0.50534E-01   -0.17914E-03   144   0.111E-01    0.906E+00
DAV:  34    -0.349445536747E+00   -0.37239E-01   -0.20242E-03   180   0.149E-01    0.876E+00
DAV:  35    -0.445633846783E+00   -0.96188E-01   -0.11790E-02   180   0.413E-01    0.695E+00
DAV:  36    -0.530806515202E+00   -0.85173E-01   -0.20472E-02   144   0.449E-01    0.475E+00
DAV:  37    -0.662435310162E+00   -0.13163E+00   -0.18267E-02   144   0.496E-01    0.429E+00
DAV:  38    -0.666547312136E+00   -0.41120E-02   -0.12336E-03   144   0.975E-02    0.328E+00
DAV:  39    -0.686126924021E+00   -0.19580E-01   -0.17798E-02   144   0.172E-01    0.887E-01
DAV:  40    -0.702431485347E+00   -0.16305E-01   -0.10138E-02   144   0.435E-01    0.404E+00
DAV:  41    -0.654640682359E+00    0.47791E-01   -0.19449E-02   144   0.528E-01    0.438E+00
DAV:  42    -0.638263924386E+00    0.16377E-01   -0.78158E-04   144   0.922E-02    0.445E+00
DAV:  43    -0.626781107788E+00    0.11483E-01   -0.23724E-03   144   0.181E-01    0.430E+00
DAV:  44    -0.623274567066E+00    0.35065E-02   -0.60243E-05   144   0.217E-02    0.428E+00
DAV:  45    -0.656170326510E+00   -0.32896E-01   -0.57610E-03   144   0.262E-01    0.448E+00
DAV:  46    -0.681619866885E+00   -0.25450E-01   -0.20085E-03   180   0.160E-01    0.458E+00
DAV:  47    -0.710026268238E+00   -0.28406E-01   -0.28814E-03   144   0.176E-01    0.470E+00
DAV:  48    -0.736619680164E+00   -0.26593E-01   -0.24152E-03   144   0.132E-01    0.468E+00
DAV:  49    -0.735605720956E+00    0.10140E-02   -0.32828E-04   180   0.530E-02    0.465E+00
DAV:  50    -0.734619376379E+00    0.98634E-03   -0.26587E-04   144   0.626E-02    0.458E+00
DAV:  51    -0.748767569524E+00   -0.14148E-01   -0.30505E-03   144   0.199E-01    0.437E+00
DAV:  52    -0.753365144512E+00   -0.45976E-02   -0.49928E-05   144   0.272E-02    0.435E+00
DAV:  53    -0.756449074330E+00   -0.30839E-02   -0.10208E-05   144   0.110E-02    0.435E+00
DAV:  54    -0.758349602799E+00   -0.19005E-02   -0.45177E-06   144   0.959E-03    0.434E+00
DAV:  55    -0.758648381450E+00   -0.29878E-03   -0.75662E-07   144   0.322E-03    0.434E+00
DAV:  56    -0.775104127647E+00   -0.16456E-01   -0.13693E-03   144   0.154E-01    0.419E+00
DAV:  57    -0.774833478551E+00    0.27065E-03   -0.75386E-06   180   0.115E-02    0.419E+00
DAV:  58    -0.774903253981E+00   -0.69775E-04   -0.30182E-07   144   0.163E-03    0.419E+00
DAV:  59    -0.775541925111E+00   -0.63867E-03   -0.10346E-04   144   0.371E-02    0.423E+00
DAV:  60    -0.774672925626E+00    0.86900E-03   -0.45070E-05   144   0.245E-02    0.421E+00
DAV:  61    -0.763586227036E+00    0.11087E-01   -0.25587E-03   144   0.179E-01    0.404E+00
DAV:  62    -0.757104455172E+00    0.64818E-02   -0.27643E-03   180   0.192E-01    0.385E+00
DAV:  63    -0.744668795583E+00    0.12436E-01   -0.98603E-03   180   0.371E-01    0.349E+00
DAV:  64    -0.736535395534E+00    0.81334E-02   -0.57075E-03   216   0.281E-01    0.322E+00
DAV:  65    -0.733718463999E+00    0.28169E-02   -0.69393E-04   180   0.978E-02    0.312E+00
DAV:  66    -0.736831945053E+00   -0.31135E-02   -0.31818E-03   144   0.180E-01    0.295E+00
DAV:  67    -0.726336332122E+00    0.10496E-01   -0.54937E-02   180   0.842E-01    0.202E+00
DAV:  68    -0.731384313524E+00   -0.50480E-02   -0.19634E-02   144   0.501E-01    0.103E+00
DAV:  69    -0.757935813125E+00   -0.26551E-01   -0.61021E-02   144   0.901E-01    0.241E+00
DAV:  70    -0.741226729391E+00    0.16709E-01   -0.93408E-02   144   0.949E-01    0.269E+00
DAV:  71    -0.751588509056E+00   -0.10362E-01   -0.14471E-01   144   0.116E+00    0.256E+00
DAV:  72    -0.738830638888E+00    0.12758E-01   -0.62288E-02   144   0.910E-01    0.150E-01
DAV:  73    -0.749061247970E+00   -0.10231E-01   -0.31661E-03   144   0.203E-01    0.444E-01
DAV:  74    -0.749545720975E+00   -0.48447E-03   -0.23059E-03   144   0.184E-01    0.557E-01
DAV:  75    -0.748695770676E+00    0.84995E-03   -0.21761E-03   144   0.177E-01    0.119E-01
DAV:  76    -0.749781251602E+00   -0.10855E-02   -0.14584E-03   144   0.141E-01    0.609E-01
DAV:  77    -0.747737624197E+00    0.20436E-02   -0.86932E-04   144   0.112E-01    0.450E-01
DAV:  78    -0.747639191525E+00    0.98433E-04   -0.99398E-06   144   0.117E-02    0.469E-01
DAV:  79    -0.747614035024E+00    0.25157E-04   -0.16089E-04   144   0.448E-02
   1 F= -.74761404E+00 E0= -.72952393E+00  d E =-.747614E+00  mag=     2.0000
