<?xml version="1.0" encoding="ISO-8859-1"?>
<modeling>
 <generator>
  <i name="program" type="string">vasp </i>
  <i name="version" type="string">5.4.4.18Apr17-6-g9f103f2a35  </i>
  <i name="subversion" type="string">(build Nov 08 2019 15:19:53) gamma-only         parallel </i>
  <i name="platform" type="string">LinuxIFC </i>
  <i name="date" type="string">2020 11 30 </i>
  <i name="time" type="string">09:38:04 </i>
 </generator>
 <incar>
  <i type="string" name="PREC">accurate</i>
  <i type="string" name="ALGO"> N</i>
  <i type="int" name="ISPIN">     2</i>
  <i type="int" name="NELM">   300</i>
  <i type="int" name="IBRION">     2</i>
  <i name="EDIFF">      0.00005000</i>
  <i type="int" name="NSW">    99</i>
  <i type="int" name="ISIF">     2</i>
  <i name="ENCUT">    520.00000000</i>
  <v name="MAGMOM">      0.60000000</v>
  <i type="string" name="LREAL"> Auto</i>
  <i type="int" name="ISMEAR">     0</i>
  <i name="SIGMA">      0.05000000</i>
  <i type="logical" name="LWAVE"> F  </i>
  <i type="int" name="LORBIT">    11</i>
  <i type="logical" name="LASPH"> T  </i>
  <v type="int" name="KPOINT_BSE">    -1     0     0     0</v>
  <i type="int" name="NELM">   300</i>
  <i type="logical" name="LASPH"> T  </i>
 </incar>
 <structure name="primitive_cell" >
  <crystal>
   <varray name="basis" >
    <v>      10.00000000       0.00000000       0.00000000 </v>
    <v>       0.00000000      10.00000000       0.00000000 </v>
    <v>       0.00000000       0.00000000      10.00000000 </v>
   </varray>
   <i name="volume">   1000.00000000 </i>
   <varray name="rec_basis" >
    <v>       0.10000000       0.00000000       0.00000000 </v>
    <v>       0.00000000       0.10000000       0.00000000 </v>
    <v>       0.00000000       0.00000000       0.10000000 </v>
   </varray>
  </crystal>
  <varray name="positions" >
   <v>      -0.50000000      -0.50000000      -0.50000000 </v>
  </varray>
 </structure>
 <varray name="primitive_index" >
  <v type="int" >        1 </v>
 </varray>
 <kpoints>
  <generation param="Gamma">
   <v type="int" name="divisions">       1        1        1 </v>
   <v name="usershift">      0.00000000       0.00000000       0.00000000 </v>
   <v name="genvec1">      1.00000000       0.00000000       0.00000000 </v>
   <v name="genvec2">      0.00000000       1.00000000       0.00000000 </v>
   <v name="genvec3">      0.00000000       0.00000000       1.00000000 </v>
   <v name="shift">      0.00000000       0.00000000       0.00000000 </v>
  </generation>
  <varray name="kpointlist" >
   <v>       0.00000000       0.00000000       0.00000000 </v>
  </varray>
  <varray name="weights" >
   <v>       1.00000000 </v>
  </varray>
 </kpoints>
 <parameters>
  <separator name="general" >
   <i type="string" name="SYSTEM">unknown system</i>
   <i type="logical" name="LCOMPAT"> F  </i>
  </separator>
  <separator name="electronic" >
   <i type="string" name="PREC">accura</i>
   <i name="ENMAX">    520.00000000</i>
   <i name="ENAUG">    703.44300000</i>
   <i name="EDIFF">      0.00005000</i>
   <i type="int" name="IALGO">    38</i>
   <i type="int" name="IWAVPR">    11</i>
   <i type="int" name="NBANDS">    36</i>
   <i name="NELECT">     16.00000000</i>
   <i type="int" name="TURBO">     0</i>
   <i type="int" name="IRESTART">     0</i>
   <i type="int" name="NREBOOT">     0</i>
   <i type="int" name="NMIN">     0</i>
   <i name="EREF">      0.00000000</i>
   <separator name="electronic smearing" >
    <i type="int" name="ISMEAR">     0</i>
    <i name="SIGMA">      0.05000000</i>
    <i name="KSPACING">      0.50000000</i>
    <i type="logical" name="KGAMMA"> T  </i>
   </separator>
   <separator name="electronic projectors" >
    <i type="logical" name="LREAL"> T  </i>
    <v name="ROPT">     -0.00025000</v>
    <i type="int" name="LMAXPAW">  -100</i>
    <i type="int" name="LMAXMIX">     2</i>
    <i type="logical" name="NLSPLINE"> F  </i>
   </separator>
   <separator name="electronic startup" >
    <i type="int" name="ISTART">     0</i>
    <i type="int" name="ICHARG">     2</i>
    <i type="int" name="INIWAV">     1</i>
   </separator>
   <separator name="electronic spin" >
    <i type="int" name="ISPIN">     2</i>
    <i type="logical" name="LNONCOLLINEAR"> F  </i>
    <v name="MAGMOM">      0.60000000</v>
    <i name="NUPDOWN">     -1.00000000</i>
    <i type="logical" name="LSORBIT"> F  </i>
    <v name="SAXIS">      0.00000000      0.00000000      1.00000000</v>
    <i type="logical" name="LSPIRAL"> F  </i>
    <v name="QSPIRAL">      0.00000000      0.00000000      0.00000000</v>
    <i type="logical" name="LZEROZ"> F  </i>
   </separator>
   <separator name="electronic exchange-correlation" >
    <i type="logical" name="LASPH"> T  </i>
    <i type="logical" name="LMETAGGA"> F  </i>
   </separator>
   <separator name="electronic convergence" >
    <i type="int" name="NELM">   300</i>
    <i type="int" name="NELMDL">     0</i>
    <i type="int" name="NELMIN">     2</i>
    <i name="ENINI">    520.00000000</i>
    <separator name="electronic convergence detail" >
     <i type="logical" name="LDIAG"> T  </i>
     <i type="logical" name="LSUBROT"> F  </i>
     <i name="WEIMIN">      0.00100000</i>
     <i name="EBREAK">      0.00000035</i>
     <i name="DEPER">      0.30000000</i>
     <i type="int" name="NRMM">     4</i>
     <i name="TIME">      0.40000000</i>
    </separator>
   </separator>
   <separator name="electronic mixer" >
    <i name="AMIX">      0.40000000</i>
    <i name="BMIX">      1.00000000</i>
    <i name="AMIN">      0.10000000</i>
    <i name="AMIX_MAG">      1.60000000</i>
    <i name="BMIX_MAG">      1.00000000</i>
    <separator name="electronic mixer details" >
     <i type="int" name="IMIX">     4</i>
     <i type="logical" name="MIXFIRST"> F  </i>
     <i type="int" name="MAXMIX">   -45</i>
     <i name="WC">    100.00000000</i>
     <i type="int" name="INIMIX">     1</i>
     <i type="int" name="MIXPRE">     1</i>
     <i type="int" name="MREMOVE">     5</i>
    </separator>
   </separator>
   <separator name="electronic dipolcorrection" >
    <i type="logical" name="LDIPOL"> F  </i>
    <i type="logical" name="LMONO"> F  </i>
    <i type="int" name="IDIPOL">     0</i>
    <i name="EPSILON">      1.00000000</i>
    <v name="DIPOL">   -100.00000000   -100.00000000   -100.00000000</v>
    <i name="EFIELD">      0.00000000</i>
   </separator>
  </separator>
  <separator name="grids" >
   <i type="int" name="NGX">    80</i>
   <i type="int" name="NGY">    80</i>
   <i type="int" name="NGZ">    80</i>
   <i type="int" name="NGXF">   160</i>
   <i type="int" name="NGYF">   160</i>
   <i type="int" name="NGZF">   160</i>
   <i type="logical" name="ADDGRID"> F  </i>
  </separator>
  <separator name="ionic" >
   <i type="int" name="NSW">    99</i>
   <i type="int" name="IBRION">     2</i>
   <i type="int" name="MDALGO">     0</i>
   <i type="int" name="ISIF">     2</i>
   <i name="PSTRESS">      0.00000000</i>
   <i name="EDIFFG">      0.00050000</i>
   <i type="int" name="NFREE">     1</i>
   <i name="POTIM">      0.50000000</i>
   <i name="SMASS">     -3.00000000</i>
   <i name="SCALEE">      1.00000000</i>
  </separator>
  <separator name="ionic md" >
   <i name="TEBEG">      0.00010000</i>
   <i name="TEEND">      0.00010000</i>
   <i type="int" name="NBLOCK">     1</i>
   <i type="int" name="KBLOCK">    99</i>
   <i type="int" name="NPACO">   256</i>
   <i name="APACO">     16.00000000</i>
  </separator>
  <separator name="symmetry" >
   <i type="int" name="ISYM">     2</i>
   <i name="SYMPREC">      0.00001000</i>
  </separator>
  <separator name="dos" >
   <i type="int" name="LORBIT">    11</i>
   <v name="RWIGS">     -1.00000000</v>
   <i type="int" name="NEDOS">   301</i>
   <i name="EMIN">     10.00000000</i>
   <i name="EMAX">    -10.00000000</i>
   <i name="EFERMI">      0.00000000</i>
  </separator>
  <separator name="writing" >
   <i type="int" name="NWRITE">     2</i>
   <i type="logical" name="LWAVE"> F  </i>
   <i type="logical" name="LDOWNSAMPLE"> F  </i>
   <i type="logical" name="LCHARG"> T  </i>
   <i type="logical" name="LPARD"> F  </i>
   <i type="logical" name="LVTOT"> F  </i>
   <i type="logical" name="LVHAR"> F  </i>
   <i type="logical" name="LELF"> F  </i>
   <i type="logical" name="LOPTICS"> F  </i>
   <v name="STM">      0.00000000      0.00000000      0.00000000      0.00000000      0.00000000      0.00000000      0.00000000</v>
  </separator>
  <separator name="performance" >
   <i type="int" name="NPAR">    36</i>
   <i type="int" name="NSIM">     4</i>
   <i type="int" name="NBLK">    -1</i>
   <i type="logical" name="LPLANE"> T  </i>
   <i type="logical" name="LSCALAPACK"> T  </i>
   <i type="logical" name="LSCAAWARE"> F  </i>
   <i type="logical" name="LSCALU"> F  </i>
   <i type="logical" name="LASYNC"> F  </i>
   <i type="logical" name="LORBITALREAL"> F  </i>
  </separator>
  <separator name="miscellaneous" >
   <i type="int" name="IDIOT">     3</i>
   <i type="int" name="ISPECIAL">     0</i>
   <i type="logical" name="LMUSIC"> F  </i>
   <v name="POMASS">     58.69000000</v>
   <v name="DARWINR">      0.00000000</v>
   <v name="DARWINV">      1.00000000</v>
   <i type="logical" name="LCORR"> T  </i>
  </separator>
  <i type="logical" name="GGA_COMPAT"> T  </i>
  <i type="logical" name="LBERRY"> F  </i>
  <i type="int" name="ICORELEVEL">     0</i>
  <i type="logical" name="LDAU"> F  </i>
  <i type="int" name="I_CONSTRAINED_M">     0</i>
  <separator name="electronic exchange-correlation" >
   <i type="string" name="GGA">--</i>
   <i type="int" name="VOSKOWN">     0</i>
   <i type="logical" name="LHFCALC"> F  </i>
   <i type="string" name="PRECFOCK"></i>
   <i type="logical" name="LSYMGRAD"> F  </i>
   <i type="logical" name="LHFONE"> F  </i>
   <i type="logical" name="LRHFCALC"> F  </i>
   <i type="logical" name="LTHOMAS"> F  </i>
   <i type="logical" name="LMODELHF"> F  </i>
   <i name="ENCUT4O">     -1.00000000</i>
   <i type="int" name="EXXOEP">     0</i>
   <i type="int" name="FOURORBIT">     0</i>
   <i name="AEXX">      0.00000000</i>
   <i name="HFALPHA">      0.00000000</i>
   <i name="MCALPHA">      0.00000000</i>
   <i name="ALDAX">      1.00000000</i>
   <i name="AGGAX">      1.00000000</i>
   <i name="ALDAC">      1.00000000</i>
   <i name="AGGAC">      1.00000000</i>
   <i type="int" name="NKREDX">     1</i>
   <i type="int" name="NKREDY">     1</i>
   <i type="int" name="NKREDZ">     1</i>
   <i type="logical" name="SHIFTRED"> F  </i>
   <i type="logical" name="ODDONLY"> F  </i>
   <i type="logical" name="EVENONLY"> F  </i>
   <i type="int" name="LMAXFOCK">     0</i>
   <i type="int" name="NMAXFOCKAE">     0</i>
   <i type="logical" name="LFOCKAEDFT"> F  </i>
   <i name="HFSCREEN">      0.00000000</i>
   <i name="HFSCREENC">      0.00000000</i>
   <i type="int" name="NBANDSGWLOW">     0</i>
  </separator>
  <separator name="vdW DFT" >
   <i type="logical" name="LUSE_VDW"> F  </i>
   <i name="Zab_VDW">     -0.84910000</i>
   <i name="PARAM1">      0.12340000</i>
   <i name="PARAM2">      1.00000000</i>
   <i name="PARAM3">      0.00000000</i>
  </separator>
  <separator name="model GW" >
   <i type="int" name="MODEL_GW">     0</i>
   <i name="MODEL_EPS0">    600.00000000</i>
   <i name="MODEL_ALPHA">      1.00000000</i>
  </separator>
  <separator name="linear response parameters" >
   <i type="logical" name="LEPSILON"> F  </i>
   <i type="logical" name="LRPA"> F  </i>
   <i type="logical" name="LNABLA"> F  </i>
   <i type="logical" name="LVEL"> F  </i>
   <i type="int" name="KINTER">     0</i>
   <i name="CSHIFT">      0.10000000</i>
   <i name="OMEGAMAX">     -1.00000000</i>
   <i name="DEG_THRESHOLD">      0.00200000</i>
   <i name="RTIME">     -0.10000000</i>
   <i name="WPLASMAI">      0.00000000</i>
   <v name="DFIELD">      0.00000000      0.00000000      0.00000000</v>
   <v name="WPLASMA">      0.00000000      0.00000000      0.00000000      0.00000000      0.00000000      0.00000000      0.00000000      0.00000000      0.00000000</v>
  </separator>
  <separator name="orbital magnetization" >
   <i type="logical" name="NUCIND"> F  </i>
   <v name="MAGPOS">      0.00000000      0.00000000      0.00000000</v>
   <i type="logical" name="LNICSALL"> T  </i>
   <i type="logical" name="ORBITALMAG"> F  </i>
   <i type="logical" name="LMAGBLOCH"> F  </i>
   <i type="logical" name="LCHIMAG"> F  </i>
   <i type="logical" name="LGAUGE"> T  </i>
   <i type="int" name="MAGATOM">     0</i>
   <v name="MAGDIPOL">      0.00000000      0.00000000      0.00000000</v>
   <v name="AVECCONST">      0.00000000      0.00000000      0.00000000</v>
  </separator>
  <separator name="response functions" >
   <i type="logical" name="LADDER"> F  </i>
   <i type="logical" name="LRPAFORCE"> F  </i>
   <i type="logical" name="LFXC"> F  </i>
   <i type="logical" name="LHARTREE"> T  </i>
   <i type="int" name="IBSE">     0</i>
   <v type="int" name="KPOINT">    -1     0     0     0</v>
   <i type="logical" name="LTCTE"> F  </i>
   <i type="logical" name="LTETE"> F  </i>
   <i type="logical" name="LTRIPLET"> F  </i>
   <i type="logical" name="LFXCEPS"> F  </i>
   <i type="logical" name="LFXHEG"> F  </i>
   <i type="int" name="NATURALO">     2</i>
   <i type="logical" name="L2ORDER"> F  </i>
   <i type="logical" name="LMP2LT"> F  </i>
   <i type="logical" name="LUSEW"> F  </i>
   <i name="ENCUTGW">     -2.00000000</i>
   <i name="ENCUTGWSOFT">     -2.00000000</i>
   <i name="ENCUTLF">     -1.00000000</i>
   <i type="int" name="LMAXMP2">    -1</i>
   <i name="SCISSOR">      0.00000000</i>
   <i type="int" name="NOMEGA">     0</i>
   <i type="int" name="NOMEGAR">     0</i>
   <i type="int" name="NBANDSGW">    -1</i>
   <i type="int" name="NBANDSO">    -1</i>
   <i type="int" name="NBANDSV">    -1</i>
   <i type="int" name="NELM">   300</i>
   <i type="int" name="NELMHF">     1</i>
   <i type="int" name="DIM">     3</i>
   <i type="int" name="ANTIRES">     0</i>
   <i name="OMEGAMAX">    -30.00000000</i>
   <i name="OMEGAMIN">    -30.00000000</i>
   <i name="OMEGATL">   -200.00000000</i>
   <i type="int" name="OMEGAGRID">   140</i>
   <i name="CSHIFT">     -0.10000000</i>
   <i type="logical" name="SELFENERGY"> F  </i>
   <i type="logical" name="LSPECTRAL"> F  </i>
   <i type="logical" name="LSPECTRALGW"> F  </i>
   <i type="logical" name="LSINGLES"> F  </i>
   <i type="logical" name="LFERMIGW"> F  </i>
   <i type="logical" name="ODDONLYGW"> F  </i>
   <i type="logical" name="EVENONLYGW"> F  </i>
   <i type="int" name="NKREDLFX">     1</i>
   <i type="int" name="NKREDLFY">     1</i>
   <i type="int" name="NKREDLFZ">     1</i>
   <i type="int" name="MAXMEM">  2800</i>
   <i type="int" name="TELESCOPE">     0</i>
   <i type="int" name="TAUPAR">     1</i>
   <i type="int" name="OMEGAPAR">    -1</i>
   <i name="LAMBDA">      1.00000000</i>
  </separator>
  <separator name="External order field" >
   <i name="OFIELD_KAPPA">      0.00000000</i>
   <v name="OFIELD_K">      0.00000000      0.00000000      0.00000000</v>
   <i name="OFIELD_Q6_NEAR">      0.00000000</i>
   <i name="OFIELD_Q6_FAR">      0.00000000</i>
   <i name="OFIELD_A">      0.00000000</i>
  </separator>
 </parameters>
 <atominfo>
  <atoms>       1 </atoms>
  <types>       1 </types>
  <array name="atoms" >
   <dimension dim="1">ion</dimension>
   <field type="string">element</field>
   <field type="int">atomtype</field>
   <set>
    <rc><c>Ni</c><c>   1</c></rc>
   </set>
  </array>
  <array name="atomtypes" >
   <dimension dim="1">type</dimension>
   <field type="int">atomspertype</field>
   <field type="string">element</field>
   <field>mass</field>
   <field>valence</field>
   <field type="string">pseudopotential</field>
   <set>
    <rc><c>   1</c><c>Ni</c><c>     58.69000000</c><c>     16.00000000</c><c>  PAW_PBE Ni_pv 06Sep2000               </c></rc>
   </set>
  </array>
 </atominfo>
 <structure name="initialpos" >
  <crystal>
   <varray name="basis" >
    <v>      10.00000000       0.00000000       0.00000000 </v>
    <v>       0.00000000      10.00000000       0.00000000 </v>
    <v>       0.00000000       0.00000000      10.00000000 </v>
   </varray>
   <i name="volume">   1000.00000000 </i>
   <varray name="rec_basis" >
    <v>       0.10000000       0.00000000       0.00000000 </v>
    <v>       0.00000000       0.10000000       0.00000000 </v>
    <v>       0.00000000       0.00000000       0.10000000 </v>
   </varray>
  </crystal>
  <varray name="positions" >
   <v>       0.50000000       0.50000000       0.50000000 </v>
  </varray>
 </structure>
 <calculation>
  <scstep>
   <time name="dav">    0.39    0.39</time>
   <time name="total">    0.95    0.96</time>
   <energy>
    <i name="alphaZ">      1.68496352 </i>
    <i name="ewald">   -522.96294414 </i>
    <i name="hartreedc">  -2484.50596382 </i>
    <i name="XCdc">     86.76277955 </i>
    <i name="pawpsdc">   2913.85766777 </i>
    <i name="pawaedc">  -3053.48909943 </i>
    <i name="eentropy">     -0.01778500 </i>
    <i name="bandstr">   -430.46398845 </i>
    <i name="atom">   3501.06551159 </i>
    <i name="e_fr_energy">     11.93114160 </i>
    <i name="e_wo_entrp">     11.94892659 </i>
    <i name="e_0_energy">     11.94003410 </i>
   </energy>
  </scstep>
  <scstep>
   <time name="dav">    0.38    0.38</time>
   <time name="total">    0.39    0.39</time>
   <energy>
    <i name="e_fr_energy">     -0.35871734 </i>
    <i name="e_wo_entrp">     -0.28695595 </i>
    <i name="e_0_energy">     -0.32283665 </i>
   </energy>
  </scstep>
  <scstep>
   <time name="dav">    0.22    0.22</time>
   <time name="total">    0.22    0.22</time>
   <energy>
    <i name="e_fr_energy">     -0.36357115 </i>
    <i name="e_wo_entrp">     -0.29178814 </i>
    <i name="e_0_energy">     -0.32767964 </i>
   </energy>
  </scstep>
  <scstep>
   <time name="dav">    0.26    0.26</time>
   <time name="total">    0.26    0.26</time>
   <energy>
    <i name="e_fr_energy">     -0.36362454 </i>
    <i name="e_wo_entrp">     -0.29184156 </i>
    <i name="e_0_energy">     -0.32773305 </i>
   </energy>
  </scstep>
  <scstep>
   <time name="dav">    0.22    0.22</time>
   <time name="total">    0.44    0.44</time>
   <energy>
    <i name="e_fr_energy">     -0.36362537 </i>
    <i name="e_wo_entrp">     -0.29184240 </i>
    <i name="e_0_energy">     -0.32773388 </i>
   </energy>
  </scstep>
  <scstep>
   <time name="dav">    0.22    0.22</time>
   <time name="total">    0.98    0.99</time>
   <energy>
    <i name="e_fr_energy">     -2.96577074 </i>
    <i name="e_wo_entrp">     -2.96577074 </i>
    <i name="e_0_energy">     -2.96577074 </i>
   </energy>
  </scstep>
  <scstep>
   <time name="dav">    0.27    0.27</time>
   <time name="total">    1.04    1.04</time>
   <energy>
    <i name="e_fr_energy">     -0.52287069 </i>
    <i name="e_wo_entrp">     -0.52287067 </i>
    <i name="e_0_energy">     -0.52287068 </i>
   </energy>
  </scstep>
  <scstep>
   <time name="dav">    0.22    0.22</time>
   <time name="total">    0.98    0.98</time>
   <energy>
    <i name="e_fr_energy">     -0.54489681 </i>
    <i name="e_wo_entrp">     -0.47660049 </i>
    <i name="e_0_energy">     -0.51074865 </i>
   </energy>
  </scstep>
  <scstep>
   <time name="dav">    0.22    0.22</time>
   <time name="total">    0.99    0.99</time>
   <energy>
    <i name="e_fr_energy">     -0.28514146 </i>
    <i name="e_wo_entrp">     -0.22025949 </i>
    <i name="e_0_energy">     -0.25270048 </i>
   </energy>
  </scstep>
  <scstep>
   <time name="dav">    0.22    0.22</time>
   <time name="total">    0.97    0.97</time>
   <energy>
    <i name="e_fr_energy">     -0.28725356 </i>
    <i name="e_wo_entrp">     -0.22249780 </i>
    <i name="e_0_energy">     -0.25487568 </i>
   </energy>
  </scstep>
  <scstep>
   <time name="dav">    0.22    0.22</time>
   <time name="total">    0.98    0.98</time>
   <energy>
    <i name="e_fr_energy">     -0.28529054 </i>
    <i name="e_wo_entrp">     -0.22073755 </i>
    <i name="e_0_energy">     -0.25301404 </i>
   </energy>
  </scstep>
  <scstep>
   <time name="dav">    0.22    0.22</time>
   <time name="total">    0.98    0.98</time>
   <energy>
    <i name="e_fr_energy">     -0.27985472 </i>
    <i name="e_wo_entrp">     -0.21385885 </i>
    <i name="e_0_energy">     -0.24685678 </i>
   </energy>
  </scstep>
  <scstep>
   <time name="dav">    0.27    0.27</time>
   <time name="total">    1.02    1.02</time>
   <energy>
    <i name="e_fr_energy">     -0.29165308 </i>
    <i name="e_wo_entrp">     -0.24016833 </i>
    <i name="e_0_energy">     -0.26591071 </i>
   </energy>
  </scstep>
  <scstep>
   <time name="dav">    0.22    0.22</time>
   <time name="total">    0.98    0.98</time>
   <energy>
    <i name="e_fr_energy">     -0.29315218 </i>
    <i name="e_wo_entrp">     -0.26916418 </i>
    <i name="e_0_energy">     -0.28115818 </i>
   </energy>
  </scstep>
  <scstep>
   <time name="dav">    0.26    0.26</time>
   <time name="total">    1.01    1.01</time>
   <energy>
    <i name="e_fr_energy">     -0.10217053 </i>
    <i name="e_wo_entrp">     -0.09145314 </i>
    <i name="e_0_energy">     -0.09681184 </i>
   </energy>
  </scstep>
  <scstep>
   <time name="dav">    0.27    0.27</time>
   <time name="total">    1.04    1.04</time>
   <energy>
    <i name="e_fr_energy">     -0.32940566 </i>
    <i name="e_wo_entrp">     -0.30121967 </i>
    <i name="e_0_energy">     -0.31531267 </i>
   </energy>
  </scstep>
  <scstep>
   <time name="dav">    0.26    0.26</time>
   <time name="total">    1.03    1.03</time>
   <energy>
    <i name="e_fr_energy">     -1.16481746 </i>
    <i name="e_wo_entrp">     -1.15922883 </i>
    <i name="e_0_energy">     -1.16202314 </i>
   </energy>
  </scstep>
  <scstep>
   <time name="dav">    0.26    0.26</time>
   <time name="total">    1.02    1.02</time>
   <energy>
    <i name="e_fr_energy">     -0.82592419 </i>
    <i name="e_wo_entrp">     -0.81973319 </i>
    <i name="e_0_energy">     -0.82282869 </i>
   </energy>
  </scstep>
  <scstep>
   <time name="dav">    0.23    0.23</time>
   <time name="total">    0.99    0.99</time>
   <energy>
    <i name="e_fr_energy">     -0.65277268 </i>
    <i name="e_wo_entrp">     -0.63891870 </i>
    <i name="e_0_energy">     -0.64584569 </i>
   </energy>
  </scstep>
  <scstep>
   <time name="dav">    0.26    0.26</time>
   <time name="total">    1.03    1.03</time>
   <energy>
    <i name="e_fr_energy">     -0.43251195 </i>
    <i name="e_wo_entrp">     -0.39781628 </i>
    <i name="e_0_energy">     -0.41516411 </i>
   </energy>
  </scstep>
  <scstep>
   <time name="dav">    0.35    0.35</time>
   <time name="total">    1.10    1.10</time>
   <energy>
    <i name="e_fr_energy">     -0.39343370 </i>
    <i name="e_wo_entrp">     -0.35184601 </i>
    <i name="e_0_energy">     -0.37263986 </i>
   </energy>
  </scstep>
  <scstep>
   <time name="dav">    0.22    0.22</time>
   <time name="total">    0.97    0.97</time>
   <energy>
    <i name="e_fr_energy">     -0.39361361 </i>
    <i name="e_wo_entrp">     -0.36265345 </i>
    <i name="e_0_energy">     -0.37813353 </i>
   </energy>
  </scstep>
  <scstep>
   <time name="dav">    0.22    0.22</time>
   <time name="total">    0.98    0.98</time>
   <energy>
    <i name="e_fr_energy">     -0.33097788 </i>
    <i name="e_wo_entrp">     -0.29811779 </i>
    <i name="e_0_energy">     -0.31454784 </i>
   </energy>
  </scstep>
  <scstep>
   <time name="dav">    0.26    0.26</time>
   <time name="total">    1.02    1.02</time>
   <energy>
    <i name="e_fr_energy">     -0.19977327 </i>
    <i name="e_wo_entrp">     -0.19907004 </i>
    <i name="e_0_energy">     -0.19942165 </i>
   </energy>
  </scstep>
  <scstep>
   <time name="dav">    0.22    0.22</time>
   <time name="total">    0.98    0.98</time>
   <energy>
    <i name="e_fr_energy">      0.02580970 </i>
    <i name="e_wo_entrp">      0.02581206 </i>
    <i name="e_0_energy">      0.02581088 </i>
   </energy>
  </scstep>
  <scstep>
   <time name="dav">    0.22    0.22</time>
   <time name="total">    0.97    0.98</time>
   <energy>
    <i name="e_fr_energy">      0.06828871 </i>
    <i name="e_wo_entrp">      0.06829227 </i>
    <i name="e_0_energy">      0.06829049 </i>
   </energy>
  </scstep>
  <scstep>
   <time name="dav">    0.22    0.22</time>
   <time name="total">    0.98    0.98</time>
   <energy>
    <i name="e_fr_energy">      0.05807758 </i>
    <i name="e_wo_entrp">      0.05810322 </i>
    <i name="e_0_energy">      0.05809040 </i>
   </energy>
  </scstep>
  <scstep>
   <time name="dav">    0.22    0.22</time>
   <time name="total">    0.97    0.98</time>
   <energy>
    <i name="e_fr_energy">     -0.05509124 </i>
    <i name="e_wo_entrp">     -0.05407377 </i>
    <i name="e_0_energy">     -0.05458250 </i>
   </energy>
  </scstep>
  <scstep>
   <time name="dav">    0.22    0.22</time>
   <time name="total">    0.99    0.99</time>
   <energy>
    <i name="e_fr_energy">     -0.17364624 </i>
    <i name="e_wo_entrp">     -0.17192476 </i>
    <i name="e_0_energy">     -0.17278550 </i>
   </energy>
  </scstep>
  <scstep>
   <time name="dav">    0.22    0.22</time>
   <time name="total">    0.98    0.98</time>
   <energy>
    <i name="e_fr_energy">     -0.25695350 </i>
    <i name="e_wo_entrp">     -0.25614998 </i>
    <i name="e_0_energy">     -0.25655174 </i>
   </energy>
  </scstep>
  <scstep>
   <time name="dav">    0.22    0.22</time>
   <time name="total">    0.98    0.98</time>
   <energy>
    <i name="e_fr_energy">     -0.25120715 </i>
    <i name="e_wo_entrp">     -0.25037086 </i>
    <i name="e_0_energy">     -0.25078901 </i>
   </energy>
  </scstep>
  <scstep>
   <time name="dav">    0.22    0.22</time>
   <time name="total">    0.97    0.97</time>
   <energy>
    <i name="e_fr_energy">     -0.26167233 </i>
    <i name="e_wo_entrp">     -0.26101052 </i>
    <i name="e_0_energy">     -0.26134143 </i>
   </energy>
  </scstep>
  <scstep>
   <time name="dav">    0.22    0.22</time>
   <time name="total">    0.98    0.98</time>
   <energy>
    <i name="e_fr_energy">     -0.31220670 </i>
    <i name="e_wo_entrp">     -0.31168039 </i>
    <i name="e_0_energy">     -0.31194354 </i>
   </energy>
  </scstep>
  <scstep>
   <time name="dav">    0.26    0.26</time>
   <time name="total">    1.02    1.02</time>
   <energy>
    <i name="e_fr_energy">     -0.34944554 </i>
    <i name="e_wo_entrp">     -0.34751128 </i>
    <i name="e_0_energy">     -0.34847841 </i>
   </energy>
  </scstep>
  <scstep>
   <time name="dav">    0.27    0.27</time>
   <time name="total">    1.03    1.03</time>
   <energy>
    <i name="e_fr_energy">     -0.44563385 </i>
    <i name="e_wo_entrp">     -0.43055130 </i>
    <i name="e_0_energy">     -0.43809257 </i>
   </energy>
  </scstep>
  <scstep>
   <time name="dav">    0.22    0.22</time>
   <time name="total">    0.98    0.98</time>
   <energy>
    <i name="e_fr_energy">     -0.53080652 </i>
    <i name="e_wo_entrp">     -0.50262270 </i>
    <i name="e_0_energy">     -0.51671461 </i>
   </energy>
  </scstep>
  <scstep>
   <time name="dav">    0.22    0.22</time>
   <time name="total">    0.97    0.98</time>
   <energy>
    <i name="e_fr_energy">     -0.66243531 </i>
    <i name="e_wo_entrp">     -0.63274465 </i>
    <i name="e_0_energy">     -0.64758998 </i>
   </energy>
  </scstep>
  <scstep>
   <time name="dav">    0.22    0.22</time>
   <time name="total">    0.98    0.98</time>
   <energy>
    <i name="e_fr_energy">     -0.66654731 </i>
    <i name="e_wo_entrp">     -0.63283783 </i>
    <i name="e_0_energy">     -0.64969257 </i>
   </energy>
  </scstep>
  <scstep>
   <time name="dav">    0.22    0.22</time>
   <time name="total">    0.97    0.97</time>
   <energy>
    <i name="e_fr_energy">     -0.68612692 </i>
    <i name="e_wo_entrp">     -0.64759840 </i>
    <i name="e_0_energy">     -0.66686266 </i>
   </energy>
  </scstep>
  <scstep>
   <time name="dav">    0.22    0.22</time>
   <time name="total">    0.98    0.98</time>
   <energy>
    <i name="e_fr_energy">     -0.70243149 </i>
    <i name="e_wo_entrp">     -0.67398263 </i>
    <i name="e_0_energy">     -0.68820706 </i>
   </energy>
  </scstep>
  <scstep>
   <time name="dav">    0.22    0.22</time>
   <time name="total">    0.98    0.98</time>
   <energy>
    <i name="e_fr_energy">     -0.65464068 </i>
    <i name="e_wo_entrp">     -0.62643176 </i>
    <i name="e_0_energy">     -0.64053622 </i>
   </energy>
  </scstep>
  <scstep>
   <time name="dav">    0.22    0.22</time>
   <time name="total">    0.98    0.98</time>
   <energy>
    <i name="e_fr_energy">     -0.63826392 </i>
    <i name="e_wo_entrp">     -0.61005499 </i>
    <i name="e_0_energy">     -0.62415946 </i>
   </energy>
  </scstep>
  <scstep>
   <time name="dav">    0.22    0.22</time>
   <time name="total">    0.99    0.99</time>
   <energy>
    <i name="e_fr_energy">     -0.62678111 </i>
    <i name="e_wo_entrp">     -0.59857173 </i>
    <i name="e_0_energy">     -0.61267642 </i>
   </energy>
  </scstep>
  <scstep>
   <time name="dav">    0.22    0.22</time>
   <time name="total">    0.98    0.98</time>
   <energy>
    <i name="e_fr_energy">     -0.62327457 </i>
    <i name="e_wo_entrp">     -0.59506440 </i>
    <i name="e_0_energy">     -0.60916948 </i>
   </energy>
  </scstep>
  <scstep>
   <time name="dav">    0.22    0.22</time>
   <time name="total">    0.98    0.98</time>
   <energy>
    <i name="e_fr_energy">     -0.65617033 </i>
    <i name="e_wo_entrp">     -0.62796139 </i>
    <i name="e_0_energy">     -0.64206586 </i>
   </energy>
  </scstep>
  <scstep>
   <time name="dav">    0.26    0.26</time>
   <time name="total">    1.02    1.02</time>
   <energy>
    <i name="e_fr_energy">     -0.68161987 </i>
    <i name="e_wo_entrp">     -0.65341094 </i>
    <i name="e_0_energy">     -0.66751540 </i>
   </energy>
  </scstep>
  <scstep>
   <time name="dav">    0.22    0.22</time>
   <time name="total">    0.99    0.99</time>
   <energy>
    <i name="e_fr_energy">     -0.71002627 </i>
    <i name="e_wo_entrp">     -0.68181735 </i>
    <i name="e_0_energy">     -0.69592181 </i>
   </energy>
  </scstep>
  <scstep>
   <time name="dav">    0.22    0.22</time>
   <time name="total">    0.98    0.98</time>
   <energy>
    <i name="e_fr_energy">     -0.73661968 </i>
    <i name="e_wo_entrp">     -0.70841077 </i>
    <i name="e_0_energy">     -0.72251522 </i>
   </energy>
  </scstep>
  <scstep>
   <time name="dav">    0.26    0.26</time>
   <time name="total">    1.02    1.02</time>
   <energy>
    <i name="e_fr_energy">     -0.73560572 </i>
    <i name="e_wo_entrp">     -0.70739681 </i>
    <i name="e_0_energy">     -0.72150127 </i>
   </energy>
  </scstep>
  <scstep>
   <time name="dav">    0.22    0.22</time>
   <time name="total">    0.98    0.98</time>
   <energy>
    <i name="e_fr_energy">     -0.73461938 </i>
    <i name="e_wo_entrp">     -0.70641046 </i>
    <i name="e_0_energy">     -0.72051492 </i>
   </energy>
  </scstep>
  <scstep>
   <time name="dav">    0.23    0.23</time>
   <time name="total">    0.99    0.99</time>
   <energy>
    <i name="e_fr_energy">     -0.74876757 </i>
    <i name="e_wo_entrp">     -0.72055865 </i>
    <i name="e_0_energy">     -0.73466311 </i>
   </energy>
  </scstep>
  <scstep>
   <time name="dav">    0.22    0.22</time>
   <time name="total">    0.99    0.99</time>
   <energy>
    <i name="e_fr_energy">     -0.75336514 </i>
    <i name="e_wo_entrp">     -0.72515622 </i>
    <i name="e_0_energy">     -0.73926068 </i>
   </energy>
  </scstep>
  <scstep>
   <time name="dav">    0.22    0.22</time>
   <time name="total">    1.00    1.00</time>
   <energy>
    <i name="e_fr_energy">     -0.75644907 </i>
    <i name="e_wo_entrp">     -0.72824015 </i>
    <i name="e_0_energy">     -0.74234461 </i>
   </energy>
  </scstep>
  <scstep>
   <time name="dav">    0.22    0.22</time>
   <time name="total">    0.99    0.99</time>
   <energy>
    <i name="e_fr_energy">     -0.75834960 </i>
    <i name="e_wo_entrp">     -0.73014068 </i>
    <i name="e_0_energy">     -0.74424514 </i>
   </energy>
  </scstep>
  <scstep>
   <time name="dav">    0.22    0.22</time>
   <time name="total">    0.99    0.99</time>
   <energy>
    <i name="e_fr_energy">     -0.75864838 </i>
    <i name="e_wo_entrp">     -0.73043946 </i>
    <i name="e_0_energy">     -0.74454392 </i>
   </energy>
  </scstep>
  <scstep>
   <time name="dav">    0.22    0.22</time>
   <time name="total">    0.99    0.99</time>
   <energy>
    <i name="e_fr_energy">     -0.77510413 </i>
    <i name="e_wo_entrp">     -0.74689521 </i>
    <i name="e_0_energy">     -0.76099967 </i>
   </energy>
  </scstep>
  <scstep>
   <time name="dav">    0.26    0.26</time>
   <time name="total">    1.02    1.02</time>
   <energy>
    <i name="e_fr_energy">     -0.77483348 </i>
    <i name="e_wo_entrp">     -0.74662456 </i>
    <i name="e_0_energy">     -0.76072902 </i>
   </energy>
  </scstep>
  <scstep>
   <time name="dav">    0.22    0.22</time>
   <time name="total">    0.99    0.99</time>
   <energy>
    <i name="e_fr_energy">     -0.77490325 </i>
    <i name="e_wo_entrp">     -0.74669433 </i>
    <i name="e_0_energy">     -0.76079879 </i>
   </energy>
  </scstep>
  <scstep>
   <time name="dav">    0.22    0.22</time>
   <time name="total">    0.99    0.99</time>
   <energy>
    <i name="e_fr_energy">     -0.77554193 </i>
    <i name="e_wo_entrp">     -0.74733300 </i>
    <i name="e_0_energy">     -0.76143746 </i>
   </energy>
  </scstep>
  <scstep>
   <time name="dav">    0.22    0.22</time>
   <time name="total">    0.99    0.99</time>
   <energy>
    <i name="e_fr_energy">     -0.77467293 </i>
    <i name="e_wo_entrp">     -0.74646400 </i>
    <i name="e_0_energy">     -0.76056846 </i>
   </energy>
  </scstep>
  <scstep>
   <time name="dav">    0.22    0.22</time>
   <time name="total">    0.99    0.99</time>
   <energy>
    <i name="e_fr_energy">     -0.76358623 </i>
    <i name="e_wo_entrp">     -0.73537730 </i>
    <i name="e_0_energy">     -0.74948176 </i>
   </energy>
  </scstep>
  <scstep>
   <time name="dav">    0.26    0.26</time>
   <time name="total">    1.03    1.03</time>
   <energy>
    <i name="e_fr_energy">     -0.75710446 </i>
    <i name="e_wo_entrp">     -0.72889552 </i>
    <i name="e_0_energy">     -0.74299999 </i>
   </energy>
  </scstep>
  <scstep>
   <time name="dav">    0.26    0.26</time>
   <time name="total">    1.03    1.03</time>
   <energy>
    <i name="e_fr_energy">     -0.74466880 </i>
    <i name="e_wo_entrp">     -0.71645985 </i>
    <i name="e_0_energy">     -0.73056432 </i>
   </energy>
  </scstep>
  <scstep>
   <time name="dav">    0.30    0.30</time>
   <time name="total">    1.07    1.07</time>
   <energy>
    <i name="e_fr_energy">     -0.73653540 </i>
    <i name="e_wo_entrp">     -0.70832643 </i>
    <i name="e_0_energy">     -0.72243091 </i>
   </energy>
  </scstep>
  <scstep>
   <time name="dav">    0.26    0.26</time>
   <time name="total">    1.02    1.02</time>
   <energy>
    <i name="e_fr_energy">     -0.73371846 </i>
    <i name="e_wo_entrp">     -0.70550949 </i>
    <i name="e_0_energy">     -0.71961398 </i>
   </energy>
  </scstep>
  <scstep>
   <time name="dav">    0.22    0.22</time>
   <time name="total">    0.98    0.98</time>
   <energy>
    <i name="e_fr_energy">     -0.73683195 </i>
    <i name="e_wo_entrp">     -0.70862296 </i>
    <i name="e_0_energy">     -0.72272745 </i>
   </energy>
  </scstep>
  <scstep>
   <time name="dav">    0.26    0.26</time>
   <time name="total">    1.03    1.03</time>
   <energy>
    <i name="e_fr_energy">     -0.72633633 </i>
    <i name="e_wo_entrp">     -0.69732363 </i>
    <i name="e_0_energy">     -0.71182998 </i>
   </energy>
  </scstep>
  <scstep>
   <time name="dav">    0.22    0.22</time>
   <time name="total">    0.99    0.99</time>
   <energy>
    <i name="e_fr_energy">     -0.73138431 </i>
    <i name="e_wo_entrp">     -0.69369123 </i>
    <i name="e_0_energy">     -0.71253777 </i>
   </energy>
  </scstep>
  <scstep>
   <time name="dav">    0.23    0.23</time>
   <time name="total">    0.99    0.99</time>
   <energy>
    <i name="e_fr_energy">     -0.75793581 </i>
    <i name="e_wo_entrp">     -0.72944757 </i>
    <i name="e_0_energy">     -0.74369169 </i>
   </energy>
  </scstep>
  <scstep>
   <time name="dav">    0.22    0.22</time>
   <time name="total">    0.99    0.99</time>
   <energy>
    <i name="e_fr_energy">     -0.74122673 </i>
    <i name="e_wo_entrp">     -0.70272260 </i>
    <i name="e_0_energy">     -0.72197467 </i>
   </energy>
  </scstep>
  <scstep>
   <time name="dav">    0.22    0.22</time>
   <time name="total">    0.98    0.98</time>
   <energy>
    <i name="e_fr_energy">     -0.75158851 </i>
    <i name="e_wo_entrp">     -0.72295498 </i>
    <i name="e_0_energy">     -0.73727174 </i>
   </energy>
  </scstep>
  <scstep>
   <time name="dav">    0.22    0.22</time>
   <time name="total">    0.98    0.98</time>
   <energy>
    <i name="e_fr_energy">     -0.73883064 </i>
    <i name="e_wo_entrp">     -0.70255406 </i>
    <i name="e_0_energy">     -0.72069235 </i>
   </energy>
  </scstep>
  <scstep>
   <time name="dav">    0.22    0.22</time>
   <time name="total">    0.98    0.98</time>
   <energy>
    <i name="e_fr_energy">     -0.74906125 </i>
    <i name="e_wo_entrp">     -0.71184388 </i>
    <i name="e_0_energy">     -0.73045256 </i>
   </energy>
  </scstep>
  <scstep>
   <time name="dav">    0.22    0.22</time>
   <time name="total">    1.00    1.00</time>
   <energy>
    <i name="e_fr_energy">     -0.74954572 </i>
    <i name="e_wo_entrp">     -0.71430787 </i>
    <i name="e_0_energy">     -0.73192679 </i>
   </energy>
  </scstep>
  <scstep>
   <time name="dav">    0.22    0.22</time>
   <time name="total">    0.99    0.99</time>
   <energy>
    <i name="e_fr_energy">     -0.74869577 </i>
    <i name="e_wo_entrp">     -0.71210301 </i>
    <i name="e_0_energy">     -0.73039939 </i>
   </energy>
  </scstep>
  <scstep>
   <time name="dav">    0.22    0.22</time>
   <time name="total">    0.98    0.98</time>
   <energy>
    <i name="e_fr_energy">     -0.74978125 </i>
    <i name="e_wo_entrp">     -0.71476731 </i>
    <i name="e_0_energy">     -0.73227428 </i>
   </energy>
  </scstep>
  <scstep>
   <time name="dav">    0.22    0.22</time>
   <time name="total">    0.99    0.99</time>
   <energy>
    <i name="e_fr_energy">     -0.74773762 </i>
    <i name="e_wo_entrp">     -0.71249562 </i>
    <i name="e_0_energy">     -0.73011662 </i>
   </energy>
  </scstep>
  <scstep>
   <time name="dav">    0.22    0.22</time>
   <time name="total">    0.99    0.99</time>
   <energy>
    <i name="e_fr_energy">     -0.74763919 </i>
    <i name="e_wo_entrp">     -0.71243307 </i>
    <i name="e_0_energy">     -0.73003613 </i>
   </energy>
  </scstep>
  <scstep>
   <time name="dav">    0.22    0.22</time>
   <time name="total">    0.77    0.77</time>
   <energy>
    <i name="alphaZ">      1.68496352 </i>
    <i name="ewald">   -522.96294414 </i>
    <i name="hartreedc">  -2474.55184646 </i>
    <i name="XCdc">     86.73134814 </i>
    <i name="pawpsdc">   2926.93071062 </i>
    <i name="pawaedc">  -3067.94061017 </i>
    <i name="eentropy">     -0.03618021 </i>
    <i name="bandstr">   -451.66856692 </i>
    <i name="atom">   3501.06551159 </i>
    <i name="e_fr_energy">     -0.74761404 </i>
    <i name="e_wo_entrp">     -0.71143382 </i>
    <i name="e_0_energy">     -0.72952393 </i>
   </energy>
  </scstep>
  <structure>
   <crystal>
    <varray name="basis" >
     <v>      10.00000000       0.00000000       0.00000000 </v>
     <v>       0.00000000      10.00000000       0.00000000 </v>
     <v>       0.00000000       0.00000000      10.00000000 </v>
    </varray>
    <i name="volume">   1000.00000000 </i>
    <varray name="rec_basis" >
     <v>       0.10000000       0.00000000       0.00000000 </v>
     <v>       0.00000000       0.10000000       0.00000000 </v>
     <v>       0.00000000       0.00000000       0.10000000 </v>
    </varray>
   </crystal>
   <varray name="positions" >
    <v>       0.50000000       0.50000000       0.50000000 </v>
   </varray>
  </structure>
  <varray name="forces" >
   <v>       0.00000000       0.00000000       0.00000000 </v>
  </varray>
  <varray name="stress" >
   <v>       0.47238180       0.00000000       0.00000000 </v>
   <v>       0.00000000       0.47238180       0.00000000 </v>
   <v>      -0.00000000       0.00000000       0.47238180 </v>
  </varray>
  <energy>
   <i name="e_fr_energy">     -0.74761404 </i>
   <i name="e_wo_entrp">     -0.72952393 </i>
   <i name="e_0_energy">     -0.03618021 </i>
  </energy>
  <time name="totalsc">   82.57   82.75</time>
  <eigenvalues>
   <array>
    <dimension dim="1">band</dimension>
    <dimension dim="2">kpoint</dimension>
    <dimension dim="3">spin</dimension>
    <field>eigene</field>
    <field>occ</field>
    <set>
     <set comment="spin 1">
      <set comment="kpoint 1">
       <r>  -67.4988    1.0000 </r>
       <r>  -67.4988    1.0000 </r>
       <r>  -67.4987    1.0000 </r>
       <r>   -5.9633    1.0000 </r>
       <r>   -5.9633    1.0000 </r>
       <r>   -5.3259    1.0000 </r>
       <r>   -5.3259    1.0000 </r>
       <r>   -5.3259    1.0000 </r>
       <r>   -4.9032    1.0000 </r>
       <r>   -0.8416    0.0000 </r>
       <r>   -0.8416    0.0000 </r>
       <r>   -0.8416    0.0000 </r>
       <r>   -0.2818    0.0000 </r>
       <r>    0.8681    0.0000 </r>
       <r>    0.8681    0.0000 </r>
       <r>    1.5449    0.0000 </r>
       <r>    1.5449    0.0000 </r>
       <r>    1.5449    0.0000 </r>
       <r>    1.6192    0.0000 </r>
       <r>    1.9965    0.0000 </r>
       <r>    1.9965    0.0000 </r>
       <r>    1.9965    0.0000 </r>
       <r>    2.4623    0.0000 </r>
       <r>    2.4623    0.0000 </r>
       <r>    2.4623    0.0000 </r>
       <r>    2.4874    0.0000 </r>
       <r>    2.4874    0.0000 </r>
       <r>    3.4214    0.0000 </r>
       <r>    3.4214    0.0000 </r>
       <r>    3.4214    0.0000 </r>
       <r>    3.6286    0.0000 </r>
       <r>    3.6937    0.0000 </r>
       <r>    3.7729    0.0000 </r>
       <r>    3.7729    0.0000 </r>
       <r>    3.7729    0.0000 </r>
       <r>    4.3729    0.0000 </r>
      </set>
     </set>
     <set comment="spin 2">
      <set comment="kpoint 1">
       <r>  -66.2311    1.0000 </r>
       <r>  -66.2311    1.0000 </r>
       <r>  -66.2311    1.0000 </r>
       <r>   -4.5714    1.0000 </r>
       <r>   -4.5714    1.0000 </r>
       <r>   -4.5709    1.0000 </r>
       <r>   -3.9628    0.4243 </r>
       <r>   -3.9622    0.4179 </r>
       <r>   -3.9340    0.1578 </r>
       <r>   -0.1715    0.0000 </r>
       <r>   -0.1715    0.0000 </r>
       <r>   -0.1715    0.0000 </r>
       <r>   -0.0323    0.0000 </r>
       <r>    1.1412    0.0000 </r>
       <r>    1.1412    0.0000 </r>
       <r>    1.8143    0.0000 </r>
       <r>    1.8143    0.0000 </r>
       <r>    1.8143    0.0000 </r>
       <r>    1.8220    0.0000 </r>
       <r>    2.3324    0.0000 </r>
       <r>    2.3324    0.0000 </r>
       <r>    2.3324    0.0000 </r>
       <r>    2.6918    0.0000 </r>
       <r>    2.6918    0.0000 </r>
       <r>    2.6918    0.0000 </r>
       <r>    2.7072    0.0000 </r>
       <r>    2.7072    0.0000 </r>
       <r>    3.6941    0.0000 </r>
       <r>    3.6941    0.0000 </r>
       <r>    3.6941    0.0000 </r>
       <r>    3.8239    0.0000 </r>
       <r>    3.9746    0.0000 </r>
       <r>    3.9960    0.0000 </r>
       <r>    3.9960    0.0000 </r>
       <r>    3.9960    0.0000 </r>
       <r>    4.7448    0.0000 </r>
      </set>
     </set>
    </set>
   </array>
  </eigenvalues>
  <separator name="orbital magnetization" >
   <v name="MAGDIPOLOUT">      0.00000000      0.00000000      0.00000000</v>
  </separator>
  <dos>
   <i name="efermi">     -3.96951195 </i>
   <total>
    <array>
     <dimension dim="1">gridpoints</dimension>
     <dimension dim="2">spin</dimension>
     <field>energy</field>
     <field>total</field>
     <field>integrated</field>
     <set>
      <set comment="spin 1">
       <r>   -71.1109     0.0000     0.0000 </r>
       <r>   -70.8460     0.0000     0.0000 </r>
       <r>   -70.5811     0.0000     0.0000 </r>
       <r>   -70.3162     0.0000     0.0000 </r>
       <r>   -70.0514     0.0000     0.0000 </r>
       <r>   -69.7865     0.0000     0.0000 </r>
       <r>   -69.5216     0.0000     0.0000 </r>
       <r>   -69.2567     0.0000     0.0000 </r>
       <r>   -68.9918     0.0000     0.0000 </r>
       <r>   -68.7269     0.0000     0.0000 </r>
       <r>   -68.4620     0.0000     0.0000 </r>
       <r>   -68.1971     0.0000     0.0000 </r>
       <r>   -67.9322     0.0000     0.0000 </r>
       <r>   -67.6673     0.0000     0.0000 </r>
       <r>   -67.4024    11.2888     2.9903 </r>
       <r>   -67.1375     0.0365     3.0000 </r>
       <r>   -66.8726     0.0000     3.0000 </r>
       <r>   -66.6077     0.0000     3.0000 </r>
       <r>   -66.3429     0.0000     3.0000 </r>
       <r>   -66.0780     0.0000     3.0000 </r>
       <r>   -65.8131     0.0000     3.0000 </r>
       <r>   -65.5482     0.0000     3.0000 </r>
       <r>   -65.2833     0.0000     3.0000 </r>
       <r>   -65.0184     0.0000     3.0000 </r>
       <r>   -64.7535     0.0000     3.0000 </r>
       <r>   -64.4886     0.0000     3.0000 </r>
       <r>   -64.2237     0.0000     3.0000 </r>
       <r>   -63.9588     0.0000     3.0000 </r>
       <r>   -63.6939     0.0000     3.0000 </r>
       <r>   -63.4290     0.0000     3.0000 </r>
       <r>   -63.1641     0.0000     3.0000 </r>
       <r>   -62.8992     0.0000     3.0000 </r>
       <r>   -62.6344     0.0000     3.0000 </r>
       <r>   -62.3695     0.0000     3.0000 </r>
       <r>   -62.1046     0.0000     3.0000 </r>
       <r>   -61.8397     0.0000     3.0000 </r>
       <r>   -61.5748     0.0000     3.0000 </r>
       <r>   -61.3099     0.0000     3.0000 </r>
       <r>   -61.0450     0.0000     3.0000 </r>
       <r>   -60.7801     0.0000     3.0000 </r>
       <r>   -60.5152     0.0000     3.0000 </r>
       <r>   -60.2503     0.0000     3.0000 </r>
       <r>   -59.9854     0.0000     3.0000 </r>
       <r>   -59.7205     0.0000     3.0000 </r>
       <r>   -59.4556     0.0000     3.0000 </r>
       <r>   -59.1907     0.0000     3.0000 </r>
       <r>   -58.9259     0.0000     3.0000 </r>
       <r>   -58.6610     0.0000     3.0000 </r>
       <r>   -58.3961     0.0000     3.0000 </r>
       <r>   -58.1312     0.0000     3.0000 </r>
       <r>   -57.8663     0.0000     3.0000 </r>
       <r>   -57.6014     0.0000     3.0000 </r>
       <r>   -57.3365     0.0000     3.0000 </r>
       <r>   -57.0716     0.0000     3.0000 </r>
       <r>   -56.8067     0.0000     3.0000 </r>
       <r>   -56.5418     0.0000     3.0000 </r>
       <r>   -56.2769     0.0000     3.0000 </r>
       <r>   -56.0120     0.0000     3.0000 </r>
       <r>   -55.7471     0.0000     3.0000 </r>
       <r>   -55.4822     0.0000     3.0000 </r>
       <r>   -55.2174     0.0000     3.0000 </r>
       <r>   -54.9525     0.0000     3.0000 </r>
       <r>   -54.6876     0.0000     3.0000 </r>
       <r>   -54.4227     0.0000     3.0000 </r>
       <r>   -54.1578     0.0000     3.0000 </r>
       <r>   -53.8929     0.0000     3.0000 </r>
       <r>   -53.6280     0.0000     3.0000 </r>
       <r>   -53.3631     0.0000     3.0000 </r>
       <r>   -53.0982     0.0000     3.0000 </r>
       <r>   -52.8333     0.0000     3.0000 </r>
       <r>   -52.5684     0.0000     3.0000 </r>
       <r>   -52.3035     0.0000     3.0000 </r>
       <r>   -52.0386     0.0000     3.0000 </r>
       <r>   -51.7737     0.0000     3.0000 </r>
       <r>   -51.5089     0.0000     3.0000 </r>
       <r>   -51.2440     0.0000     3.0000 </r>
       <r>   -50.9791     0.0000     3.0000 </r>
       <r>   -50.7142     0.0000     3.0000 </r>
       <r>   -50.4493     0.0000     3.0000 </r>
       <r>   -50.1844     0.0000     3.0000 </r>
       <r>   -49.9195     0.0000     3.0000 </r>
       <r>   -49.6546     0.0000     3.0000 </r>
       <r>   -49.3897     0.0000     3.0000 </r>
       <r>   -49.1248     0.0000     3.0000 </r>
       <r>   -48.8599     0.0000     3.0000 </r>
       <r>   -48.5950     0.0000     3.0000 </r>
       <r>   -48.3301     0.0000     3.0000 </r>
       <r>   -48.0652     0.0000     3.0000 </r>
       <r>   -47.8004     0.0000     3.0000 </r>
       <r>   -47.5355     0.0000     3.0000 </r>
       <r>   -47.2706     0.0000     3.0000 </r>
       <r>   -47.0057     0.0000     3.0000 </r>
       <r>   -46.7408     0.0000     3.0000 </r>
       <r>   -46.4759     0.0000     3.0000 </r>
       <r>   -46.2110     0.0000     3.0000 </r>
       <r>   -45.9461     0.0000     3.0000 </r>
       <r>   -45.6812     0.0000     3.0000 </r>
       <r>   -45.4163     0.0000     3.0000 </r>
       <r>   -45.1514     0.0000     3.0000 </r>
       <r>   -44.8865     0.0000     3.0000 </r>
       <r>   -44.6216     0.0000     3.0000 </r>
       <r>   -44.3567     0.0000     3.0000 </r>
       <r>   -44.0919     0.0000     3.0000 </r>
       <r>   -43.8270     0.0000     3.0000 </r>
       <r>   -43.5621     0.0000     3.0000 </r>
       <r>   -43.2972     0.0000     3.0000 </r>
       <r>   -43.0323     0.0000     3.0000 </r>
       <r>   -42.7674     0.0000     3.0000 </r>
       <r>   -42.5025     0.0000     3.0000 </r>
       <r>   -42.2376     0.0000     3.0000 </r>
       <r>   -41.9727     0.0000     3.0000 </r>
       <r>   -41.7078     0.0000     3.0000 </r>
       <r>   -41.4429     0.0000     3.0000 </r>
       <r>   -41.1780     0.0000     3.0000 </r>
       <r>   -40.9131     0.0000     3.0000 </r>
       <r>   -40.6482     0.0000     3.0000 </r>
       <r>   -40.3834     0.0000     3.0000 </r>
       <r>   -40.1185     0.0000     3.0000 </r>
       <r>   -39.8536     0.0000     3.0000 </r>
       <r>   -39.5887     0.0000     3.0000 </r>
       <r>   -39.3238     0.0000     3.0000 </r>
       <r>   -39.0589     0.0000     3.0000 </r>
       <r>   -38.7940     0.0000     3.0000 </r>
       <r>   -38.5291     0.0000     3.0000 </r>
       <r>   -38.2642     0.0000     3.0000 </r>
       <r>   -37.9993     0.0000     3.0000 </r>
       <r>   -37.7344     0.0000     3.0000 </r>
       <r>   -37.4695     0.0000     3.0000 </r>
       <r>   -37.2046     0.0000     3.0000 </r>
       <r>   -36.9397     0.0000     3.0000 </r>
       <r>   -36.6749     0.0000     3.0000 </r>
       <r>   -36.4100     0.0000     3.0000 </r>
       <r>   -36.1451     0.0000     3.0000 </r>
       <r>   -35.8802     0.0000     3.0000 </r>
       <r>   -35.6153     0.0000     3.0000 </r>
       <r>   -35.3504     0.0000     3.0000 </r>
       <r>   -35.0855     0.0000     3.0000 </r>
       <r>   -34.8206     0.0000     3.0000 </r>
       <r>   -34.5557     0.0000     3.0000 </r>
       <r>   -34.2908     0.0000     3.0000 </r>
       <r>   -34.0259     0.0000     3.0000 </r>
       <r>   -33.7610     0.0000     3.0000 </r>
       <r>   -33.4961     0.0000     3.0000 </r>
       <r>   -33.2312     0.0000     3.0000 </r>
       <r>   -32.9664     0.0000     3.0000 </r>
       <r>   -32.7015     0.0000     3.0000 </r>
       <r>   -32.4366     0.0000     3.0000 </r>
       <r>   -32.1717     0.0000     3.0000 </r>
       <r>   -31.9068     0.0000     3.0000 </r>
       <r>   -31.6419     0.0000     3.0000 </r>
       <r>   -31.3770     0.0000     3.0000 </r>
       <r>   -31.1121     0.0000     3.0000 </r>
       <r>   -30.8472     0.0000     3.0000 </r>
       <r>   -30.5823     0.0000     3.0000 </r>
       <r>   -30.3174     0.0000     3.0000 </r>
       <r>   -30.0525     0.0000     3.0000 </r>
       <r>   -29.7876     0.0000     3.0000 </r>
       <r>   -29.5227     0.0000     3.0000 </r>
       <r>   -29.2579     0.0000     3.0000 </r>
       <r>   -28.9930     0.0000     3.0000 </r>
       <r>   -28.7281     0.0000     3.0000 </r>
       <r>   -28.4632     0.0000     3.0000 </r>
       <r>   -28.1983     0.0000     3.0000 </r>
       <r>   -27.9334     0.0000     3.0000 </r>
       <r>   -27.6685     0.0000     3.0000 </r>
       <r>   -27.4036     0.0000     3.0000 </r>
       <r>   -27.1387     0.0000     3.0000 </r>
       <r>   -26.8738     0.0000     3.0000 </r>
       <r>   -26.6089     0.0000     3.0000 </r>
       <r>   -26.3440     0.0000     3.0000 </r>
       <r>   -26.0791     0.0000     3.0000 </r>
       <r>   -25.8142     0.0000     3.0000 </r>
       <r>   -25.5494     0.0000     3.0000 </r>
       <r>   -25.2845     0.0000     3.0000 </r>
       <r>   -25.0196     0.0000     3.0000 </r>
       <r>   -24.7547     0.0000     3.0000 </r>
       <r>   -24.4898     0.0000     3.0000 </r>
       <r>   -24.2249     0.0000     3.0000 </r>
       <r>   -23.9600     0.0000     3.0000 </r>
       <r>   -23.6951     0.0000     3.0000 </r>
       <r>   -23.4302     0.0000     3.0000 </r>
       <r>   -23.1653     0.0000     3.0000 </r>
       <r>   -22.9004     0.0000     3.0000 </r>
       <r>   -22.6355     0.0000     3.0000 </r>
       <r>   -22.3706     0.0000     3.0000 </r>
       <r>   -22.1057     0.0000     3.0000 </r>
       <r>   -21.8409     0.0000     3.0000 </r>
       <r>   -21.5760     0.0000     3.0000 </r>
       <r>   -21.3111     0.0000     3.0000 </r>
       <r>   -21.0462     0.0000     3.0000 </r>
       <r>   -20.7813     0.0000     3.0000 </r>
       <r>   -20.5164     0.0000     3.0000 </r>
       <r>   -20.2515     0.0000     3.0000 </r>
       <r>   -19.9866     0.0000     3.0000 </r>
       <r>   -19.7217     0.0000     3.0000 </r>
       <r>   -19.4568     0.0000     3.0000 </r>
       <r>   -19.1919     0.0000     3.0000 </r>
       <r>   -18.9270     0.0000     3.0000 </r>
       <r>   -18.6621     0.0000     3.0000 </r>
       <r>   -18.3972     0.0000     3.0000 </r>
       <r>   -18.1324     0.0000     3.0000 </r>
       <r>   -17.8675     0.0000     3.0000 </r>
       <r>   -17.6026     0.0000     3.0000 </r>
       <r>   -17.3377     0.0000     3.0000 </r>
       <r>   -17.0728     0.0000     3.0000 </r>
       <r>   -16.8079     0.0000     3.0000 </r>
       <r>   -16.5430     0.0000     3.0000 </r>
       <r>   -16.2781     0.0000     3.0000 </r>
       <r>   -16.0132     0.0000     3.0000 </r>
       <r>   -15.7483     0.0000     3.0000 </r>
       <r>   -15.4834     0.0000     3.0000 </r>
       <r>   -15.2185     0.0000     3.0000 </r>
       <r>   -14.9536     0.0000     3.0000 </r>
       <r>   -14.6887     0.0000     3.0000 </r>
       <r>   -14.4239     0.0000     3.0000 </r>
       <r>   -14.1590     0.0000     3.0000 </r>
       <r>   -13.8941     0.0000     3.0000 </r>
       <r>   -13.6292     0.0000     3.0000 </r>
       <r>   -13.3643     0.0000     3.0000 </r>
       <r>   -13.0994     0.0000     3.0000 </r>
       <r>   -12.8345     0.0000     3.0000 </r>
       <r>   -12.5696     0.0000     3.0000 </r>
       <r>   -12.3047     0.0000     3.0000 </r>
       <r>   -12.0398     0.0000     3.0000 </r>
       <r>   -11.7749     0.0000     3.0000 </r>
       <r>   -11.5100     0.0000     3.0000 </r>
       <r>   -11.2451     0.0000     3.0000 </r>
       <r>   -10.9802     0.0000     3.0000 </r>
       <r>   -10.7154     0.0000     3.0000 </r>
       <r>   -10.4505     0.0000     3.0000 </r>
       <r>   -10.1856     0.0000     3.0000 </r>
       <r>    -9.9207     0.0000     3.0000 </r>
       <r>    -9.6558     0.0000     3.0000 </r>
       <r>    -9.3909     0.0000     3.0000 </r>
       <r>    -9.1260     0.0000     3.0000 </r>
       <r>    -8.8611     0.0000     3.0000 </r>
       <r>    -8.5962     0.0000     3.0000 </r>
       <r>    -8.3313     0.0000     3.0000 </r>
       <r>    -8.0664     0.0000     3.0000 </r>
       <r>    -7.8015     0.0000     3.0000 </r>
       <r>    -7.5366     0.0000     3.0000 </r>
       <r>    -7.2717     0.0000     3.0000 </r>
       <r>    -7.0069     0.0000     3.0000 </r>
       <r>    -6.7420     0.0000     3.0000 </r>
       <r>    -6.4771     0.0000     3.0000 </r>
       <r>    -6.2122     0.0000     3.0000 </r>
       <r>    -5.9473     5.0928     4.3491 </r>
       <r>    -5.6824     2.4574     5.0000 </r>
       <r>    -5.4175     0.0542     5.0144 </r>
       <r>    -5.1526    11.2711     8.0000 </r>
       <r>    -4.8877     2.5250     8.6688 </r>
       <r>    -4.6228     1.2502     9.0000 </r>
       <r>    -4.3579     0.0000     9.0000 </r>
       <r>    -4.0930     0.0000     9.0000 </r>
       <r>    -3.8281     0.0000     9.0000 </r>
       <r>    -3.5632     0.0000     9.0000 </r>
       <r>    -3.2984     0.0000     9.0000 </r>
       <r>    -3.0335     0.0000     9.0000 </r>
       <r>    -2.7686     0.0000     9.0000 </r>
       <r>    -2.5037     0.0000     9.0000 </r>
       <r>    -2.2388     0.0000     9.0000 </r>
       <r>    -1.9739     0.0000     9.0000 </r>
       <r>    -1.7090     0.0000     9.0000 </r>
       <r>    -1.4441     0.0000     9.0000 </r>
       <r>    -1.1792     0.0000     9.0000 </r>
       <r>    -0.9143     0.2247     9.0595 </r>
       <r>    -0.6494    11.1006    12.0000 </r>
       <r>    -0.3845     0.0069    12.0018 </r>
       <r>    -0.1196     3.7682    13.0000 </r>
       <r>     0.1453     0.0000    13.0000 </r>
       <r>     0.4101     0.0000    13.0000 </r>
       <r>     0.6750     0.0000    13.0000 </r>
       <r>     0.9399     7.3911    14.9579 </r>
       <r>     1.2048     0.1591    15.0000 </r>
       <r>     1.4697     0.1891    15.0501 </r>
       <r>     1.7346    14.9093    18.9994 </r>
       <r>     1.9995     6.0456    20.6009 </r>
       <r>     2.2644     5.2818    22.0000 </r>
       <r>     2.5293    17.6561    26.6770 </r>
       <r>     2.7942     1.2195    27.0000 </r>
       <r>     3.0591     0.0000    27.0000 </r>
       <r>     3.3240     0.0332    27.0088 </r>
       <r>     3.5889    11.7910    30.1322 </r>
       <r>     3.8538    18.2511    34.9668 </r>
       <r>     4.1186     0.1255    35.0000 </r>
       <r>     4.3835     2.3336    35.6181 </r>
       <r>     4.6484     1.4416    36.0000 </r>
       <r>     4.9133     0.0000    36.0000 </r>
       <r>     5.1782     0.0000    36.0000 </r>
       <r>     5.4431     0.0000    36.0000 </r>
       <r>     5.7080     0.0000    36.0000 </r>
       <r>     5.9729     0.0000    36.0000 </r>
       <r>     6.2378     0.0000    36.0000 </r>
       <r>     6.5027     0.0000    36.0000 </r>
       <r>     6.7676     0.0000    36.0000 </r>
       <r>     7.0325     0.0000    36.0000 </r>
       <r>     7.2974     0.0000    36.0000 </r>
       <r>     7.5623     0.0000    36.0000 </r>
       <r>     7.8271     0.0000    36.0000 </r>
       <r>     8.0920     0.0000    36.0000 </r>
       <r>     8.3569     0.0000    36.0000 </r>
      </set>
      <set comment="spin 2">
       <r>   -71.1109     0.0000     0.0000 </r>
       <r>   -70.8460     0.0000     0.0000 </r>
       <r>   -70.5811     0.0000     0.0000 </r>
       <r>   -70.3162     0.0000     0.0000 </r>
       <r>   -70.0514     0.0000     0.0000 </r>
       <r>   -69.7865     0.0000     0.0000 </r>
       <r>   -69.5216     0.0000     0.0000 </r>
       <r>   -69.2567     0.0000     0.0000 </r>
       <r>   -68.9918     0.0000     0.0000 </r>
       <r>   -68.7269     0.0000     0.0000 </r>
       <r>   -68.4620     0.0000     0.0000 </r>
       <r>   -68.1971     0.0000     0.0000 </r>
       <r>   -67.9322     0.0000     0.0000 </r>
       <r>   -67.6673     0.0000     0.0000 </r>
       <r>   -67.4024     0.0000     0.0000 </r>
       <r>   -67.1375     0.0000     0.0000 </r>
       <r>   -66.8726     0.0000     0.0000 </r>
       <r>   -66.6077     0.0000     0.0000 </r>
       <r>   -66.3429     0.0089     0.0024 </r>
       <r>   -66.0780    11.3164     3.0000 </r>
       <r>   -65.8131     0.0000     3.0000 </r>
       <r>   -65.5482     0.0000     3.0000 </r>
       <r>   -65.2833     0.0000     3.0000 </r>
       <r>   -65.0184     0.0000     3.0000 </r>
       <r>   -64.7535     0.0000     3.0000 </r>
       <r>   -64.4886     0.0000     3.0000 </r>
       <r>   -64.2237     0.0000     3.0000 </r>
       <r>   -63.9588     0.0000     3.0000 </r>
       <r>   -63.6939     0.0000     3.0000 </r>
       <r>   -63.4290     0.0000     3.0000 </r>
       <r>   -63.1641     0.0000     3.0000 </r>
       <r>   -62.8992     0.0000     3.0000 </r>
       <r>   -62.6344     0.0000     3.0000 </r>
       <r>   -62.3695     0.0000     3.0000 </r>
       <r>   -62.1046     0.0000     3.0000 </r>
       <r>   -61.8397     0.0000     3.0000 </r>
       <r>   -61.5748     0.0000     3.0000 </r>
       <r>   -61.3099     0.0000     3.0000 </r>
       <r>   -61.0450     0.0000     3.0000 </r>
       <r>   -60.7801     0.0000     3.0000 </r>
       <r>   -60.5152     0.0000     3.0000 </r>
       <r>   -60.2503     0.0000     3.0000 </r>
       <r>   -59.9854     0.0000     3.0000 </r>
       <r>   -59.7205     0.0000     3.0000 </r>
       <r>   -59.4556     0.0000     3.0000 </r>
       <r>   -59.1907     0.0000     3.0000 </r>
       <r>   -58.9259     0.0000     3.0000 </r>
       <r>   -58.6610     0.0000     3.0000 </r>
       <r>   -58.3961     0.0000     3.0000 </r>
       <r>   -58.1312     0.0000     3.0000 </r>
       <r>   -57.8663     0.0000     3.0000 </r>
       <r>   -57.6014     0.0000     3.0000 </r>
       <r>   -57.3365     0.0000     3.0000 </r>
       <r>   -57.0716     0.0000     3.0000 </r>
       <r>   -56.8067     0.0000     3.0000 </r>
       <r>   -56.5418     0.0000     3.0000 </r>
       <r>   -56.2769     0.0000     3.0000 </r>
       <r>   -56.0120     0.0000     3.0000 </r>
       <r>   -55.7471     0.0000     3.0000 </r>
       <r>   -55.4822     0.0000     3.0000 </r>
       <r>   -55.2174     0.0000     3.0000 </r>
       <r>   -54.9525     0.0000     3.0000 </r>
       <r>   -54.6876     0.0000     3.0000 </r>
       <r>   -54.4227     0.0000     3.0000 </r>
       <r>   -54.1578     0.0000     3.0000 </r>
       <r>   -53.8929     0.0000     3.0000 </r>
       <r>   -53.6280     0.0000     3.0000 </r>
       <r>   -53.3631     0.0000     3.0000 </r>
       <r>   -53.0982     0.0000     3.0000 </r>
       <r>   -52.8333     0.0000     3.0000 </r>
       <r>   -52.5684     0.0000     3.0000 </r>
       <r>   -52.3035     0.0000     3.0000 </r>
       <r>   -52.0386     0.0000     3.0000 </r>
       <r>   -51.7737     0.0000     3.0000 </r>
       <r>   -51.5089     0.0000     3.0000 </r>
       <r>   -51.2440     0.0000     3.0000 </r>
       <r>   -50.9791     0.0000     3.0000 </r>
       <r>   -50.7142     0.0000     3.0000 </r>
       <r>   -50.4493     0.0000     3.0000 </r>
       <r>   -50.1844     0.0000     3.0000 </r>
       <r>   -49.9195     0.0000     3.0000 </r>
       <r>   -49.6546     0.0000     3.0000 </r>
       <r>   -49.3897     0.0000     3.0000 </r>
       <r>   -49.1248     0.0000     3.0000 </r>
       <r>   -48.8599     0.0000     3.0000 </r>
       <r>   -48.5950     0.0000     3.0000 </r>
       <r>   -48.3301     0.0000     3.0000 </r>
       <r>   -48.0652     0.0000     3.0000 </r>
       <r>   -47.8004     0.0000     3.0000 </r>
       <r>   -47.5355     0.0000     3.0000 </r>
       <r>   -47.2706     0.0000     3.0000 </r>
       <r>   -47.0057     0.0000     3.0000 </r>
       <r>   -46.7408     0.0000     3.0000 </r>
       <r>   -46.4759     0.0000     3.0000 </r>
       <r>   -46.2110     0.0000     3.0000 </r>
       <r>   -45.9461     0.0000     3.0000 </r>
       <r>   -45.6812     0.0000     3.0000 </r>
       <r>   -45.4163     0.0000     3.0000 </r>
       <r>   -45.1514     0.0000     3.0000 </r>
       <r>   -44.8865     0.0000     3.0000 </r>
       <r>   -44.6216     0.0000     3.0000 </r>
       <r>   -44.3567     0.0000     3.0000 </r>
       <r>   -44.0919     0.0000     3.0000 </r>
       <r>   -43.8270     0.0000     3.0000 </r>
       <r>   -43.5621     0.0000     3.0000 </r>
       <r>   -43.2972     0.0000     3.0000 </r>
       <r>   -43.0323     0.0000     3.0000 </r>
       <r>   -42.7674     0.0000     3.0000 </r>
       <r>   -42.5025     0.0000     3.0000 </r>
       <r>   -42.2376     0.0000     3.0000 </r>
       <r>   -41.9727     0.0000     3.0000 </r>
       <r>   -41.7078     0.0000     3.0000 </r>
       <r>   -41.4429     0.0000     3.0000 </r>
       <r>   -41.1780     0.0000     3.0000 </r>
       <r>   -40.9131     0.0000     3.0000 </r>
       <r>   -40.6482     0.0000     3.0000 </r>
       <r>   -40.3834     0.0000     3.0000 </r>
       <r>   -40.1185     0.0000     3.0000 </r>
       <r>   -39.8536     0.0000     3.0000 </r>
       <r>   -39.5887     0.0000     3.0000 </r>
       <r>   -39.3238     0.0000     3.0000 </r>
       <r>   -39.0589     0.0000     3.0000 </r>
       <r>   -38.7940     0.0000     3.0000 </r>
       <r>   -38.5291     0.0000     3.0000 </r>
       <r>   -38.2642     0.0000     3.0000 </r>
       <r>   -37.9993     0.0000     3.0000 </r>
       <r>   -37.7344     0.0000     3.0000 </r>
       <r>   -37.4695     0.0000     3.0000 </r>
       <r>   -37.2046     0.0000     3.0000 </r>
       <r>   -36.9397     0.0000     3.0000 </r>
       <r>   -36.6749     0.0000     3.0000 </r>
       <r>   -36.4100     0.0000     3.0000 </r>
       <r>   -36.1451     0.0000     3.0000 </r>
       <r>   -35.8802     0.0000     3.0000 </r>
       <r>   -35.6153     0.0000     3.0000 </r>
       <r>   -35.3504     0.0000     3.0000 </r>
       <r>   -35.0855     0.0000     3.0000 </r>
       <r>   -34.8206     0.0000     3.0000 </r>
       <r>   -34.5557     0.0000     3.0000 </r>
       <r>   -34.2908     0.0000     3.0000 </r>
       <r>   -34.0259     0.0000     3.0000 </r>
       <r>   -33.7610     0.0000     3.0000 </r>
       <r>   -33.4961     0.0000     3.0000 </r>
       <r>   -33.2312     0.0000     3.0000 </r>
       <r>   -32.9664     0.0000     3.0000 </r>
       <r>   -32.7015     0.0000     3.0000 </r>
       <r>   -32.4366     0.0000     3.0000 </r>
       <r>   -32.1717     0.0000     3.0000 </r>
       <r>   -31.9068     0.0000     3.0000 </r>
       <r>   -31.6419     0.0000     3.0000 </r>
       <r>   -31.3770     0.0000     3.0000 </r>
       <r>   -31.1121     0.0000     3.0000 </r>
       <r>   -30.8472     0.0000     3.0000 </r>
       <r>   -30.5823     0.0000     3.0000 </r>
       <r>   -30.3174     0.0000     3.0000 </r>
       <r>   -30.0525     0.0000     3.0000 </r>
       <r>   -29.7876     0.0000     3.0000 </r>
       <r>   -29.5227     0.0000     3.0000 </r>
       <r>   -29.2579     0.0000     3.0000 </r>
       <r>   -28.9930     0.0000     3.0000 </r>
       <r>   -28.7281     0.0000     3.0000 </r>
       <r>   -28.4632     0.0000     3.0000 </r>
       <r>   -28.1983     0.0000     3.0000 </r>
       <r>   -27.9334     0.0000     3.0000 </r>
       <r>   -27.6685     0.0000     3.0000 </r>
       <r>   -27.4036     0.0000     3.0000 </r>
       <r>   -27.1387     0.0000     3.0000 </r>
       <r>   -26.8738     0.0000     3.0000 </r>
       <r>   -26.6089     0.0000     3.0000 </r>
       <r>   -26.3440     0.0000     3.0000 </r>
       <r>   -26.0791     0.0000     3.0000 </r>
       <r>   -25.8142     0.0000     3.0000 </r>
       <r>   -25.5494     0.0000     3.0000 </r>
       <r>   -25.2845     0.0000     3.0000 </r>
       <r>   -25.0196     0.0000     3.0000 </r>
       <r>   -24.7547     0.0000     3.0000 </r>
       <r>   -24.4898     0.0000     3.0000 </r>
       <r>   -24.2249     0.0000     3.0000 </r>
       <r>   -23.9600     0.0000     3.0000 </r>
       <r>   -23.6951     0.0000     3.0000 </r>
       <r>   -23.4302     0.0000     3.0000 </r>
       <r>   -23.1653     0.0000     3.0000 </r>
       <r>   -22.9004     0.0000     3.0000 </r>
       <r>   -22.6355     0.0000     3.0000 </r>
       <r>   -22.3706     0.0000     3.0000 </r>
       <r>   -22.1057     0.0000     3.0000 </r>
       <r>   -21.8409     0.0000     3.0000 </r>
       <r>   -21.5760     0.0000     3.0000 </r>
       <r>   -21.3111     0.0000     3.0000 </r>
       <r>   -21.0462     0.0000     3.0000 </r>
       <r>   -20.7813     0.0000     3.0000 </r>
       <r>   -20.5164     0.0000     3.0000 </r>
       <r>   -20.2515     0.0000     3.0000 </r>
       <r>   -19.9866     0.0000     3.0000 </r>
       <r>   -19.7217     0.0000     3.0000 </r>
       <r>   -19.4568     0.0000     3.0000 </r>
       <r>   -19.1919     0.0000     3.0000 </r>
       <r>   -18.9270     0.0000     3.0000 </r>
       <r>   -18.6621     0.0000     3.0000 </r>
       <r>   -18.3972     0.0000     3.0000 </r>
       <r>   -18.1324     0.0000     3.0000 </r>
       <r>   -17.8675     0.0000     3.0000 </r>
       <r>   -17.6026     0.0000     3.0000 </r>
       <r>   -17.3377     0.0000     3.0000 </r>
       <r>   -17.0728     0.0000     3.0000 </r>
       <r>   -16.8079     0.0000     3.0000 </r>
       <r>   -16.5430     0.0000     3.0000 </r>
       <r>   -16.2781     0.0000     3.0000 </r>
       <r>   -16.0132     0.0000     3.0000 </r>
       <r>   -15.7483     0.0000     3.0000 </r>
       <r>   -15.4834     0.0000     3.0000 </r>
       <r>   -15.2185     0.0000     3.0000 </r>
       <r>   -14.9536     0.0000     3.0000 </r>
       <r>   -14.6887     0.0000     3.0000 </r>
       <r>   -14.4239     0.0000     3.0000 </r>
       <r>   -14.1590     0.0000     3.0000 </r>
       <r>   -13.8941     0.0000     3.0000 </r>
       <r>   -13.6292     0.0000     3.0000 </r>
       <r>   -13.3643     0.0000     3.0000 </r>
       <r>   -13.0994     0.0000     3.0000 </r>
       <r>   -12.8345     0.0000     3.0000 </r>
       <r>   -12.5696     0.0000     3.0000 </r>
       <r>   -12.3047     0.0000     3.0000 </r>
       <r>   -12.0398     0.0000     3.0000 </r>
       <r>   -11.7749     0.0000     3.0000 </r>
       <r>   -11.5100     0.0000     3.0000 </r>
       <r>   -11.2451     0.0000     3.0000 </r>
       <r>   -10.9802     0.0000     3.0000 </r>
       <r>   -10.7154     0.0000     3.0000 </r>
       <r>   -10.4505     0.0000     3.0000 </r>
       <r>   -10.1856     0.0000     3.0000 </r>
       <r>    -9.9207     0.0000     3.0000 </r>
       <r>    -9.6558     0.0000     3.0000 </r>
       <r>    -9.3909     0.0000     3.0000 </r>
       <r>    -9.1260     0.0000     3.0000 </r>
       <r>    -8.8611     0.0000     3.0000 </r>
       <r>    -8.5962     0.0000     3.0000 </r>
       <r>    -8.3313     0.0000     3.0000 </r>
       <r>    -8.0664     0.0000     3.0000 </r>
       <r>    -7.8015     0.0000     3.0000 </r>
       <r>    -7.5366     0.0000     3.0000 </r>
       <r>    -7.2717     0.0000     3.0000 </r>
       <r>    -7.0069     0.0000     3.0000 </r>
       <r>    -6.7420     0.0000     3.0000 </r>
       <r>    -6.4771     0.0000     3.0000 </r>
       <r>    -6.2122     0.0000     3.0000 </r>
       <r>    -5.9473     0.0000     3.0000 </r>
       <r>    -5.6824     0.0000     3.0000 </r>
       <r>    -5.4175     0.0000     3.0000 </r>
       <r>    -5.1526     0.0000     3.0000 </r>
       <r>    -4.8877     0.0000     3.0000 </r>
       <r>    -4.6228     0.8182     3.2167 </r>
       <r>    -4.3579    10.5071     6.0000 </r>
       <r>    -4.0930     0.0009     6.0002 </r>
       <r>    -3.8281    11.3188     8.9985 </r>
       <r>    -3.5632     0.0057     9.0000 </r>
       <r>    -3.2984     0.0000     9.0000 </r>
       <r>    -3.0335     0.0000     9.0000 </r>
       <r>    -2.7686     0.0000     9.0000 </r>
       <r>    -2.5037     0.0000     9.0000 </r>
       <r>    -2.2388     0.0000     9.0000 </r>
       <r>    -1.9739     0.0000     9.0000 </r>
       <r>    -1.7090     0.0000     9.0000 </r>
       <r>    -1.4441     0.0000     9.0000 </r>
       <r>    -1.1792     0.0000     9.0000 </r>
       <r>    -0.9143     0.0000     9.0000 </r>
       <r>    -0.6494     0.0000     9.0000 </r>
       <r>    -0.3845     0.0000     9.0000 </r>
       <r>    -0.1196    10.5436    11.7929 </r>
       <r>     0.1453     4.5568    13.0000 </r>
       <r>     0.4101     0.0000    13.0000 </r>
       <r>     0.6750     0.0000    13.0000 </r>
       <r>     0.9399     0.0000    13.0000 </r>
       <r>     1.2048     7.2786    14.9281 </r>
       <r>     1.4697     0.2716    15.0000 </r>
       <r>     1.7346     0.1627    15.0431 </r>
       <r>     1.9995    14.9377    19.0000 </r>
       <r>     2.2644     0.3082    19.0816 </r>
       <r>     2.5293    11.0172    22.0000 </r>
       <r>     2.7942    18.8018    26.9805 </r>
       <r>     3.0591     0.0737    27.0000 </r>
       <r>     3.3240     0.0000    27.0000 </r>
       <r>     3.5889     0.0164    27.0044 </r>
       <r>     3.8538    14.3342    30.8014 </r>
       <r>     4.1186    15.8472    34.9992 </r>
       <r>     4.3835     0.0030    35.0000 </r>
       <r>     4.6484     0.0122    35.0032 </r>
       <r>     4.9133     3.7630    36.0000 </r>
       <r>     5.1782     0.0000    36.0000 </r>
       <r>     5.4431     0.0000    36.0000 </r>
       <r>     5.7080     0.0000    36.0000 </r>
       <r>     5.9729     0.0000    36.0000 </r>
       <r>     6.2378     0.0000    36.0000 </r>
       <r>     6.5027     0.0000    36.0000 </r>
       <r>     6.7676     0.0000    36.0000 </r>
       <r>     7.0325     0.0000    36.0000 </r>
       <r>     7.2974     0.0000    36.0000 </r>
       <r>     7.5623     0.0000    36.0000 </r>
       <r>     7.8271     0.0000    36.0000 </r>
       <r>     8.0920     0.0000    36.0000 </r>
       <r>     8.3569     0.0000    36.0000 </r>
      </set>
     </set>
    </array>
   </total>
   <partial>
    <array>
     <dimension dim="1">gridpoints</dimension>
     <dimension dim="2">spin</dimension>
     <dimension dim="3">ion</dimension>
     <field>energy</field>
     <field>    s</field>
     <field>   py</field>
     <field>   pz</field>
     <field>   px</field>
     <field>  dxy</field>
     <field>  dyz</field>
     <field>  dz2</field>
     <field>  dxz</field>
     <field>x2-y2</field>
     <set>
      <set comment="ion 1">
       <set comment="spin 1">
        <r>   -71.1109     0.0000     0.0000     0.0000     0.0000     0.0000     0.0000     0.0000     0.0000     0.0000 </r>
        <r>   -70.8460     0.0000     0.0000     0.0000     0.0000     0.0000     0.0000     0.0000     0.0000     0.0000 </r>
        <r>   -70.5811     0.0000     0.0000     0.0000     0.0000     0.0000     0.0000     0.0000     0.0000     0.0000 </r>
        <r>   -70.3162     0.0000     0.0000     0.0000     0.0000     0.0000     0.0000     0.0000     0.0000     0.0000 </r>
        <r>   -70.0514     0.0000     0.0000     0.0000     0.0000     0.0000     0.0000     0.0000     0.0000     0.0000 </r>
        <r>   -69.7865     0.0000     0.0000     0.0000     0.0000     0.0000     0.0000     0.0000     0.0000     0.0000 </r>
        <r>   -69.5216     0.0000     0.0000     0.0000     0.0000     0.0000     0.0000     0.0000     0.0000     0.0000 </r>
        <r>   -69.2567     0.0000     0.0000     0.0000     0.0000     0.0000     0.0000     0.0000     0.0000     0.0000 </r>
        <r>   -68.9918     0.0000     0.0000     0.0000     0.0000     0.0000     0.0000     0.0000     0.0000     0.0000 </r>
        <r>   -68.7269     0.0000     0.0000     0.0000     0.0000     0.0000     0.0000     0.0000     0.0000     0.0000 </r>
        <r>   -68.4620     0.0000     0.0000     0.0000     0.0000     0.0000     0.0000     0.0000     0.0000     0.0000 </r>
        <r>   -68.1971     0.0000     0.0000     0.0000     0.0000     0.0000     0.0000     0.0000     0.0000     0.0000 </r>
        <r>   -67.9322     0.0000     0.0000     0.0000     0.0000     0.0000     0.0000     0.0000     0.0000     0.0000 </r>
        <r>   -67.6673     0.0000     0.0000     0.0000     0.0000     0.0000     0.0000     0.0000     0.0000     0.0000 </r>
        <r>   -67.4024     0.0000     3.7514     3.7514     3.7514     0.0000     0.0000     0.0000     0.0000     0.0000 </r>
        <r>   -67.1375     0.0000     0.0121     0.0121     0.0121     0.0000     0.0000     0.0000     0.0000     0.0000 </r>
        <r>   -66.8726     0.0000     0.0000     0.0000     0.0000     0.0000     0.0000     0.0000     0.0000     0.0000 </r>
        <r>   -66.6077     0.0000     0.0000     0.0000     0.0000     0.0000     0.0000     0.0000     0.0000     0.0000 </r>
        <r>   -66.3429     0.0000     0.0000     0.0000     0.0000     0.0000     0.0000     0.0000     0.0000     0.0000 </r>
        <r>   -66.0780     0.0000     0.0000     0.0000     0.0000     0.0000     0.0000     0.0000     0.0000     0.0000 </r>
        <r>   -65.8131     0.0000     0.0000     0.0000     0.0000     0.0000     0.0000     0.0000     0.0000     0.0000 </r>
        <r>   -65.5482     0.0000     0.0000     0.0000     0.0000     0.0000     0.0000     0.0000     0.0000     0.0000 </r>
        <r>   -65.2833     0.0000     0.0000     0.0000     0.0000     0.0000     0.0000     0.0000     0.0000     0.0000 </r>
        <r>   -65.0184     0.0000     0.0000     0.0000     0.0000     0.0000     0.0000     0.0000     0.0000     0.0000 </r>
        <r>   -64.7535     0.0000     0.0000     0.0000     0.0000     0.0000     0.0000     0.0000     0.0000     0.0000 </r>
        <r>   -64.4886     0.0000     0.0000     0.0000     0.0000     0.0000     0.0000     0.0000     0.0000     0.0000 </r>
        <r>   -64.2237     0.0000     0.0000     0.0000     0.0000     0.0000     0.0000     0.0000     0.0000     0.0000 </r>
        <r>   -63.9588     0.0000     0.0000     0.0000     0.0000     0.0000     0.0000     0.0000     0.0000     0.0000 </r>
        <r>   -63.6939     0.0000     0.0000     0.0000     0.0000     0.0000     0.0000     0.0000     0.0000     0.0000 </r>
        <r>   -63.4290     0.0000     0.0000     0.0000     0.0000     0.0000     0.0000     0.0000     0.0000     0.0000 </r>
        <r>   -63.1641     0.0000     0.0000     0.0000     0.0000     0.0000     0.0000     0.0000     0.0000     0.0000 </r>
        <r>   -62.8992     0.0000     0.0000     0.0000     0.0000     0.0000     0.0000     0.0000     0.0000     0.0000 </r>
        <r>   -62.6344     0.0000     0.0000     0.0000     0.0000     0.0000     0.0000     0.0000     0.0000     0.0000 </r>
        <r>   -62.3695     0.0000     0.0000     0.0000     0.0000     0.0000     0.0000     0.0000     0.0000     0.0000 </r>
        <r>   -62.1046     0.0000     0.0000     0.0000     0.0000     0.0000     0.0000     0.0000     0.0000     0.0000 </r>
        <r>   -61.8397     0.0000     0.0000     0.0000     0.0000     0.0000     0.0000     0.0000     0.0000     0.0000 </r>
        <r>   -61.5748     0.0000     0.0000     0.0000     0.0000     0.0000     0.0000     0.0000     0.0000     0.0000 </r>
        <r>   -61.3099     0.0000     0.0000     0.0000     0.0000     0.0000     0.0000     0.0000     0.0000     0.0000 </r>
        <r>   -61.0450     0.0000     0.0000     0.0000     0.0000     0.0000     0.0000     0.0000     0.0000     0.0000 </r>
        <r>   -60.7801     0.0000     0.0000     0.0000     0.0000     0.0000     0.0000     0.0000     0.0000     0.0000 </r>
        <r>   -60.5152     0.0000     0.0000     0.0000     0.0000     0.0000     0.0000     0.0000     0.0000     0.0000 </r>
        <r>   -60.2503     0.0000     0.0000     0.0000     0.0000     0.0000     0.0000     0.0000     0.0000     0.0000 </r>
        <r>   -59.9854     0.0000     0.0000     0.0000     0.0000     0.0000     0.0000     0.0000     0.0000     0.0000 </r>
        <r>   -59.7205     0.0000     0.0000     0.0000     0.0000     0.0000     0.0000     0.0000     0.0000     0.0000 </r>
        <r>   -59.4556     0.0000     0.0000     0.0000     0.0000     0.0000     0.0000     0.0000     0.0000     0.0000 </r>
[...]
        <r>    -3.5632     0.0013     0.0000     0.0000     0.0000     0.0000     0.0000     0.0003     0.0000     0.0002 </r>
        <r>    -3.2984     0.0000     0.0000     0.0000     0.0000     0.0000     0.0000     0.0000     0.0000     0.0000 </r>
        <r>    -3.0335     0.0000     0.0000     0.0000     0.0000     0.0000     0.0000     0.0000     0.0000     0.0000 </r>
        <r>    -2.7686     0.0000     0.0000     0.0000     0.0000     0.0000     0.0000     0.0000     0.0000     0.0000 </r>
        <r>    -2.5037     0.0000     0.0000     0.0000     0.0000     0.0000     0.0000     0.0000     0.0000     0.0000 </r>
        <r>    -2.2388     0.0000     0.0000     0.0000     0.0000     0.0000     0.0000     0.0000     0.0000     0.0000 </r>
        <r>    -1.9739     0.0000     0.0000     0.0000     0.0000     0.0000     0.0000     0.0000     0.0000     0.0000 </r>
        <r>    -1.7090     0.0000     0.0000     0.0000     0.0000     0.0000     0.0000     0.0000     0.0000     0.0000 </r>
        <r>    -1.4441     0.0000     0.0000     0.0000     0.0000     0.0000     0.0000     0.0000     0.0000     0.0000 </r>
        <r>    -1.1792     0.0000     0.0000     0.0000     0.0000     0.0000     0.0000     0.0000     0.0000     0.0000 </r>
        <r>    -0.9143     0.0000     0.0000     0.0000     0.0000     0.0000     0.0000     0.0000     0.0000     0.0000 </r>
        <r>    -0.6494     0.0000     0.0000     0.0000     0.0000     0.0000     0.0000     0.0000     0.0000     0.0000 </r>
        <r>    -0.3845     0.0000     0.0000     0.0000     0.0000     0.0000     0.0000     0.0000     0.0000     0.0000 </r>
        <r>    -0.1196     0.0005     0.2051     0.2051     0.2051     0.0000     0.0000     0.0000     0.0000     0.0000 </r>
        <r>     0.1453     0.0765     0.0157     0.0157     0.0157     0.0000     0.0000     0.0000     0.0000     0.0000 </r>
        <r>     0.4101     0.0000     0.0000     0.0000     0.0000     0.0000     0.0000     0.0000     0.0000     0.0000 </r>
        <r>     0.6750     0.0000     0.0000     0.0000     0.0000     0.0000     0.0000     0.0000     0.0000     0.0000 </r>
        <r>     0.9399     0.0000     0.0000     0.0000     0.0000     0.0000     0.0000     0.0000     0.0000     0.0000 </r>
        <r>     1.2048     0.0000     0.0000     0.0000     0.0000     0.0000     0.0000     0.0142     0.0000     0.0142 </r>
        <r>     1.4697     0.0000     0.0000     0.0000     0.0000     0.0000     0.0000     0.0005     0.0000     0.0005 </r>
        <r>     1.7346     0.0006     0.0010     0.0010     0.0010     0.0000     0.0000     0.0000     0.0000     0.0000 </r>
        <r>     1.9995     0.0918     0.0810     0.0810     0.0810     0.0000     0.0000     0.0000     0.0000     0.0000 </r>
        <r>     2.2644     0.0000     0.0000     0.0000     0.0000     0.0009     0.0009     0.0000     0.0009     0.0000 </r>
        <r>     2.5293     0.0000     0.0000     0.0000     0.0000     0.0328     0.0328     0.0000     0.0328     0.0000 </r>
        <r>     2.7942     0.0000     0.0000     0.0000     0.0000     0.0000     0.0000     0.0112     0.0000     0.0112 </r>
        <r>     3.0591     0.0000     0.0000     0.0000     0.0000     0.0000     0.0000     0.0001     0.0000     0.0001 </r>
        <r>     3.3240     0.0000     0.0000     0.0000     0.0000     0.0000     0.0000     0.0000     0.0000     0.0000 </r>
        <r>     3.5889     0.0000     0.0002     0.0002     0.0002     0.0000     0.0000     0.0000     0.0000     0.0000 </r>
        <r>     3.8538     0.0816     0.1054     0.1054     0.1055     0.0000     0.0000     0.0000     0.0000     0.0000 </r>
        <r>     4.1186     0.0203     0.0000     0.0000     0.0000     0.0198     0.0198     0.0000     0.0198     0.0000 </r>
        <r>     4.3835     0.0000     0.0000     0.0000     0.0000     0.0000     0.0000     0.0000     0.0000     0.0000 </r>
        <r>     4.6484     0.0000     0.0000     0.0000     0.0003     0.0000     0.0000     0.0000     0.0000     0.0000 </r>
        <r>     4.9133     0.0000     0.0030     0.0091     0.0903     0.0000     0.0000     0.0000     0.0000     0.0000 </r>
        <r>     5.1782     0.0000     0.0000     0.0000     0.0000     0.0000     0.0000     0.0000     0.0000     0.0000 </r>
        <r>     5.4431     0.0000     0.0000     0.0000     0.0000     0.0000     0.0000     0.0000     0.0000     0.0000 </r>
        <r>     5.7080     0.0000     0.0000     0.0000     0.0000     0.0000     0.0000     0.0000     0.0000     0.0000 </r>
        <r>     5.9729     0.0000     0.0000     0.0000     0.0000     0.0000     0.0000     0.0000     0.0000     0.0000 </r>
        <r>     6.2378     0.0000     0.0000     0.0000     0.0000     0.0000     0.0000     0.0000     0.0000     0.0000 </r>
        <r>     6.5027     0.0000     0.0000     0.0000     0.0000     0.0000     0.0000     0.0000     0.0000     0.0000 </r>
        <r>     6.7676     0.0000     0.0000     0.0000     0.0000     0.0000     0.0000     0.0000     0.0000     0.0000 </r>
        <r>     7.0325     0.0000     0.0000     0.0000     0.0000     0.0000     0.0000     0.0000     0.0000     0.0000 </r>
        <r>     7.2974     0.0000     0.0000     0.0000     0.0000     0.0000     0.0000     0.0000     0.0000     0.0000 </r>
        <r>     7.5623     0.0000     0.0000     0.0000     0.0000     0.0000     0.0000     0.0000     0.0000     0.0000 </r>
        <r>     7.8271     0.0000     0.0000     0.0000     0.0000     0.0000     0.0000     0.0000     0.0000     0.0000 </r>
        <r>     8.0920     0.0000     0.0000     0.0000     0.0000     0.0000     0.0000     0.0000     0.0000     0.0000 </r>
        <r>     8.3569     0.0000     0.0000     0.0000     0.0000     0.0000     0.0000     0.0000     0.0000     0.0000 </r>
       </set>
      </set>
     </set>
    </array>
   </partial>
  </dos>
  <projected>
   <eigenvalues>
    <array>
     <dimension dim="1">band</dimension>
     <dimension dim="2">kpoint</dimension>
     <dimension dim="3">spin</dimension>
     <field>eigene</field>
     <field>occ</field>
     <set>
      <set comment="spin 1">
       <set comment="kpoint 1">
        <r>  -67.4988    1.0000 </r>
        <r>  -67.4988    1.0000 </r>
        <r>  -67.4987    1.0000 </r>
        <r>   -5.9633    1.0000 </r>
        <r>   -5.9633    1.0000 </r>
        <r>   -5.3259    1.0000 </r>
        <r>   -5.3259    1.0000 </r>
        <r>   -5.3259    1.0000 </r>
        <r>   -4.9032    1.0000 </r>
        <r>   -0.8416    0.0000 </r>
        <r>   -0.8416    0.0000 </r>
        <r>   -0.8416    0.0000 </r>
        <r>   -0.2818    0.0000 </r>
        <r>    0.8681    0.0000 </r>
        <r>    0.8681    0.0000 </r>
        <r>    1.5449    0.0000 </r>
        <r>    1.5449    0.0000 </r>
        <r>    1.5449    0.0000 </r>
        <r>    1.6192    0.0000 </r>
        <r>    1.9965    0.0000 </r>
        <r>    1.9965    0.0000 </r>
        <r>    1.9965    0.0000 </r>
        <r>    2.4623    0.0000 </r>
        <r>    2.4623    0.0000 </r>
        <r>    2.4623    0.0000 </r>
        <r>    2.4874    0.0000 </r>
        <r>    2.4874    0.0000 </r>
        <r>    3.4214    0.0000 </r>
        <r>    3.4214    0.0000 </r>
        <r>    3.4214    0.0000 </r>
        <r>    3.6286    0.0000 </r>
        <r>    3.6937    0.0000 </r>
        <r>    3.7729    0.0000 </r>
        <r>    3.7729    0.0000 </r>
        <r>    3.7729    0.0000 </r>
        <r>    4.3729    0.0000 </r>
       </set>
      </set>
      <set comment="spin 2">
       <set comment="kpoint 1">
        <r>  -66.2311    1.0000 </r>
        <r>  -66.2311    1.0000 </r>
        <r>  -66.2311    1.0000 </r>
        <r>   -4.5714    1.0000 </r>
        <r>   -4.5714    1.0000 </r>
        <r>   -4.5709    1.0000 </r>
        <r>   -3.9628    0.4243 </r>
        <r>   -3.9622    0.4179 </r>
        <r>   -3.9340    0.1578 </r>
        <r>   -0.1715    0.0000 </r>
        <r>   -0.1715    0.0000 </r>
        <r>   -0.1715    0.0000 </r>
        <r>   -0.0323    0.0000 </r>
        <r>    1.1412    0.0000 </r>
        <r>    1.1412    0.0000 </r>
        <r>    1.8143    0.0000 </r>
        <r>    1.8143    0.0000 </r>
        <r>    1.8143    0.0000 </r>
        <r>    1.8220    0.0000 </r>
        <r>    2.3324    0.0000 </r>
        <r>    2.3324    0.0000 </r>
        <r>    2.3324    0.0000 </r>
        <r>    2.6918    0.0000 </r>
        <r>    2.6918    0.0000 </r>
        <r>    2.6918    0.0000 </r>
        <r>    2.7072    0.0000 </r>
        <r>    2.7072    0.0000 </r>
        <r>    3.6941    0.0000 </r>
        <r>    3.6941    0.0000 </r>
        <r>    3.6941    0.0000 </r>
        <r>    3.8239    0.0000 </r>
        <r>    3.9746    0.0000 </r>
        <r>    3.9960    0.0000 </r>
        <r>    3.9960    0.0000 </r>
        <r>    3.9960    0.0000 </r>
        <r>    4.7448    0.0000 </r>
       </set>
      </set>
     </set>
    </array>
   </eigenvalues>
   <array>
    <dimension dim="1">ion</dimension>
    <dimension dim="2">band</dimension>
    <dimension dim="3">kpoint</dimension>
    <dimension dim="4">spin</dimension>
    <field>    s</field>
    <field>   py</field>
    <field>   pz</field>
    <field>   px</field>
    <field>  dxy</field>
    <field>  dyz</field>
    <field>  dz2</field>
    <field>  dxz</field>
    <field>x2-y2</field>
    <set>
     <set comment="spin1">
      <set comment="kpoint 1">
       <set comment="band 1">
        <r>  0.0000  0.9969  0.0000  0.0000  0.0000  0.0000  0.0000  0.0000  0.0000 </r>
       </set>
       <set comment="band 2">
        <r>  0.0000  0.0000  0.9969  0.0000  0.0000  0.0000  0.0000  0.0000  0.0000 </r>
       </set>
       <set comment="band 3">
        <r>  0.0000  0.0000  0.0000  0.9969  0.0000  0.0000  0.0000  0.0000  0.0000 </r>
       </set>
       <set comment="band 4">
        <r>  0.0000  0.0000  0.0000  0.0000  0.0000  0.0000  0.9178  0.0000  0.0009 </r>
       </set>
       <set comment="band 5">
        <r>  0.0000  0.0000  0.0000  0.0000  0.0000  0.0000  0.0009  0.0000  0.9178 </r>
       </set>
       <set comment="band 6">
        <r>  0.0000  0.0000  0.0000  0.0000  0.9128  0.0000  0.0000  0.0000  0.0000 </r>
       </set>
       <set comment="band 7">
        <r>  0.0000  0.0000  0.0000  0.0000  0.0000  0.9128  0.0000  0.0000  0.0000 </r>
       </set>
       <set comment="band 8">
        <r>  0.0000  0.0000  0.0000  0.0000  0.0000  0.0000  0.0000  0.9128  0.0000 </r>
       </set>
       <set comment="band 9">
        <r>  0.2552  0.0000  0.0000  0.0000  0.0000  0.0000  0.0000  0.0000  0.0000 </r>
       </set>
       <set comment="band 10">
        <r>  0.0000  0.0001  0.0739  0.0000  0.0000  0.0000  0.0000  0.0000  0.0000 </r>
       </set>
       <set comment="band 11">
        <r>  0.0000  0.0738  0.0001  0.0000  0.0000  0.0000  0.0000  0.0000  0.0000 </r>
       </set>
       <set comment="band 12">
        <r>  0.0000  0.0000  0.0000  0.0740  0.0000  0.0000  0.0000  0.0000  0.0000 </r>
       </set>
       <set comment="band 13">
        <r>  0.0213  0.0000  0.0000  0.0000  0.0000  0.0000  0.0000  0.0000  0.0000 </r>
       </set>
       <set comment="band 14">
        <r>  0.0000  0.0000  0.0000  0.0000  0.0000  0.0000  0.0035  0.0000  0.0000 </r>
       </set>
       <set comment="band 15">
        <r>  0.0000  0.0000  0.0000  0.0000  0.0000  0.0000  0.0000  0.0000  0.0035 </r>
       </set>
       <set comment="band 16">
        <r>  0.0000  0.0051  0.0176  0.0001  0.0000  0.0000  0.0000  0.0000  0.0000 </r>
       </set>
       <set comment="band 17">
        <r>  0.0000  0.0177  0.0051  0.0000  0.0000  0.0000  0.0000  0.0000  0.0000 </r>
       </set>
       <set comment="band 18">
        <r>  0.0000  0.0000  0.0002  0.0227  0.0000  0.0000  0.0000  0.0000  0.0000 </r>
       </set>
       <set comment="band 19">
        <r>  0.0244  0.0000  0.0000  0.0000  0.0000  0.0000  0.0000  0.0000  0.0000 </r>
       </set>
       <set comment="band 20">
        <r>  0.0000  0.0000  0.0000  0.0000  0.0104  0.0000  0.0000  0.0000  0.0000 </r>
       </set>
       <set comment="band 21">
        <r>  0.0000  0.0000  0.0000  0.0000  0.0000  0.0104  0.0000  0.0000  0.0000 </r>
       </set>
       <set comment="band 22">
        <r>  0.0000  0.0000  0.0000  0.0000  0.0000  0.0000  0.0000  0.0104  0.0000 </r>
       </set>
       <set comment="band 23">
        <r>  0.0000  0.0000  0.0000  0.0000  0.0000  0.0000  0.0000  0.0000  0.0000 </r>
       </set>
       <set comment="band 24">
        <r>  0.0000  0.0000  0.0000  0.0000  0.0000  0.0000  0.0000  0.0000  0.0000 </r>
       </set>
       <set comment="band 25">
        <r>  0.0000  0.0000  0.0000  0.0000  0.0000  0.0000  0.0000  0.0000  0.0000 </r>
       </set>
       <set comment="band 26">
        <r>  0.0000  0.0000  0.0000  0.0000  0.0000  0.0000  0.0028  0.0000  0.0000 </r>
       </set>
       <set comment="band 27">
        <r>  0.0000  0.0000  0.0000  0.0000  0.0000  0.0000  0.0000  0.0000  0.0028 </r>
       </set>
       <set comment="band 28">
        <r>  0.0000  0.0182  0.0007  0.0148  0.0000  0.0000  0.0000  0.0000  0.0000 </r>
       </set>
       <set comment="band 29">
        <r>  0.0000  0.0011  0.0274  0.0053  0.0000  0.0000  0.0000  0.0000  0.0000 </r>
       </set>
       <set comment="band 30">
        <r>  0.0000  0.0144  0.0057  0.0137  0.0000  0.0000  0.0000  0.0000  0.0000 </r>
       </set>
       <set comment="band 31">
        <r>  0.0282  0.0000  0.0000  0.0000  0.0000  0.0000  0.0000  0.0000  0.0000 </r>
       </set>
       <set comment="band 32">
        <r>  0.0000  0.0000  0.0000  0.0000  0.0000  0.0000  0.0000  0.0000  0.0000 </r>
       </set>
       <set comment="band 33">
        <r>  0.0000  0.0000  0.0000  0.0000  0.0053  0.0000  0.0000  0.0000  0.0000 </r>
       </set>
       <set comment="band 34">
        <r>  0.0000  0.0000  0.0000  0.0000  0.0000  0.0051  0.0000  0.0002  0.0000 </r>
       </set>
       <set comment="band 35">
        <r>  0.0000  0.0000  0.0000  0.0000  0.0000  0.0002  0.0000  0.0051  0.0000 </r>
       </set>
       <set comment="band 36">
        <r>  0.0000  0.0117  0.0004  0.0096  0.0000  0.0000  0.0000  0.0000  0.0000 </r>
       </set>
      </set>
     </set>
     <set comment="spin2">
      <set comment="kpoint 1">
       <set comment="band 1">
        <r>  0.0000  0.0000  0.0000  0.9971  0.0000  0.0000  0.0000  0.0000  0.0000 </r>
       </set>
       <set comment="band 2">
        <r>  0.0000  0.9971  0.0000  0.0000  0.0000  0.0000  0.0000  0.0000  0.0000 </r>
       </set>
       <set comment="band 3">
        <r>  0.0000  0.0000  0.9971  0.0000  0.0000  0.0000  0.0000  0.0000  0.0000 </r>
       </set>
       <set comment="band 4">
        <r>  0.0000  0.0000  0.0000  0.0000  0.0000  0.0000  0.0000  0.9141  0.0000 </r>
       </set>
       <set comment="band 5">
        <r>  0.0000  0.0000  0.0000  0.0000  0.0000  0.9141  0.0000  0.0000  0.0000 </r>
       </set>
       <set comment="band 6">
        <r>  0.0000  0.0000  0.0000  0.0000  0.9141  0.0000  0.0000  0.0000  0.0000 </r>
       </set>
       <set comment="band 7">
        <r>  0.0000  0.0000  0.0000  0.0000  0.0000  0.0000  0.0027  0.0000  0.9069 </r>
       </set>
       <set comment="band 8">
        <r>  0.0000  0.0000  0.0000  0.0000  0.0000  0.0000  0.9069  0.0000  0.0027 </r>
       </set>
       <set comment="band 9">
        <r>  0.2420  0.0000  0.0000  0.0000  0.0000  0.0000  0.0000  0.0000  0.0000 </r>
       </set>
       <set comment="band 10">
        <r>  0.0000  0.0000  0.0000  0.0585  0.0000  0.0000  0.0000  0.0000  0.0000 </r>
       </set>
       <set comment="band 11">
        <r>  0.0000  0.0585  0.0000  0.0000  0.0000  0.0000  0.0000  0.0000  0.0000 </r>
       </set>
       <set comment="band 12">
        <r>  0.0000  0.0000  0.0585  0.0000  0.0000  0.0000  0.0000  0.0000  0.0000 </r>
       </set>
       <set comment="band 13">
        <r>  0.0204  0.0000  0.0000  0.0000  0.0000  0.0000  0.0000  0.0000  0.0000 </r>
       </set>
       <set comment="band 14">
        <r>  0.0000  0.0000  0.0000  0.0000  0.0000  0.0000  0.0000  0.0000  0.0039 </r>
       </set>
       <set comment="band 15">
        <r>  0.0000  0.0000  0.0000  0.0000  0.0000  0.0000  0.0039  0.0000  0.0000 </r>
       </set>
       <set comment="band 16">
        <r>  0.0000  0.0000  0.0000  0.0217  0.0000  0.0000  0.0000  0.0000  0.0000 </r>
       </set>
       <set comment="band 17">
        <r>  0.0000  0.0217  0.0000  0.0000  0.0000  0.0000  0.0000  0.0000  0.0000 </r>
       </set>
       <set comment="band 18">
        <r>  0.0000  0.0000  0.0217  0.0000  0.0000  0.0000  0.0000  0.0000  0.0000 </r>
       </set>
       <set comment="band 19">
        <r>  0.0245  0.0000  0.0000  0.0000  0.0000  0.0000  0.0000  0.0000  0.0000 </r>
       </set>
       <set comment="band 20">
        <r>  0.0000  0.0000  0.0000  0.0000  0.0000  0.0000  0.0000  0.0089  0.0000 </r>
       </set>
       <set comment="band 21">
        <r>  0.0000  0.0000  0.0000  0.0000  0.0000  0.0089  0.0000  0.0000  0.0000 </r>
       </set>
       <set comment="band 22">
        <r>  0.0000  0.0000  0.0000  0.0000  0.0089  0.0000  0.0000  0.0000  0.0000 </r>
       </set>
       <set comment="band 23">
        <r>  0.0000  0.0000  0.0000  0.0000  0.0000  0.0000  0.0000  0.0000  0.0000 </r>
       </set>
       <set comment="band 24">
        <r>  0.0000  0.0000  0.0000  0.0000  0.0000  0.0000  0.0000  0.0000  0.0000 </r>
       </set>
       <set comment="band 25">
        <r>  0.0000  0.0000  0.0000  0.0000  0.0000  0.0000  0.0000  0.0000  0.0000 </r>
       </set>
       <set comment="band 26">
        <r>  0.0000  0.0000  0.0000  0.0000  0.0000  0.0000  0.0000  0.0000  0.0030 </r>
       </set>
       <set comment="band 27">
        <r>  0.0000  0.0000  0.0000  0.0000  0.0000  0.0000  0.0030  0.0000  0.0000 </r>
       </set>
       <set comment="band 28">
        <r>  0.0000  0.0006  0.0017  0.0257  0.0000  0.0000  0.0000  0.0000  0.0000 </r>
       </set>
       <set comment="band 29">
        <r>  0.0000  0.0244  0.0023  0.0013  0.0000  0.0000  0.0000  0.0000  0.0000 </r>
       </set>
       <set comment="band 30">
        <r>  0.0000  0.0030  0.0240  0.0010  0.0000  0.0000  0.0000  0.0000  0.0000 </r>
       </set>
       <set comment="band 31">
        <r>  0.0270  0.0000  0.0000  0.0000  0.0000  0.0000  0.0000  0.0000  0.0000 </r>
       </set>
       <set comment="band 32">
        <r>  0.0000  0.0000  0.0000  0.0000  0.0000  0.0000  0.0000  0.0000  0.0000 </r>
       </set>
       <set comment="band 33">
        <r>  0.0000  0.0000  0.0000  0.0000  0.0000  0.0000  0.0000  0.0052  0.0000 </r>
       </set>
       <set comment="band 34">
        <r>  0.0000  0.0000  0.0000  0.0000  0.0000  0.0052  0.0000  0.0000  0.0000 </r>
       </set>
       <set comment="band 35">
        <r>  0.0000  0.0000  0.0000  0.0000  0.0052  0.0000  0.0000  0.0000  0.0000 </r>
       </set>
       <set comment="band 36">
        <r>  0.0000  0.0008  0.0024  0.0240  0.0000  0.0000  0.0000  0.0000  0.0000 </r>
       </set>
      </set>
     </set>
    </set>
   </array>
  </projected>
 </calculation>
 <structure name="finalpos" >
  <crystal>
   <varray name="basis" >
    <v>      10.00000000       0.00000000       0.00000000 </v>
    <v>       0.00000000      10.00000000       0.00000000 </v>
    <v>       0.00000000       0.00000000      10.00000000 </v>
   </varray>
   <i name="volume">   1000.00000000 </i>
   <varray name="rec_basis" >
    <v>       0.10000000       0.00000000       0.00000000 </v>
    <v>       0.00000000       0.10000000       0.00000000 </v>
    <v>       0.00000000       0.00000000       0.10000000 </v>
   </varray>
  </crystal>
  <varray name="positions" >
   <v>       0.50000000       0.50000000       0.50000000 </v>
  </varray>
 </structure>
</modeling>
