       N       E                     dE             d eps       ncg     rms          ort
DAV:   1     0.133598302222E+03    0.13360E+03   -0.42759E+03    36   0.281E+02
DAV:   2     0.117744358818E+02   -0.12182E+03   -0.12179E+03    36   0.937E+01
DAV:   3     0.218985343589E+01   -0.95846E+01   -0.95838E+01    36   0.297E+01
DAV:   4     0.123421719246E+01   -0.95564E+00   -0.86750E+00    36   0.832E+00
DAV:   5     0.602248095125E+00   -0.63197E+00   -0.63196E+00    36   0.405E+00
SDA:   6     0.535801380337E+00   -0.66447E-01   -0.57646E+00    36   0.144E+01 0.000E+00
DMP:   7     0.112124206276E+00   -0.42368E+00   -0.24725E+00    36   0.376E+00 0.635E+00
DMP:   8    -0.445805838815E-01   -0.15670E+00   -0.55528E-01    36   0.106E+00 0.847E-01
DMP:   9    -0.849892622143E-01   -0.40409E-01   -0.34622E-01    36   0.830E-01 0.919E-02
DMP:  10    -0.114382804524E+00   -0.29394E-01   -0.23090E-01    36   0.418E-01 0.417E-01
DMP:  11    -0.132388657837E+00   -0.18006E-01   -0.10467E-01    36   0.155E-01 0.278E-01
DMP:  12    -0.141532276269E+00   -0.91436E-02   -0.72303E-02    36   0.105E-01 0.199E-01
DMP:  13    -0.150058540963E+00   -0.85263E-02   -0.80343E-02    36   0.105E-01 0.250E-01
DMP:  14    -0.159102529155E+00   -0.90440E-02   -0.71569E-02    36   0.859E-02 0.244E-01
DMP:  15    -0.166208755403E+00   -0.71062E-02   -0.47505E-02    36   0.544E-02 0.169E-01
DMP:  16    -0.170534047310E+00   -0.43253E-02   -0.25816E-02    36   0.286E-02 0.941E-02
DMP:  17    -0.172766770577E+00   -0.22327E-02   -0.12311E-02    36   0.132E-02 0.460E-02
DMP:  18    -0.173799003527E+00   -0.10322E-02   -0.53693E-03    36   0.557E-03 0.205E-02
DMP:  19    -0.174240870797E+00   -0.44187E-03   -0.22096E-03    36   0.224E-03 0.860E-03
DMP:  20    -0.174420663602E+00   -0.17979E-03   -0.87433E-04    36   0.869E-04 0.345E-03
DMP:  21    -0.174491804122E+00   -0.71141E-04   -0.35448E-04    36   0.376E-04 0.134E-03
DMP:  22    -0.174530121610E+00   -0.38317E-04   -0.40020E-04    36   0.797E-04 0.532E-04
   1 F= -.17453012E+00 E0= -.16037674E+00  d E =-.174530E+00  mag=     1.0000
