<?xml version="1.0" encoding="ISO-8859-1"?>
<modeling>
 <generator>
  <i name="program" type="string">vasp </i>
  <i name="version" type="string">5.4.4.18Apr17-6-g9f103f2a35  </i>
  <i name="subversion" type="string">(build Nov 08 2019 15:19:53) gamma-only         parallel </i>
  <i name="platform" type="string">LinuxIFC </i>
  <i name="date" type="string">2020 11 30 </i>
  <i name="time" type="string">09:30:47 </i>
 </generator>
 <incar>
  <i type="string" name="PREC">accurate</i>
  <i type="string" name="ALGO"> D</i>
  <i type="int" name="ISPIN">     2</i>
  <i type="int" name="NELM">   300</i>
  <i type="int" name="IBRION">     2</i>
  <i name="EDIFF">      0.00005000</i>
  <i type="int" name="NSW">    99</i>
  <i type="int" name="ISIF">     2</i>
  <i name="ENCUT">    520.00000000</i>
  <v name="MAGMOM">      0.60000000</v>
  <i type="string" name="LREAL"> Auto</i>
  <i type="int" name="ISMEAR">     0</i>
  <i name="SIGMA">      0.05000000</i>
  <i type="logical" name="LWAVE"> F  </i>
  <i type="int" name="LORBIT">    11</i>
  <i type="logical" name="LASPH"> T  </i>
  <v type="int" name="KPOINT_BSE">    -1     0     0     0</v>
  <i type="int" name="NELM">   300</i>
  <i type="logical" name="LASPH"> T  </i>
 </incar>
 <structure name="primitive_cell" >
  <crystal>
   <varray name="basis" >
    <v>      10.00000000       0.00000000       0.00000000 </v>
    <v>       0.00000000      10.00000000       0.00000000 </v>
    <v>       0.00000000       0.00000000      10.00000000 </v>
   </varray>
   <i name="volume">   1000.00000000 </i>
   <varray name="rec_basis" >
    <v>       0.10000000       0.00000000       0.00000000 </v>
    <v>       0.00000000       0.10000000       0.00000000 </v>
    <v>       0.00000000       0.00000000       0.10000000 </v>
   </varray>
  </crystal>
  <varray name="positions" >
   <v>      -0.50000000      -0.50000000      -0.50000000 </v>
  </varray>
 </structure>
 <varray name="primitive_index" >
  <v type="int" >        1 </v>
 </varray>
 <kpoints>
  <generation param="Gamma">
   <v type="int" name="divisions">       1        1        1 </v>
   <v name="usershift">      0.00000000       0.00000000       0.00000000 </v>
   <v name="genvec1">      1.00000000       0.00000000       0.00000000 </v>
   <v name="genvec2">      0.00000000       1.00000000       0.00000000 </v>
   <v name="genvec3">      0.00000000       0.00000000       1.00000000 </v>
   <v name="shift">      0.00000000       0.00000000       0.00000000 </v>
  </generation>
  <varray name="kpointlist" >
   <v>       0.00000000       0.00000000       0.00000000 </v>
  </varray>
  <varray name="weights" >
   <v>       1.00000000 </v>
  </varray>
 </kpoints>
 <parameters>
  <separator name="general" >
   <i type="string" name="SYSTEM">unknown system</i>
   <i type="logical" name="LCOMPAT"> F  </i>
  </separator>
  <separator name="electronic" >
   <i type="string" name="PREC">accura</i>
   <i name="ENMAX">    520.00000000</i>
   <i name="ENAUG">    395.51100000</i>
   <i name="EDIFF">      0.00005000</i>
   <i type="int" name="IALGO">    53</i>
   <i type="int" name="IWAVPR">    11</i>
   <i type="int" name="NBANDS">    36</i>
   <i name="NELECT">     13.00000000</i>
   <i type="int" name="TURBO">     0</i>
   <i type="int" name="IRESTART">     0</i>
   <i type="int" name="NREBOOT">     0</i>
   <i type="int" name="NMIN">     0</i>
   <i name="EREF">      0.00000000</i>
   <separator name="electronic smearing" >
    <i type="int" name="ISMEAR">     0</i>
    <i name="SIGMA">      0.05000000</i>
    <i name="KSPACING">      0.50000000</i>
    <i type="logical" name="KGAMMA"> T  </i>
   </separator>
   <separator name="electronic projectors" >
    <i type="logical" name="LREAL"> T  </i>
    <v name="ROPT">     -0.00025000</v>
    <i type="int" name="LMAXPAW">  -100</i>
    <i type="int" name="LMAXMIX">     2</i>
    <i type="logical" name="NLSPLINE"> F  </i>
   </separator>
   <separator name="electronic startup" >
    <i type="int" name="ISTART">     0</i>
    <i type="int" name="ICHARG">     2</i>
    <i type="int" name="INIWAV">     1</i>
   </separator>
   <separator name="electronic spin" >
    <i type="int" name="ISPIN">     2</i>
    <i type="logical" name="LNONCOLLINEAR"> F  </i>
    <v name="MAGMOM">      0.60000000</v>
    <i name="NUPDOWN">     -1.00000000</i>
    <i type="logical" name="LSORBIT"> F  </i>
    <v name="SAXIS">      0.00000000      0.00000000      1.00000000</v>
    <i type="logical" name="LSPIRAL"> F  </i>
    <v name="QSPIRAL">      0.00000000      0.00000000      0.00000000</v>
    <i type="logical" name="LZEROZ"> F  </i>
   </separator>
   <separator name="electronic exchange-correlation" >
    <i type="logical" name="LASPH"> T  </i>
    <i type="logical" name="LMETAGGA"> F  </i>
   </separator>
   <separator name="electronic convergence" >
    <i type="int" name="NELM">   300</i>
    <i type="int" name="NELMDL">    -5</i>
    <i type="int" name="NELMIN">     2</i>
    <i name="ENINI">    520.00000000</i>
    <separator name="electronic convergence detail" >
     <i type="logical" name="LDIAG"> T  </i>
     <i type="logical" name="LSUBROT"> F  </i>
     <i name="WEIMIN">      0.00100000</i>
     <i name="EBREAK">      0.00000035</i>
     <i name="DEPER">      0.30000000</i>
     <i type="int" name="NRMM">     4</i>
     <i name="TIME">      0.40000000</i>
    </separator>
   </separator>
   <separator name="electronic mixer" >
    <i name="AMIX">      0.40000000</i>
    <i name="BMIX">      1.00000000</i>
    <i name="AMIN">      0.10000000</i>
    <i name="AMIX_MAG">      1.60000000</i>
    <i name="BMIX_MAG">      1.00000000</i>
    <separator name="electronic mixer details" >
     <i type="int" name="IMIX">     4</i>
     <i type="logical" name="MIXFIRST"> F  </i>
     <i type="int" name="MAXMIX">   -45</i>
     <i name="WC">    100.00000000</i>
     <i type="int" name="INIMIX">     1</i>
     <i type="int" name="MIXPRE">     1</i>
     <i type="int" name="MREMOVE">     5</i>
    </separator>
   </separator>
   <separator name="electronic dipolcorrection" >
    <i type="logical" name="LDIPOL"> F  </i>
    <i type="logical" name="LMONO"> F  </i>
    <i type="int" name="IDIPOL">     0</i>
    <i name="EPSILON">      1.00000000</i>
    <v name="DIPOL">   -100.00000000   -100.00000000   -100.00000000</v>
    <i name="EFIELD">      0.00000000</i>
   </separator>
  </separator>
  <separator name="grids" >
   <i type="int" name="NGX">    80</i>
   <i type="int" name="NGY">    80</i>
   <i type="int" name="NGZ">    80</i>
   <i type="int" name="NGXF">   160</i>
   <i type="int" name="NGYF">   160</i>
   <i type="int" name="NGZF">   160</i>
   <i type="logical" name="ADDGRID"> F  </i>
  </separator>
  <separator name="ionic" >
   <i type="int" name="NSW">    99</i>
   <i type="int" name="IBRION">     2</i>
   <i type="int" name="MDALGO">     0</i>
   <i type="int" name="ISIF">     2</i>
   <i name="PSTRESS">      0.00000000</i>
   <i name="EDIFFG">      0.00050000</i>
   <i type="int" name="NFREE">     1</i>
   <i name="POTIM">      0.50000000</i>
   <i name="SMASS">     -3.00000000</i>
   <i name="SCALEE">      1.00000000</i>
  </separator>
  <separator name="ionic md" >
   <i name="TEBEG">      0.00010000</i>
   <i name="TEEND">      0.00010000</i>
   <i type="int" name="NBLOCK">     1</i>
   <i type="int" name="KBLOCK">    99</i>
   <i type="int" name="NPACO">   256</i>
   <i name="APACO">     16.00000000</i>
  </separator>
  <separator name="symmetry" >
   <i type="int" name="ISYM">     2</i>
   <i name="SYMPREC">      0.00001000</i>
  </separator>
  <separator name="dos" >
   <i type="int" name="LORBIT">    11</i>
   <v name="RWIGS">     -1.00000000</v>
   <i type="int" name="NEDOS">   301</i>
   <i name="EMIN">     10.00000000</i>
   <i name="EMAX">    -10.00000000</i>
   <i name="EFERMI">      0.00000000</i>
  </separator>
  <separator name="writing" >
   <i type="int" name="NWRITE">     2</i>
   <i type="logical" name="LWAVE"> F  </i>
   <i type="logical" name="LDOWNSAMPLE"> F  </i>
   <i type="logical" name="LCHARG"> T  </i>
   <i type="logical" name="LPARD"> F  </i>
   <i type="logical" name="LVTOT"> F  </i>
   <i type="logical" name="LVHAR"> F  </i>
   <i type="logical" name="LELF"> F  </i>
   <i type="logical" name="LOPTICS"> F  </i>
   <v name="STM">      0.00000000      0.00000000      0.00000000      0.00000000      0.00000000      0.00000000      0.00000000</v>
  </separator>
  <separator name="performance" >
   <i type="int" name="NPAR">    36</i>
   <i type="int" name="NSIM">     4</i>
   <i type="int" name="NBLK">    -1</i>
   <i type="logical" name="LPLANE"> T  </i>
   <i type="logical" name="LSCALAPACK"> T  </i>
   <i type="logical" name="LSCAAWARE"> F  </i>
   <i type="logical" name="LSCALU"> F  </i>
   <i type="logical" name="LASYNC"> F  </i>
   <i type="logical" name="LORBITALREAL"> F  </i>
  </separator>
  <separator name="miscellaneous" >
   <i type="int" name="IDIOT">     3</i>
   <i type="int" name="ISPECIAL">     0</i>
   <i type="logical" name="LMUSIC"> F  </i>
   <v name="POMASS">    204.38000000</v>
   <v name="DARWINR">      0.00000000</v>
   <v name="DARWINV">      1.00000000</v>
   <i type="logical" name="LCORR"> T  </i>
  </separator>
  <i type="logical" name="GGA_COMPAT"> T  </i>
  <i type="logical" name="LBERRY"> F  </i>
  <i type="int" name="ICORELEVEL">     0</i>
  <i type="logical" name="LDAU"> F  </i>
  <i type="int" name="I_CONSTRAINED_M">     0</i>
  <separator name="electronic exchange-correlation" >
   <i type="string" name="GGA">--</i>
   <i type="int" name="VOSKOWN">     0</i>
   <i type="logical" name="LHFCALC"> F  </i>
   <i type="string" name="PRECFOCK"></i>
   <i type="logical" name="LSYMGRAD"> F  </i>
   <i type="logical" name="LHFONE"> F  </i>
   <i type="logical" name="LRHFCALC"> F  </i>
   <i type="logical" name="LTHOMAS"> F  </i>
   <i type="logical" name="LMODELHF"> F  </i>
   <i name="ENCUT4O">     -1.00000000</i>
   <i type="int" name="EXXOEP">     0</i>
   <i type="int" name="FOURORBIT">     0</i>
   <i name="AEXX">      0.00000000</i>
   <i name="HFALPHA">      0.00000000</i>
   <i name="MCALPHA">      0.00000000</i>
   <i name="ALDAX">      1.00000000</i>
   <i name="AGGAX">      1.00000000</i>
   <i name="ALDAC">      1.00000000</i>
   <i name="AGGAC">      1.00000000</i>
   <i type="int" name="NKREDX">     1</i>
   <i type="int" name="NKREDY">     1</i>
   <i type="int" name="NKREDZ">     1</i>
   <i type="logical" name="SHIFTRED"> F  </i>
   <i type="logical" name="ODDONLY"> F  </i>
   <i type="logical" name="EVENONLY"> F  </i>
   <i type="int" name="LMAXFOCK">     0</i>
   <i type="int" name="NMAXFOCKAE">     0</i>
   <i type="logical" name="LFOCKAEDFT"> F  </i>
   <i name="HFSCREEN">      0.00000000</i>
   <i name="HFSCREENC">      0.00000000</i>
   <i type="int" name="NBANDSGWLOW">     0</i>
  </separator>
  <separator name="vdW DFT" >
   <i type="logical" name="LUSE_VDW"> F  </i>
   <i name="Zab_VDW">     -0.84910000</i>
   <i name="PARAM1">      0.12340000</i>
   <i name="PARAM2">      1.00000000</i>
   <i name="PARAM3">      0.00000000</i>
  </separator>
  <separator name="model GW" >
   <i type="int" name="MODEL_GW">     0</i>
   <i name="MODEL_EPS0">    600.00000000</i>
   <i name="MODEL_ALPHA">      1.00000000</i>
  </separator>
  <separator name="linear response parameters" >
   <i type="logical" name="LEPSILON"> F  </i>
   <i type="logical" name="LRPA"> F  </i>
   <i type="logical" name="LNABLA"> F  </i>
   <i type="logical" name="LVEL"> F  </i>
   <i type="int" name="KINTER">     0</i>
   <i name="CSHIFT">      0.10000000</i>
   <i name="OMEGAMAX">     -1.00000000</i>
   <i name="DEG_THRESHOLD">      0.00200000</i>
   <i name="RTIME">     -0.10000000</i>
   <i name="WPLASMAI">      0.00000000</i>
   <v name="DFIELD">      0.00000000      0.00000000      0.00000000</v>
   <v name="WPLASMA">      0.00000000      0.00000000      0.00000000      0.00000000      0.00000000      0.00000000      0.00000000      0.00000000      0.00000000</v>
  </separator>
  <separator name="orbital magnetization" >
   <i type="logical" name="NUCIND"> F  </i>
   <v name="MAGPOS">      0.00000000      0.00000000      0.00000000</v>
   <i type="logical" name="LNICSALL"> T  </i>
   <i type="logical" name="ORBITALMAG"> F  </i>
   <i type="logical" name="LMAGBLOCH"> F  </i>
   <i type="logical" name="LCHIMAG"> F  </i>
   <i type="logical" name="LGAUGE"> T  </i>
   <i type="int" name="MAGATOM">     0</i>
   <v name="MAGDIPOL">      0.00000000      0.00000000      0.00000000</v>
   <v name="AVECCONST">      0.00000000      0.00000000      0.00000000</v>
  </separator>
  <separator name="response functions" >
   <i type="logical" name="LADDER"> F  </i>
   <i type="logical" name="LRPAFORCE"> F  </i>
   <i type="logical" name="LFXC"> F  </i>
   <i type="logical" name="LHARTREE"> T  </i>
   <i type="int" name="IBSE">     0</i>
   <v type="int" name="KPOINT">    -1     0     0     0</v>
   <i type="logical" name="LTCTE"> F  </i>
   <i type="logical" name="LTETE"> F  </i>
   <i type="logical" name="LTRIPLET"> F  </i>
   <i type="logical" name="LFXCEPS"> F  </i>
   <i type="logical" name="LFXHEG"> F  </i>
   <i type="int" name="NATURALO">     2</i>
   <i type="logical" name="L2ORDER"> F  </i>
   <i type="logical" name="LMP2LT"> F  </i>
   <i type="logical" name="LUSEW"> F  </i>
   <i name="ENCUTGW">     -2.00000000</i>
   <i name="ENCUTGWSOFT">     -2.00000000</i>
   <i name="ENCUTLF">     -1.00000000</i>
   <i type="int" name="LMAXMP2">    -1</i>
   <i name="SCISSOR">      0.00000000</i>
   <i type="int" name="NOMEGA">     0</i>
   <i type="int" name="NOMEGAR">     0</i>
   <i type="int" name="NBANDSGW">    -1</i>
   <i type="int" name="NBANDSO">    -1</i>
   <i type="int" name="NBANDSV">    -1</i>
   <i type="int" name="NELM">   300</i>
   <i type="int" name="NELMHF">     1</i>
   <i type="int" name="DIM">     3</i>
   <i type="int" name="ANTIRES">     0</i>
   <i name="OMEGAMAX">    -30.00000000</i>
   <i name="OMEGAMIN">    -30.00000000</i>
   <i name="OMEGATL">   -200.00000000</i>
   <i type="int" name="OMEGAGRID">   140</i>
   <i name="CSHIFT">     -0.10000000</i>
   <i type="logical" name="SELFENERGY"> F  </i>
   <i type="logical" name="LSPECTRAL"> F  </i>
   <i type="logical" name="LSPECTRALGW"> F  </i>
   <i type="logical" name="LSINGLES"> F  </i>
   <i type="logical" name="LFERMIGW"> F  </i>
   <i type="logical" name="ODDONLYGW"> F  </i>
   <i type="logical" name="EVENONLYGW"> F  </i>
   <i type="int" name="NKREDLFX">     1</i>
   <i type="int" name="NKREDLFY">     1</i>
   <i type="int" name="NKREDLFZ">     1</i>
   <i type="int" name="MAXMEM">  2800</i>
   <i type="int" name="TELESCOPE">     0</i>
   <i type="int" name="TAUPAR">     1</i>
   <i type="int" name="OMEGAPAR">    -1</i>
   <i name="LAMBDA">      1.00000000</i>
  </separator>
  <separator name="External order field" >
   <i name="OFIELD_KAPPA">      0.00000000</i>
   <v name="OFIELD_K">      0.00000000      0.00000000      0.00000000</v>
   <i name="OFIELD_Q6_NEAR">      0.00000000</i>
   <i name="OFIELD_Q6_FAR">      0.00000000</i>
   <i name="OFIELD_A">      0.00000000</i>
  </separator>
 </parameters>
 <atominfo>
  <atoms>       1 </atoms>
  <types>       1 </types>
  <array name="atoms" >
   <dimension dim="1">ion</dimension>
   <field type="string">element</field>
   <field type="int">atomtype</field>
   <set>
    <rc><c>Tl</c><c>   1</c></rc>
   </set>
  </array>
  <array name="atomtypes" >
   <dimension dim="1">type</dimension>
   <field type="int">atomspertype</field>
   <field type="string">element</field>
   <field>mass</field>
   <field>valence</field>
   <field type="string">pseudopotential</field>
   <set>
    <rc><c>   1</c><c>Tl</c><c>    204.38000000</c><c>     13.00000000</c><c>  PAW_PBE Tl_d 06Sep2000                </c></rc>
   </set>
  </array>
 </atominfo>
 <structure name="initialpos" >
  <crystal>
   <varray name="basis" >
    <v>      10.00000000       0.00000000       0.00000000 </v>
    <v>       0.00000000      10.00000000       0.00000000 </v>
    <v>       0.00000000       0.00000000      10.00000000 </v>
   </varray>
   <i name="volume">   1000.00000000 </i>
   <varray name="rec_basis" >
    <v>       0.10000000       0.00000000       0.00000000 </v>
    <v>       0.00000000       0.10000000       0.00000000 </v>
    <v>       0.00000000       0.00000000       0.10000000 </v>
   </varray>
  </crystal>
  <varray name="positions" >
   <v>       0.50000000       0.50000000       0.50000000 </v>
  </varray>
 </structure>
 <calculation>
  <scstep>
   <time name="total">    0.86    0.88</time>
   <energy>
    <i name="alphaZ">      1.46097874 </i>
    <i name="ewald">   -345.23725609 </i>
    <i name="hartreedc">   -932.11126239 </i>
    <i name="XCdc">     24.31799612 </i>
    <i name="pawpsdc">   1247.09211890 </i>
    <i name="pawaedc">  -1215.44168231 </i>
    <i name="eentropy">     -0.00000000 </i>
    <i name="bandstr">    -38.28574528 </i>
    <i name="atom">   1391.80315452 </i>
    <i name="e_fr_energy">    133.59830222 </i>
    <i name="e_wo_entrp">    133.59830222 </i>
    <i name="e_0_energy">    133.59830222 </i>
   </energy>
  </scstep>
  <scstep>
   <time name="total">    0.35    0.35</time>
   <energy>
    <i name="e_fr_energy">     11.77443588 </i>
    <i name="e_wo_entrp">     11.80260751 </i>
    <i name="e_0_energy">     11.78852170 </i>
   </energy>
  </scstep>
  <scstep>
   <time name="total">    0.34    0.34</time>
   <energy>
    <i name="e_fr_energy">      2.18985344 </i>
    <i name="e_wo_entrp">      2.21693843 </i>
    <i name="e_0_energy">      2.20339593 </i>
   </energy>
  </scstep>
  <scstep>
   <time name="total">    0.36    0.36</time>
   <energy>
    <i name="e_fr_energy">      1.23421719 </i>
    <i name="e_wo_entrp">      1.23422132 </i>
    <i name="e_0_energy">      1.23421925 </i>
   </energy>
  </scstep>
  <scstep>
   <time name="total">    0.58    0.58</time>
   <energy>
    <i name="e_fr_energy">      0.60224810 </i>
    <i name="e_wo_entrp">      0.60236078 </i>
    <i name="e_0_energy">      0.60230444 </i>
   </energy>
  </scstep>
  <scstep>
   <time name="total">    1.04    1.04</time>
   <energy>
    <i name="e_fr_energy">      0.53580138 </i>
    <i name="e_wo_entrp">      0.53580225 </i>
    <i name="e_0_energy">      0.53580182 </i>
   </energy>
  </scstep>
  <scstep>
   <time name="total">    0.90    0.90</time>
   <energy>
    <i name="e_fr_energy">      0.11212421 </i>
    <i name="e_wo_entrp">      0.11212421 </i>
    <i name="e_0_energy">      0.11212421 </i>
   </energy>
  </scstep>
  <scstep>
   <time name="total">    0.91    0.91</time>
   <energy>
    <i name="e_fr_energy">     -0.04458058 </i>
    <i name="e_wo_entrp">     -0.04458036 </i>
    <i name="e_0_energy">     -0.04458047 </i>
   </energy>
  </scstep>
  <scstep>
   <time name="total">    0.93    0.93</time>
   <energy>
    <i name="e_fr_energy">     -0.08498926 </i>
    <i name="e_wo_entrp">     -0.08497689 </i>
    <i name="e_0_energy">     -0.08498307 </i>
   </energy>
  </scstep>
  <scstep>
   <time name="total">    0.92    0.92</time>
   <energy>
    <i name="e_fr_energy">     -0.11438280 </i>
    <i name="e_wo_entrp">     -0.11410884 </i>
    <i name="e_0_energy">     -0.11424582 </i>
   </energy>
  </scstep>
  <scstep>
   <time name="total">    0.93    0.93</time>
   <energy>
    <i name="e_fr_energy">     -0.13238866 </i>
    <i name="e_wo_entrp">     -0.13022217 </i>
    <i name="e_0_energy">     -0.13130542 </i>
   </energy>
  </scstep>
  <scstep>
   <time name="total">    0.91    0.91</time>
   <energy>
    <i name="e_fr_energy">     -0.14153228 </i>
    <i name="e_wo_entrp">     -0.13398218 </i>
    <i name="e_0_energy">     -0.13775723 </i>
   </energy>
  </scstep>
  <scstep>
   <time name="total">    0.91    0.91</time>
   <energy>
    <i name="e_fr_energy">     -0.15005854 </i>
    <i name="e_wo_entrp">     -0.13507918 </i>
    <i name="e_0_energy">     -0.14256886 </i>
   </energy>
  </scstep>
  <scstep>
   <time name="total">    0.91    0.91</time>
   <energy>
    <i name="e_fr_energy">     -0.15910253 </i>
    <i name="e_wo_entrp">     -0.13791575 </i>
    <i name="e_0_energy">     -0.14850914 </i>
   </energy>
  </scstep>
  <scstep>
   <time name="total">    0.89    0.89</time>
   <energy>
    <i name="e_fr_energy">     -0.16620876 </i>
    <i name="e_wo_entrp">     -0.14125359 </i>
    <i name="e_0_energy">     -0.15373117 </i>
   </energy>
  </scstep>
  <scstep>
   <time name="total">    0.91    0.91</time>
   <energy>
    <i name="e_fr_energy">     -0.17053405 </i>
    <i name="e_wo_entrp">     -0.14369684 </i>
    <i name="e_0_energy">     -0.15711544 </i>
   </energy>
  </scstep>
  <scstep>
   <time name="total">    0.90    0.90</time>
   <energy>
    <i name="e_fr_energy">     -0.17276677 </i>
    <i name="e_wo_entrp">     -0.14509694 </i>
    <i name="e_0_energy">     -0.15893186 </i>
   </energy>
  </scstep>
  <scstep>
   <time name="total">    0.90    0.90</time>
   <energy>
    <i name="e_fr_energy">     -0.17379900 </i>
    <i name="e_wo_entrp">     -0.14578977 </i>
    <i name="e_0_energy">     -0.15979439 </i>
   </energy>
  </scstep>
  <scstep>
   <time name="total">    0.89    0.89</time>
   <energy>
    <i name="e_fr_energy">     -0.17424087 </i>
    <i name="e_wo_entrp">     -0.14610174 </i>
    <i name="e_0_energy">     -0.16017131 </i>
   </energy>
  </scstep>
  <scstep>
   <time name="total">    0.91    0.91</time>
   <energy>
    <i name="e_fr_energy">     -0.17442066 </i>
    <i name="e_wo_entrp">     -0.14623387 </i>
    <i name="e_0_energy">     -0.16032727 </i>
   </energy>
  </scstep>
  <scstep>
   <time name="total">    0.91    0.91</time>
   <energy>
    <i name="e_fr_energy">     -0.17449180 </i>
    <i name="e_wo_entrp">     -0.14627712 </i>
    <i name="e_0_energy">     -0.16038446 </i>
   </energy>
  </scstep>
  <scstep>
   <time name="total">    0.95    0.95</time>
   <energy>
    <i name="alphaZ">      1.46097874 </i>
    <i name="ewald">   -345.23725609 </i>
    <i name="hartreedc">   -933.21502476 </i>
    <i name="XCdc">     24.40643510 </i>
    <i name="pawpsdc">   1249.78038628 </i>
    <i name="pawaedc">  -1218.15794654 </i>
    <i name="eentropy">     -0.02830677 </i>
    <i name="bandstr">   -170.98704269 </i>
    <i name="atom">   1391.80315452 </i>
    <i name="e_fr_energy">     -0.17453012 </i>
    <i name="e_wo_entrp">     -0.14622335 </i>
    <i name="e_0_energy">     -0.16037674 </i>
   </energy>
  </scstep>
  <structure>
   <crystal>
    <varray name="basis" >
     <v>      10.00000000       0.00000000       0.00000000 </v>
     <v>       0.00000000      10.00000000       0.00000000 </v>
     <v>       0.00000000       0.00000000      10.00000000 </v>
    </varray>
    <i name="volume">   1000.00000000 </i>
    <varray name="rec_basis" >
     <v>       0.10000000       0.00000000       0.00000000 </v>
     <v>       0.00000000       0.10000000       0.00000000 </v>
     <v>       0.00000000       0.00000000       0.10000000 </v>
    </varray>
   </crystal>
   <varray name="positions" >
    <v>       0.50000000       0.50000000       0.50000000 </v>
   </varray>
  </structure>
  <varray name="forces" >
   <v>       0.00000000       0.00000000       0.00000000 </v>
  </varray>
  <varray name="stress" >
   <v>       0.04456429       0.00000000       0.00000000 </v>
   <v>      -0.00000000       0.04456429      -0.00000000 </v>
   <v>       0.00000000       0.00000000       0.04456429 </v>
  </varray>
  <energy>
   <i name="e_fr_energy">     -0.17453012 </i>
   <i name="e_wo_entrp">     -0.16037674 </i>
   <i name="e_0_energy">     -0.02830677 </i>
  </energy>
  <time name="totalsc">   24.90   25.16</time>
  <eigenvalues>
   <array>
    <dimension dim="1">band</dimension>
    <dimension dim="2">kpoint</dimension>
    <dimension dim="3">spin</dimension>
    <field>eigene</field>
    <field>occ</field>
    <set>
     <set comment="spin 1">
      <set comment="kpoint 1">
       <r>  -15.0976    1.0000 </r>
       <r>  -15.0976    1.0000 </r>
       <r>  -15.0976    1.0000 </r>
       <r>  -15.0976    1.0000 </r>
       <r>  -15.0976    1.0000 </r>
       <r>   -9.3664    1.0000 </r>
       <r>   -2.2372    0.5045 </r>
       <r>   -2.2372    0.4947 </r>
       <r>   -2.2356    0.0008 </r>
       <r>   -0.6176    0.0000 </r>
       <r>    0.6954    0.0000 </r>
       <r>    0.6954    0.0000 </r>
       <r>    1.2172    0.0000 </r>
       <r>    1.2475    0.0000 </r>
       <r>    1.2503    0.0000 </r>
       <r>    1.2903    0.0000 </r>
       <r>    1.6921    0.0000 </r>
       <r>    1.6942    0.0000 </r>
       <r>    1.6948    0.0000 </r>
       <r>    2.2978    0.0000 </r>
       <r>    2.3072    0.0000 </r>
       <r>    2.3127    0.0000 </r>
       <r>    2.3765    0.0000 </r>
       <r>    2.3814    0.0000 </r>
       <r>    3.1111    0.0000 </r>
       <r>    3.1188    0.0000 </r>
       <r>    3.2822    0.0000 </r>
       <r>    3.2835    0.0000 </r>
       <r>    3.4228    0.0000 </r>
       <r>    3.4591    0.0000 </r>
       <r>    3.5709    0.0000 </r>
       <r>    3.5715    0.0000 </r>
       <r>    4.2614    0.0000 </r>
       <r>    4.3829    0.0000 </r>
       <r>    4.5200    0.0000 </r>
       <r>    4.9758    0.0000 </r>
      </set>
     </set>
     <set comment="spin 2">
      <set comment="kpoint 1">
       <r>  -15.0049    1.0000 </r>
       <r>  -15.0049    1.0000 </r>
       <r>  -15.0048    1.0000 </r>
       <r>  -15.0048    1.0000 </r>
       <r>  -15.0048    1.0000 </r>
       <r>   -8.8713    1.0000 </r>
       <r>   -1.5966    0.0000 </r>
       <r>   -1.5965    0.0000 </r>
       <r>   -1.5960    0.0000 </r>
       <r>    0.0449    0.0000 </r>
       <r>    1.3738    0.0000 </r>
       <r>    1.3741    0.0000 </r>
       <r>    1.8004    0.0000 </r>
       <r>    1.8781    0.0000 </r>
       <r>    1.8785    0.0000 </r>
       <r>    1.8813    0.0000 </r>
       <r>    2.4313    0.0000 </r>
       <r>    2.4314    0.0000 </r>
       <r>    2.4324    0.0000 </r>
       <r>    2.9207    0.0000 </r>
       <r>    2.9216    0.0000 </r>
       <r>    2.9954    0.0000 </r>
       <r>    2.9965    0.0000 </r>
       <r>    3.0016    0.0000 </r>
       <r>    3.7184    0.0000 </r>
       <r>    3.7310    0.0000 </r>
       <r>    3.9098    0.0000 </r>
       <r>    3.9880    0.0000 </r>
       <r>    4.0298    0.0000 </r>
       <r>    4.1029    0.0000 </r>
       <r>    4.1687    0.0000 </r>
       <r>    4.2509    0.0000 </r>
       <r>    4.8074    0.0000 </r>
       <r>    4.9051    0.0000 </r>
       <r>    4.9477    0.0000 </r>
       <r>    4.9659    0.0000 </r>
      </set>
     </set>
    </set>
   </array>
  </eigenvalues>
  <separator name="orbital magnetization" >
   <v name="MAGDIPOLOUT">      0.00000000      0.00000000      0.00000000</v>
  </separator>
  <dos>
   <i name="efermi">     -2.25190507 </i>
   <total>
    <array>
     <dimension dim="1">gridpoints</dimension>
     <dimension dim="2">spin</dimension>
     <field>energy</field>
     <field>total</field>
     <field>integrated</field>
     <set>
      <set comment="spin 1">
       <r>   -16.1013     0.0000     0.0000 </r>
       <r>   -16.0277     0.0000     0.0000 </r>
       <r>   -15.9541     0.0000     0.0000 </r>
       <r>   -15.8805     0.0000     0.0000 </r>
       <r>   -15.8069     0.0000     0.0000 </r>
       <r>   -15.7333     0.0000     0.0000 </r>
       <r>   -15.6597     0.0000     0.0000 </r>
       <r>   -15.5861     0.0000     0.0000 </r>
       <r>   -15.5124     0.0000     0.0000 </r>
       <r>   -15.4388     0.0000     0.0000 </r>
       <r>   -15.3652     0.0000     0.0000 </r>
       <r>   -15.2916     0.0000     0.0000 </r>
       <r>   -15.2180     0.0223     0.0016 </r>
       <r>   -15.1444     6.2662     0.4628 </r>
       <r>   -15.0708    46.3853     3.8769 </r>
       <r>   -14.9972    15.1046     4.9887 </r>
       <r>   -14.9236     0.1539     5.0000 </r>
       <r>   -14.8500     0.0000     5.0000 </r>
       <r>   -14.7764     0.0000     5.0000 </r>
       <r>   -14.7028     0.0000     5.0000 </r>
       <r>   -14.6292     0.0000     5.0000 </r>
       <r>   -14.5556     0.0000     5.0000 </r>
       <r>   -14.4820     0.0000     5.0000 </r>
       <r>   -14.4084     0.0000     5.0000 </r>
       <r>   -14.3348     0.0000     5.0000 </r>
       <r>   -14.2612     0.0000     5.0000 </r>
       <r>   -14.1876     0.0000     5.0000 </r>
       <r>   -14.1140     0.0000     5.0000 </r>
       <r>   -14.0404     0.0000     5.0000 </r>
       <r>   -13.9668     0.0000     5.0000 </r>
       <r>   -13.8932     0.0000     5.0000 </r>
       <r>   -13.8196     0.0000     5.0000 </r>
       <r>   -13.7460     0.0000     5.0000 </r>
       <r>   -13.6724     0.0000     5.0000 </r>
       <r>   -13.5988     0.0000     5.0000 </r>
       <r>   -13.5252     0.0000     5.0000 </r>
       <r>   -13.4516     0.0000     5.0000 </r>
       <r>   -13.3780     0.0000     5.0000 </r>
       <r>   -13.3044     0.0000     5.0000 </r>
       <r>   -13.2308     0.0000     5.0000 </r>
       <r>   -13.1572     0.0000     5.0000 </r>
       <r>   -13.0836     0.0000     5.0000 </r>
       <r>   -13.0100     0.0000     5.0000 </r>
       <r>   -12.9364     0.0000     5.0000 </r>
       <r>   -12.8628     0.0000     5.0000 </r>
       <r>   -12.7892     0.0000     5.0000 </r>
       <r>   -12.7155     0.0000     5.0000 </r>
       <r>   -12.6419     0.0000     5.0000 </r>
       <r>   -12.5683     0.0000     5.0000 </r>
       <r>   -12.4947     0.0000     5.0000 </r>
       <r>   -12.4211     0.0000     5.0000 </r>
       <r>   -12.3475     0.0000     5.0000 </r>
       <r>   -12.2739     0.0000     5.0000 </r>
       <r>   -12.2003     0.0000     5.0000 </r>
       <r>   -12.1267     0.0000     5.0000 </r>
       <r>   -12.0531     0.0000     5.0000 </r>
       <r>   -11.9795     0.0000     5.0000 </r>
       <r>   -11.9059     0.0000     5.0000 </r>
       <r>   -11.8323     0.0000     5.0000 </r>
       <r>   -11.7587     0.0000     5.0000 </r>
       <r>   -11.6851     0.0000     5.0000 </r>
       <r>   -11.6115     0.0000     5.0000 </r>
       <r>   -11.5379     0.0000     5.0000 </r>
       <r>   -11.4643     0.0000     5.0000 </r>
       <r>   -11.3907     0.0000     5.0000 </r>
       <r>   -11.3171     0.0000     5.0000 </r>
       <r>   -11.2435     0.0000     5.0000 </r>
       <r>   -11.1699     0.0000     5.0000 </r>
       <r>   -11.0963     0.0000     5.0000 </r>
       <r>   -11.0227     0.0000     5.0000 </r>
       <r>   -10.9491     0.0000     5.0000 </r>
       <r>   -10.8755     0.0000     5.0000 </r>
       <r>   -10.8019     0.0000     5.0000 </r>
       <r>   -10.7283     0.0000     5.0000 </r>
       <r>   -10.6547     0.0000     5.0000 </r>
       <r>   -10.5811     0.0000     5.0000 </r>
       <r>   -10.5075     0.0000     5.0000 </r>
       <r>   -10.4339     0.0000     5.0000 </r>
       <r>   -10.3603     0.0000     5.0000 </r>
       <r>   -10.2867     0.0000     5.0000 </r>
       <r>   -10.2131     0.0000     5.0000 </r>
       <r>   -10.1395     0.0000     5.0000 </r>
       <r>   -10.0659     0.0000     5.0000 </r>
       <r>    -9.9923     0.0000     5.0000 </r>
       <r>    -9.9186     0.0000     5.0000 </r>
       <r>    -9.8450     0.0000     5.0000 </r>
       <r>    -9.7714     0.0000     5.0000 </r>
       <r>    -9.6978     0.0000     5.0000 </r>
       <r>    -9.6242     0.0000     5.0000 </r>
       <r>    -9.5506     0.0000     5.0000 </r>
       <r>    -9.4770     0.0119     5.0009 </r>
       <r>    -9.4034     1.9910     5.1474 </r>
       <r>    -9.3298     9.5386     5.8495 </r>
       <r>    -9.2562     2.0325     5.9991 </r>
       <r>    -9.1826     0.0125     6.0000 </r>
       <r>    -9.1090     0.0000     6.0000 </r>
       <r>    -9.0354     0.0000     6.0000 </r>
       <r>    -8.9618     0.0000     6.0000 </r>
       <r>    -8.8882     0.0000     6.0000 </r>
       <r>    -8.8146     0.0000     6.0000 </r>
       <r>    -8.7410     0.0000     6.0000 </r>
       <r>    -8.6674     0.0000     6.0000 </r>
       <r>    -8.5938     0.0000     6.0000 </r>
       <r>    -8.5202     0.0000     6.0000 </r>
       <r>    -8.4466     0.0000     6.0000 </r>
       <r>    -8.3730     0.0000     6.0000 </r>
       <r>    -8.2994     0.0000     6.0000 </r>
       <r>    -8.2258     0.0000     6.0000 </r>
       <r>    -8.1522     0.0000     6.0000 </r>
       <r>    -8.0786     0.0000     6.0000 </r>
       <r>    -8.0050     0.0000     6.0000 </r>
       <r>    -7.9314     0.0000     6.0000 </r>
       <r>    -7.8578     0.0000     6.0000 </r>
       <r>    -7.7842     0.0000     6.0000 </r>
       <r>    -7.7106     0.0000     6.0000 </r>
       <r>    -7.6370     0.0000     6.0000 </r>
       <r>    -7.5634     0.0000     6.0000 </r>
       <r>    -7.4898     0.0000     6.0000 </r>
       <r>    -7.4162     0.0000     6.0000 </r>
       <r>    -7.3426     0.0000     6.0000 </r>
       <r>    -7.2690     0.0000     6.0000 </r>
       <r>    -7.1954     0.0000     6.0000 </r>
       <r>    -7.1217     0.0000     6.0000 </r>
       <r>    -7.0481     0.0000     6.0000 </r>
       <r>    -6.9745     0.0000     6.0000 </r>
       <r>    -6.9009     0.0000     6.0000 </r>
       <r>    -6.8273     0.0000     6.0000 </r>
       <r>    -6.7537     0.0000     6.0000 </r>
       <r>    -6.6801     0.0000     6.0000 </r>
       <r>    -6.6065     0.0000     6.0000 </r>
       <r>    -6.5329     0.0000     6.0000 </r>
       <r>    -6.4593     0.0000     6.0000 </r>
       <r>    -6.3857     0.0000     6.0000 </r>
       <r>    -6.3121     0.0000     6.0000 </r>
       <r>    -6.2385     0.0000     6.0000 </r>
       <r>    -6.1649     0.0000     6.0000 </r>
       <r>    -6.0913     0.0000     6.0000 </r>
       <r>    -6.0177     0.0000     6.0000 </r>
       <r>    -5.9441     0.0000     6.0000 </r>
       <r>    -5.8705     0.0000     6.0000 </r>
       <r>    -5.7969     0.0000     6.0000 </r>
       <r>    -5.7233     0.0000     6.0000 </r>
       <r>    -5.6497     0.0000     6.0000 </r>
       <r>    -5.5761     0.0000     6.0000 </r>
       <r>    -5.5025     0.0000     6.0000 </r>
       <r>    -5.4289     0.0000     6.0000 </r>
       <r>    -5.3553     0.0000     6.0000 </r>
       <r>    -5.2817     0.0000     6.0000 </r>
       <r>    -5.2081     0.0000     6.0000 </r>
       <r>    -5.1345     0.0000     6.0000 </r>
       <r>    -5.0609     0.0000     6.0000 </r>
       <r>    -4.9873     0.0000     6.0000 </r>
       <r>    -4.9137     0.0000     6.0000 </r>
       <r>    -4.8401     0.0000     6.0000 </r>
       <r>    -4.7665     0.0000     6.0000 </r>
       <r>    -4.6929     0.0000     6.0000 </r>
       <r>    -4.6193     0.0000     6.0000 </r>
       <r>    -4.5457     0.0000     6.0000 </r>
       <r>    -4.4721     0.0000     6.0000 </r>
       <r>    -4.3985     0.0000     6.0000 </r>
       <r>    -4.3248     0.0000     6.0000 </r>
       <r>    -4.2512     0.0000     6.0000 </r>
       <r>    -4.1776     0.0000     6.0000 </r>
       <r>    -4.1040     0.0000     6.0000 </r>
       <r>    -4.0304     0.0000     6.0000 </r>
       <r>    -3.9568     0.0000     6.0000 </r>
       <r>    -3.8832     0.0000     6.0000 </r>
       <r>    -3.8096     0.0000     6.0000 </r>
       <r>    -3.7360     0.0000     6.0000 </r>
       <r>    -3.6624     0.0000     6.0000 </r>
       <r>    -3.5888     0.0000     6.0000 </r>
       <r>    -3.5152     0.0000     6.0000 </r>
       <r>    -3.4416     0.0000     6.0000 </r>
       <r>    -3.3680     0.0000     6.0000 </r>
       <r>    -3.2944     0.0000     6.0000 </r>
       <r>    -3.2208     0.0000     6.0000 </r>
       <r>    -3.1472     0.0000     6.0000 </r>
       <r>    -3.0736     0.0000     6.0000 </r>
       <r>    -3.0000     0.0000     6.0000 </r>
       <r>    -2.9264     0.0000     6.0000 </r>
       <r>    -2.8528     0.0000     6.0000 </r>
       <r>    -2.7792     0.0000     6.0000 </r>
       <r>    -2.7056     0.0000     6.0000 </r>
       <r>    -2.6320     0.0000     6.0000 </r>
       <r>    -2.5584     0.0000     6.0000 </r>
       <r>    -2.4848     0.0000     6.0000 </r>
       <r>    -2.4112     0.0000     6.0000 </r>
       <r>    -2.3376     0.0881     6.0065 </r>
       <r>    -2.2640     8.8811     6.6602 </r>
       <r>    -2.1904    27.9093     8.7144 </r>
       <r>    -2.1168     3.8667     8.9990 </r>
       <r>    -2.0432     0.0142     9.0000 </r>
       <r>    -1.9696     0.0000     9.0000 </r>
       <r>    -1.8960     0.0000     9.0000 </r>
       <r>    -1.8224     0.0000     9.0000 </r>
       <r>    -1.7488     0.0000     9.0000 </r>
       <r>    -1.6752     0.0000     9.0000 </r>
       <r>    -1.6016     0.0000     9.0000 </r>
       <r>    -1.5279     0.0000     9.0000 </r>
       <r>    -1.4543     0.0000     9.0000 </r>
       <r>    -1.3807     0.0000     9.0000 </r>
       <r>    -1.3071     0.0000     9.0000 </r>
       <r>    -1.2335     0.0000     9.0000 </r>
       <r>    -1.1599     0.0000     9.0000 </r>
       <r>    -1.0863     0.0000     9.0000 </r>
       <r>    -1.0127     0.0000     9.0000 </r>
       <r>    -0.9391     0.0000     9.0000 </r>
       <r>    -0.8655     0.0000     9.0000 </r>
       <r>    -0.7919     0.0000     9.0000 </r>
       <r>    -0.7183     0.0298     9.0022 </r>
       <r>    -0.6447     2.9808     9.2216 </r>
       <r>    -0.5711     9.2952     9.9057 </r>
       <r>    -0.4975     1.2761     9.9997 </r>
       <r>    -0.4239     0.0046    10.0000 </r>
       <r>    -0.3503     0.0000    10.0000 </r>
       <r>    -0.2767     0.0000    10.0000 </r>
       <r>    -0.2031     0.0000    10.0000 </r>
       <r>    -0.1295     0.0000    10.0000 </r>
       <r>    -0.0559     0.0000    10.0000 </r>
       <r>     0.0177     0.0000    10.0000 </r>
       <r>     0.0913     0.0000    10.0000 </r>
       <r>     0.1649     0.0000    10.0000 </r>
       <r>     0.2385     0.0000    10.0000 </r>
       <r>     0.3121     0.0000    10.0000 </r>
       <r>     0.3857     0.0000    10.0000 </r>
       <r>     0.4593     0.0000    10.0000 </r>
       <r>     0.5329     0.0001    10.0000 </r>
       <r>     0.6065     0.1623    10.0119 </r>
       <r>     0.6801     8.8837    10.6658 </r>
       <r>     0.7537    16.7823    11.9010 </r>
       <r>     0.8273     1.3420    11.9998 </r>
       <r>     0.9009     0.0026    12.0000 </r>
       <r>     0.9745     0.0000    12.0000 </r>
       <r>     1.0481     0.0000    12.0000 </r>
       <r>     1.1217     0.0515    12.0038 </r>
       <r>     1.1953     5.4105    12.4020 </r>
       <r>     1.2690    30.2772    14.6305 </r>
       <r>     1.3426    17.5464    15.9220 </r>
       <r>     1.4162     1.0577    15.9998 </r>
       <r>     1.4898     0.0026    16.0000 </r>
       <r>     1.5634     0.0047    16.0003 </r>
       <r>     1.6370     2.2133    16.1632 </r>
       <r>     1.7106    25.6372    18.0502 </r>
       <r>     1.7842    12.6897    18.9842 </r>
       <r>     1.8578     0.2145    19.0000 </r>
       <r>     1.9314     0.0001    19.0000 </r>
       <r>     2.0050     0.0000    19.0000 </r>
       <r>     2.0786     0.0000    19.0000 </r>
       <r>     2.1522     0.0004    19.0000 </r>
       <r>     2.2258     0.5225    19.0385 </r>
       <r>     2.2994    17.2584    20.3087 </r>
       <r>     2.3730    33.5038    22.7747 </r>
       <r>     2.4466    15.8815    23.9436 </r>
       <r>     2.5202     0.7648    23.9999 </r>
       <r>     2.5938     0.0009    24.0000 </r>
       <r>     2.6674     0.0000    24.0000 </r>
       <r>     2.7410     0.0000    24.0000 </r>
       <r>     2.8146     0.0000    24.0000 </r>
       <r>     2.8882     0.0000    24.0000 </r>
       <r>     2.9618     0.0002    24.0000 </r>
       <r>     3.0354     0.3444    24.0254 </r>
       <r>     3.1090    11.4481    24.8680 </r>
       <r>     3.1826    14.6684    25.9476 </r>
       <r>     3.2562     6.8516    26.4519 </r>
       <r>     3.3298    18.5963    27.8206 </r>
       <r>     3.4034     7.1695    28.3483 </r>
       <r>     3.4770    17.5299    29.6386 </r>
       <r>     3.5506    12.4600    30.5557 </r>
       <r>     3.6242    17.8075    31.8663 </r>
       <r>     3.6978     1.8113    31.9997 </r>
       <r>     3.7714     0.0046    32.0000 </r>
       <r>     3.8450     0.0000    32.0000 </r>
       <r>     3.9186     0.0000    32.0000 </r>
       <r>     3.9922     0.0000    32.0000 </r>
       <r>     4.0659     0.0000    32.0000 </r>
       <r>     4.1395     0.0038    32.0003 </r>
       <r>     4.2131     1.1592    32.0856 </r>
       <r>     4.2867     9.2368    32.7655 </r>
       <r>     4.3603     6.6969    33.2584 </r>
       <r>     4.4339     9.1615    33.9327 </r>
       <r>     4.5075     5.8219    34.3612 </r>
       <r>     4.5811     8.1076    34.9579 </r>
       <r>     4.6547     0.5707    34.9999 </r>
       <r>     4.7283     0.0009    35.0000 </r>
       <r>     4.8019     0.0000    35.0000 </r>
       <r>     4.8755     0.0308    35.0023 </r>
       <r>     4.9491     3.0197    35.2245 </r>
       <r>     5.0227     9.2776    35.9074 </r>
       <r>     5.0963     1.2539    35.9997 </r>
       <r>     5.1699     0.0045    36.0000 </r>
       <r>     5.2435     0.0000    36.0000 </r>
       <r>     5.3171     0.0000    36.0000 </r>
       <r>     5.3907     0.0000    36.0000 </r>
       <r>     5.4643     0.0000    36.0000 </r>
       <r>     5.5379     0.0000    36.0000 </r>
       <r>     5.6115     0.0000    36.0000 </r>
       <r>     5.6851     0.0000    36.0000 </r>
       <r>     5.7587     0.0000    36.0000 </r>
       <r>     5.8323     0.0000    36.0000 </r>
       <r>     5.9059     0.0000    36.0000 </r>
       <r>     5.9795     0.0000    36.0000 </r>
      </set>
      <set comment="spin 2">
       <r>   -16.1013     0.0000     0.0000 </r>
       <r>   -16.0277     0.0000     0.0000 </r>
       <r>   -15.9541     0.0000     0.0000 </r>
       <r>   -15.8805     0.0000     0.0000 </r>
       <r>   -15.8069     0.0000     0.0000 </r>
       <r>   -15.7333     0.0000     0.0000 </r>
       <r>   -15.6597     0.0000     0.0000 </r>
       <r>   -15.5861     0.0000     0.0000 </r>
       <r>   -15.5124     0.0000     0.0000 </r>
       <r>   -15.4388     0.0000     0.0000 </r>
       <r>   -15.3652     0.0000     0.0000 </r>
       <r>   -15.2916     0.0000     0.0000 </r>
       <r>   -15.2180     0.0000     0.0000 </r>
       <r>   -15.1444     0.0027     0.0002 </r>
       <r>   -15.0708     2.1026     0.1550 </r>
       <r>   -14.9972    37.6525     2.9263 </r>
       <r>   -14.9236    27.4406     4.9460 </r>
       <r>   -14.8500     0.7336     5.0000 </r>
       <r>   -14.7764     0.0004     5.0000 </r>
       <r>   -14.7028     0.0000     5.0000 </r>
       <r>   -14.6292     0.0000     5.0000 </r>
       <r>   -14.5556     0.0000     5.0000 </r>
       <r>   -14.4820     0.0000     5.0000 </r>
       <r>   -14.4084     0.0000     5.0000 </r>
       <r>   -14.3348     0.0000     5.0000 </r>
       <r>   -14.2612     0.0000     5.0000 </r>
       <r>   -14.1876     0.0000     5.0000 </r>
       <r>   -14.1140     0.0000     5.0000 </r>
       <r>   -14.0404     0.0000     5.0000 </r>
       <r>   -13.9668     0.0000     5.0000 </r>
       <r>   -13.8932     0.0000     5.0000 </r>
       <r>   -13.8196     0.0000     5.0000 </r>
       <r>   -13.7460     0.0000     5.0000 </r>
       <r>   -13.6724     0.0000     5.0000 </r>
       <r>   -13.5988     0.0000     5.0000 </r>
       <r>   -13.5252     0.0000     5.0000 </r>
       <r>   -13.4516     0.0000     5.0000 </r>
       <r>   -13.3780     0.0000     5.0000 </r>
       <r>   -13.3044     0.0000     5.0000 </r>
       <r>   -13.2308     0.0000     5.0000 </r>
       <r>   -13.1572     0.0000     5.0000 </r>
       <r>   -13.0836     0.0000     5.0000 </r>
       <r>   -13.0100     0.0000     5.0000 </r>
       <r>   -12.9364     0.0000     5.0000 </r>
       <r>   -12.8628     0.0000     5.0000 </r>
       <r>   -12.7892     0.0000     5.0000 </r>
       <r>   -12.7155     0.0000     5.0000 </r>
       <r>   -12.6419     0.0000     5.0000 </r>
       <r>   -12.5683     0.0000     5.0000 </r>
       <r>   -12.4947     0.0000     5.0000 </r>
       <r>   -12.4211     0.0000     5.0000 </r>
       <r>   -12.3475     0.0000     5.0000 </r>
       <r>   -12.2739     0.0000     5.0000 </r>
       <r>   -12.2003     0.0000     5.0000 </r>
       <r>   -12.1267     0.0000     5.0000 </r>
       <r>   -12.0531     0.0000     5.0000 </r>
       <r>   -11.9795     0.0000     5.0000 </r>
       <r>   -11.9059     0.0000     5.0000 </r>
       <r>   -11.8323     0.0000     5.0000 </r>
       <r>   -11.7587     0.0000     5.0000 </r>
       <r>   -11.6851     0.0000     5.0000 </r>
       <r>   -11.6115     0.0000     5.0000 </r>
       <r>   -11.5379     0.0000     5.0000 </r>
       <r>   -11.4643     0.0000     5.0000 </r>
       <r>   -11.3907     0.0000     5.0000 </r>
       <r>   -11.3171     0.0000     5.0000 </r>
       <r>   -11.2435     0.0000     5.0000 </r>
       <r>   -11.1699     0.0000     5.0000 </r>
       <r>   -11.0963     0.0000     5.0000 </r>
       <r>   -11.0227     0.0000     5.0000 </r>
       <r>   -10.9491     0.0000     5.0000 </r>
       <r>   -10.8755     0.0000     5.0000 </r>
       <r>   -10.8019     0.0000     5.0000 </r>
       <r>   -10.7283     0.0000     5.0000 </r>
       <r>   -10.6547     0.0000     5.0000 </r>
       <r>   -10.5811     0.0000     5.0000 </r>
       <r>   -10.5075     0.0000     5.0000 </r>
       <r>   -10.4339     0.0000     5.0000 </r>
       <r>   -10.3603     0.0000     5.0000 </r>
       <r>   -10.2867     0.0000     5.0000 </r>
       <r>   -10.2131     0.0000     5.0000 </r>
       <r>   -10.1395     0.0000     5.0000 </r>
       <r>   -10.0659     0.0000     5.0000 </r>
       <r>    -9.9923     0.0000     5.0000 </r>
       <r>    -9.9186     0.0000     5.0000 </r>
       <r>    -9.8450     0.0000     5.0000 </r>
       <r>    -9.7714     0.0000     5.0000 </r>
       <r>    -9.6978     0.0000     5.0000 </r>
       <r>    -9.6242     0.0000     5.0000 </r>
       <r>    -9.5506     0.0000     5.0000 </r>
       <r>    -9.4770     0.0000     5.0000 </r>
       <r>    -9.4034     0.0000     5.0000 </r>
       <r>    -9.3298     0.0000     5.0000 </r>
       <r>    -9.2562     0.0000     5.0000 </r>
       <r>    -9.1826     0.0000     5.0000 </r>
       <r>    -9.1090     0.0000     5.0000 </r>
       <r>    -9.0354     0.0000     5.0000 </r>
       <r>    -8.9618     0.0711     5.0052 </r>
       <r>    -8.8882     4.2259     5.3163 </r>
       <r>    -8.8146     8.5504     5.9456 </r>
       <r>    -8.7410     0.7375     5.9999 </r>
       <r>    -8.6674     0.0016     6.0000 </r>
       <r>    -8.5938     0.0000     6.0000 </r>
       <r>    -8.5202     0.0000     6.0000 </r>
       <r>    -8.4466     0.0000     6.0000 </r>
       <r>    -8.3730     0.0000     6.0000 </r>
       <r>    -8.2994     0.0000     6.0000 </r>
       <r>    -8.2258     0.0000     6.0000 </r>
       <r>    -8.1522     0.0000     6.0000 </r>
       <r>    -8.0786     0.0000     6.0000 </r>
       <r>    -8.0050     0.0000     6.0000 </r>
       <r>    -7.9314     0.0000     6.0000 </r>
       <r>    -7.8578     0.0000     6.0000 </r>
       <r>    -7.7842     0.0000     6.0000 </r>
       <r>    -7.7106     0.0000     6.0000 </r>
       <r>    -7.6370     0.0000     6.0000 </r>
       <r>    -7.5634     0.0000     6.0000 </r>
       <r>    -7.4898     0.0000     6.0000 </r>
       <r>    -7.4162     0.0000     6.0000 </r>
       <r>    -7.3426     0.0000     6.0000 </r>
       <r>    -7.2690     0.0000     6.0000 </r>
       <r>    -7.1954     0.0000     6.0000 </r>
       <r>    -7.1217     0.0000     6.0000 </r>
       <r>    -7.0481     0.0000     6.0000 </r>
       <r>    -6.9745     0.0000     6.0000 </r>
       <r>    -6.9009     0.0000     6.0000 </r>
       <r>    -6.8273     0.0000     6.0000 </r>
       <r>    -6.7537     0.0000     6.0000 </r>
       <r>    -6.6801     0.0000     6.0000 </r>
       <r>    -6.6065     0.0000     6.0000 </r>
       <r>    -6.5329     0.0000     6.0000 </r>
       <r>    -6.4593     0.0000     6.0000 </r>
       <r>    -6.3857     0.0000     6.0000 </r>
       <r>    -6.3121     0.0000     6.0000 </r>
       <r>    -6.2385     0.0000     6.0000 </r>
       <r>    -6.1649     0.0000     6.0000 </r>
       <r>    -6.0913     0.0000     6.0000 </r>
       <r>    -6.0177     0.0000     6.0000 </r>
       <r>    -5.9441     0.0000     6.0000 </r>
       <r>    -5.8705     0.0000     6.0000 </r>
       <r>    -5.7969     0.0000     6.0000 </r>
       <r>    -5.7233     0.0000     6.0000 </r>
       <r>    -5.6497     0.0000     6.0000 </r>
       <r>    -5.5761     0.0000     6.0000 </r>
       <r>    -5.5025     0.0000     6.0000 </r>
       <r>    -5.4289     0.0000     6.0000 </r>
       <r>    -5.3553     0.0000     6.0000 </r>
       <r>    -5.2817     0.0000     6.0000 </r>
       <r>    -5.2081     0.0000     6.0000 </r>
       <r>    -5.1345     0.0000     6.0000 </r>
       <r>    -5.0609     0.0000     6.0000 </r>
       <r>    -4.9873     0.0000     6.0000 </r>
       <r>    -4.9137     0.0000     6.0000 </r>
       <r>    -4.8401     0.0000     6.0000 </r>
       <r>    -4.7665     0.0000     6.0000 </r>
       <r>    -4.6929     0.0000     6.0000 </r>
       <r>    -4.6193     0.0000     6.0000 </r>
       <r>    -4.5457     0.0000     6.0000 </r>
       <r>    -4.4721     0.0000     6.0000 </r>
       <r>    -4.3985     0.0000     6.0000 </r>
       <r>    -4.3248     0.0000     6.0000 </r>
       <r>    -4.2512     0.0000     6.0000 </r>
       <r>    -4.1776     0.0000     6.0000 </r>
       <r>    -4.1040     0.0000     6.0000 </r>
       <r>    -4.0304     0.0000     6.0000 </r>
       <r>    -3.9568     0.0000     6.0000 </r>
       <r>    -3.8832     0.0000     6.0000 </r>
       <r>    -3.8096     0.0000     6.0000 </r>
       <r>    -3.7360     0.0000     6.0000 </r>
       <r>    -3.6624     0.0000     6.0000 </r>
       <r>    -3.5888     0.0000     6.0000 </r>
       <r>    -3.5152     0.0000     6.0000 </r>
       <r>    -3.4416     0.0000     6.0000 </r>
       <r>    -3.3680     0.0000     6.0000 </r>
       <r>    -3.2944     0.0000     6.0000 </r>
       <r>    -3.2208     0.0000     6.0000 </r>
       <r>    -3.1472     0.0000     6.0000 </r>
       <r>    -3.0736     0.0000     6.0000 </r>
       <r>    -3.0000     0.0000     6.0000 </r>
       <r>    -2.9264     0.0000     6.0000 </r>
       <r>    -2.8528     0.0000     6.0000 </r>
       <r>    -2.7792     0.0000     6.0000 </r>
       <r>    -2.7056     0.0000     6.0000 </r>
       <r>    -2.6320     0.0000     6.0000 </r>
       <r>    -2.5584     0.0000     6.0000 </r>
       <r>    -2.4848     0.0000     6.0000 </r>
       <r>    -2.4112     0.0000     6.0000 </r>
       <r>    -2.3376     0.0000     6.0000 </r>
       <r>    -2.2640     0.0000     6.0000 </r>
       <r>    -2.1904     0.0000     6.0000 </r>
       <r>    -2.1168     0.0000     6.0000 </r>
       <r>    -2.0432     0.0000     6.0000 </r>
       <r>    -1.9696     0.0000     6.0000 </r>
       <r>    -1.8960     0.0000     6.0000 </r>
       <r>    -1.8224     0.0000     6.0000 </r>
       <r>    -1.7488     0.0003     6.0000 </r>
       <r>    -1.6752     0.5267     6.0388 </r>
       <r>    -1.6016    17.4784     7.3253 </r>
       <r>    -1.5279    21.6745     8.9206 </r>
       <r>    -1.4543     1.0782     8.9999 </r>
       <r>    -1.3807     0.0012     9.0000 </r>
       <r>    -1.3071     0.0000     9.0000 </r>
       <r>    -1.2335     0.0000     9.0000 </r>
       <r>    -1.1599     0.0000     9.0000 </r>
       <r>    -1.0863     0.0000     9.0000 </r>
       <r>    -1.0127     0.0000     9.0000 </r>
       <r>    -0.9391     0.0000     9.0000 </r>
       <r>    -0.8655     0.0000     9.0000 </r>
       <r>    -0.7919     0.0000     9.0000 </r>
       <r>    -0.7183     0.0000     9.0000 </r>
       <r>    -0.6447     0.0000     9.0000 </r>
       <r>    -0.5711     0.0000     9.0000 </r>
       <r>    -0.4975     0.0000     9.0000 </r>
       <r>    -0.4239     0.0000     9.0000 </r>
       <r>    -0.3503     0.0000     9.0000 </r>
       <r>    -0.2767     0.0000     9.0000 </r>
       <r>    -0.2031     0.0000     9.0000 </r>
       <r>    -0.1295     0.0000     9.0000 </r>
       <r>    -0.0559     0.0295     9.0022 </r>
       <r>     0.0177     2.9672     9.2206 </r>
       <r>     0.0913     9.3012     9.9052 </r>
       <r>     0.1649     1.2839     9.9997 </r>
       <r>     0.2385     0.0047    10.0000 </r>
       <r>     0.3121     0.0000    10.0000 </r>
       <r>     0.3857     0.0000    10.0000 </r>
       <r>     0.4593     0.0000    10.0000 </r>
       <r>     0.5329     0.0000    10.0000 </r>
       <r>     0.6065     0.0000    10.0000 </r>
       <r>     0.6801     0.0000    10.0000 </r>
       <r>     0.7537     0.0000    10.0000 </r>
       <r>     0.8273     0.0000    10.0000 </r>
       <r>     0.9009     0.0000    10.0000 </r>
       <r>     0.9745     0.0000    10.0000 </r>
       <r>     1.0481     0.0000    10.0000 </r>
       <r>     1.1217     0.0000    10.0000 </r>
       <r>     1.1953     0.0000    10.0000 </r>
       <r>     1.2690     0.0405    10.0030 </r>
       <r>     1.3426     5.0498    10.3747 </r>
       <r>     1.4162    18.9241    11.7675 </r>
       <r>     1.4898     3.1442    11.9989 </r>
       <r>     1.5634     0.0143    12.0000 </r>
       <r>     1.6370     0.0000    12.0000 </r>
       <r>     1.7106     0.0753    12.0055 </r>
       <r>     1.7842     4.4647    12.3342 </r>
       <r>     1.8578    19.4050    13.7624 </r>
       <r>     1.9314    27.5254    15.7884 </r>
       <r>     2.0050     2.8677    15.9994 </r>
       <r>     2.0786     0.0078    16.0000 </r>
       <r>     2.1522     0.0000    16.0000 </r>
       <r>     2.2258     0.0000    16.0000 </r>
       <r>     2.2994     0.0037    16.0003 </r>
       <r>     2.3730     1.9680    16.1451 </r>
       <r>     2.4466    25.0534    17.9891 </r>
       <r>     2.5202    13.4829    18.9815 </r>
       <r>     2.5938     0.2513    19.0000 </r>
       <r>     2.6674     0.0001    19.0000 </r>
       <r>     2.7410     0.0000    19.0000 </r>
       <r>     2.8146     0.0351    19.0026 </r>
       <r>     2.8882     4.7782    19.3543 </r>
       <r>     2.9618    25.2697    21.2142 </r>
       <r>     3.0354    31.9386    23.5650 </r>
       <r>     3.1090     5.8758    23.9974 </r>
       <r>     3.1826     0.0350    24.0000 </r>
       <r>     3.2562     0.0000    24.0000 </r>
       <r>     3.3298     0.0000    24.0000 </r>
       <r>     3.4034     0.0000    24.0000 </r>
       <r>     3.4770     0.0000    24.0000 </r>
       <r>     3.5506     0.0000    24.0000 </r>
       <r>     3.6242     0.0695    24.0051 </r>
       <r>     3.6978     6.0995    24.4541 </r>
       <r>     3.7714    18.3777    25.8067 </r>
       <r>     3.8450     3.0697    26.0326 </r>
       <r>     3.9186     8.0352    26.6241 </r>
       <r>     3.9922    14.3833    27.6827 </r>
       <r>     4.0659    17.6445    28.9814 </r>
       <r>     4.1395    14.5614    30.0531 </r>
       <r>     4.2131    13.3582    31.0363 </r>
       <r>     4.2867    10.9696    31.8437 </r>
       <r>     4.3603     2.1097    31.9990 </r>
       <r>     4.4339     0.0134    32.0000 </r>
       <r>     4.5075     0.0000    32.0000 </r>
       <r>     4.5811     0.0000    32.0000 </r>
       <r>     4.6547     0.0001    32.0000 </r>
       <r>     4.7283     0.1715    32.0126 </r>
       <r>     4.8019     5.8056    32.4399 </r>
       <r>     4.8755    10.3266    33.2000 </r>
       <r>     4.9491    20.7319    34.7259 </r>
       <r>     5.0227    16.3389    35.9285 </r>
       <r>     5.0963     0.9696    35.9999 </r>
       <r>     5.1699     0.0017    36.0000 </r>
       <r>     5.2435     0.0000    36.0000 </r>
       <r>     5.3171     0.0000    36.0000 </r>
       <r>     5.3907     0.0000    36.0000 </r>
       <r>     5.4643     0.0000    36.0000 </r>
       <r>     5.5379     0.0000    36.0000 </r>
       <r>     5.6115     0.0000    36.0000 </r>
       <r>     5.6851     0.0000    36.0000 </r>
       <r>     5.7587     0.0000    36.0000 </r>
       <r>     5.8323     0.0000    36.0000 </r>
       <r>     5.9059     0.0000    36.0000 </r>
       <r>     5.9795     0.0000    36.0000 </r>
      </set>
     </set>
    </array>
   </total>
   <partial>
    <array>
     <dimension dim="1">gridpoints</dimension>
     <dimension dim="2">spin</dimension>
     <dimension dim="3">ion</dimension>
     <field>energy</field>
     <field>    s</field>
     <field>   py</field>
     <field>   pz</field>
     <field>   px</field>
     <field>  dxy</field>
     <field>  dyz</field>
     <field>  dz2</field>
     <field>  dxz</field>
     <field>x2-y2</field>
     <set>
      <set comment="ion 1">
       <set comment="spin 1">
        <r>   -16.1013     0.0000     0.0000     0.0000     0.0000     0.0000     0.0000     0.0000     0.0000     0.0000 </r>
        <r>   -16.0277     0.0000     0.0000     0.0000     0.0000     0.0000     0.0000     0.0000     0.0000     0.0000 </r>
        <r>   -15.9541     0.0000     0.0000     0.0000     0.0000     0.0000     0.0000     0.0000     0.0000     0.0000 </r>
        <r>   -15.8805     0.0000     0.0000     0.0000     0.0000     0.0000     0.0000     0.0000     0.0000     0.0000 </r>
        <r>   -15.8069     0.0000     0.0000     0.0000     0.0000     0.0000     0.0000     0.0000     0.0000     0.0000 </r>
        <r>   -15.7333     0.0000     0.0000     0.0000     0.0000     0.0000     0.0000     0.0000     0.0000     0.0000 </r>
        <r>   -15.6597     0.0000     0.0000     0.0000     0.0000     0.0000     0.0000     0.0000     0.0000     0.0000 </r>
        <r>   -15.5861     0.0000     0.0000     0.0000     0.0000     0.0000     0.0000     0.0000     0.0000     0.0000 </r>
        <r>   -15.5124     0.0000     0.0000     0.0000     0.0000     0.0000     0.0000     0.0000     0.0000     0.0000 </r>
        <r>   -15.4388     0.0000     0.0000     0.0000     0.0000     0.0000     0.0000     0.0000     0.0000     0.0000 </r>
        <r>   -15.3652     0.0000     0.0000     0.0000     0.0000     0.0000     0.0000     0.0000     0.0000     0.0000 </r>
        <r>   -15.2916     0.0000     0.0000     0.0000     0.0000     0.0000     0.0000     0.0000     0.0000     0.0000 </r>
        <r>   -15.2180     0.0000     0.0000     0.0000     0.0000     0.0043     0.0043     0.0043     0.0043     0.0043 </r>
        <r>   -15.1444     0.0000     0.0000     0.0000     0.0000     1.2081     1.2081     1.2064     1.2081     1.2064 </r>
        <r>   -15.0708     0.0000     0.0000     0.0000     0.0000     8.9387     8.9387     8.9373     8.9387     8.9373 </r>
        <r>   -14.9972     0.0000     0.0000     0.0000     0.0000     2.9093     2.9093     2.9124     2.9093     2.9124 </r>
        <r>   -14.9236     0.0000     0.0000     0.0000     0.0000     0.0296     0.0296     0.0297     0.0296     0.0297 </r>
        <r>   -14.8500     0.0000     0.0000     0.0000     0.0000     0.0000     0.0000     0.0000     0.0000     0.0000 </r>
        <r>   -14.7764     0.0000     0.0000     0.0000     0.0000     0.0000     0.0000     0.0000     0.0000     0.0000 </r>
        <r>   -14.7028     0.0000     0.0000     0.0000     0.0000     0.0000     0.0000     0.0000     0.0000     0.0000 </r>
        <r>   -14.6292     0.0000     0.0000     0.0000     0.0000     0.0000     0.0000     0.0000     0.0000     0.0000 </r>
        <r>   -14.5556     0.0000     0.0000     0.0000     0.0000     0.0000     0.0000     0.0000     0.0000     0.0000 </r>
        <r>   -14.4820     0.0000     0.0000     0.0000     0.0000     0.0000     0.0000     0.0000     0.0000     0.0000 </r>
        <r>   -14.4084     0.0000     0.0000     0.0000     0.0000     0.0000     0.0000     0.0000     0.0000     0.0000 </r>
        <r>   -14.3348     0.0000     0.0000     0.0000     0.0000     0.0000     0.0000     0.0000     0.0000     0.0000 </r>
        <r>   -14.2612     0.0000     0.0000     0.0000     0.0000     0.0000     0.0000     0.0000     0.0000     0.0000 </r>
        <r>   -14.1876     0.0000     0.0000     0.0000     0.0000     0.0000     0.0000     0.0000     0.0000     0.0000 </r>
        <r>   -14.1140     0.0000     0.0000     0.0000     0.0000     0.0000     0.0000     0.0000     0.0000     0.0000 </r>
        <r>   -14.0404     0.0000     0.0000     0.0000     0.0000     0.0000     0.0000     0.0000     0.0000     0.0000 </r>
        <r>   -13.9668     0.0000     0.0000     0.0000     0.0000     0.0000     0.0000     0.0000     0.0000     0.0000 </r>
        <r>   -13.8932     0.0000     0.0000     0.0000     0.0000     0.0000     0.0000     0.0000     0.0000     0.0000 </r>
        <r>   -13.8196     0.0000     0.0000     0.0000     0.0000     0.0000     0.0000     0.0000     0.0000     0.0000 </r>
        <r>   -13.7460     0.0000     0.0000     0.0000     0.0000     0.0000     0.0000     0.0000     0.0000     0.0000 </r>
        <r>   -13.6724     0.0000     0.0000     0.0000     0.0000     0.0000     0.0000     0.0000     0.0000     0.0000 </r>
        <r>   -13.5988     0.0000     0.0000     0.0000     0.0000     0.0000     0.0000     0.0000     0.0000     0.0000 </r>
        <r>   -13.5252     0.0000     0.0000     0.0000     0.0000     0.0000     0.0000     0.0000     0.0000     0.0000 </r>
        <r>   -13.4516     0.0000     0.0000     0.0000     0.0000     0.0000     0.0000     0.0000     0.0000     0.0000 </r>
        <r>   -13.3780     0.0000     0.0000     0.0000     0.0000     0.0000     0.0000     0.0000     0.0000     0.0000 </r>
        <r>   -13.3044     0.0000     0.0000     0.0000     0.0000     0.0000     0.0000     0.0000     0.0000     0.0000 </r>
        <r>   -13.2308     0.0000     0.0000     0.0000     0.0000     0.0000     0.0000     0.0000     0.0000     0.0000 </r>
        <r>   -13.1572     0.0000     0.0000     0.0000     0.0000     0.0000     0.0000     0.0000     0.0000     0.0000 </r>
        <r>   -13.0836     0.0000     0.0000     0.0000     0.0000     0.0000     0.0000     0.0000     0.0000     0.0000 </r>
        <r>   -13.0100     0.0000     0.0000     0.0000     0.0000     0.0000     0.0000     0.0000     0.0000     0.0000 </r>
        <r>   -12.9364     0.0000     0.0000     0.0000     0.0000     0.0000     0.0000     0.0000     0.0000     0.0000 </r>
        <r>   -12.8628     0.0000     0.0000     0.0000     0.0000     0.0000     0.0000     0.0000     0.0000     0.0000 </r>
        <r>   -12.7892     0.0000     0.0000     0.0000     0.0000     0.0000     0.0000     0.0000     0.0000     0.0000 </r>
        <r>   -12.7155     0.0000     0.0000     0.0000     0.0000     0.0000     0.0000     0.0000     0.0000     0.0000 </r>
        <r>   -12.6419     0.0000     0.0000     0.0000     0.0000     0.0000     0.0000     0.0000     0.0000     0.0000 </r>
        <r>   -12.5683     0.0000     0.0000     0.0000     0.0000     0.0000     0.0000     0.0000     0.0000     0.0000 </r>
        <r>   -12.4947     0.0000     0.0000     0.0000     0.0000     0.0000     0.0000     0.0000     0.0000     0.0000 </r>
        <r>   -12.4211     0.0000     0.0000     0.0000     0.0000     0.0000     0.0000     0.0000     0.0000     0.0000 </r>
        <r>   -12.3475     0.0000     0.0000     0.0000     0.0000     0.0000     0.0000     0.0000     0.0000     0.0000 </r>
        <r>   -12.2739     0.0000     0.0000     0.0000     0.0000     0.0000     0.0000     0.0000     0.0000     0.0000 </r>
        <r>   -12.2003     0.0000     0.0000     0.0000     0.0000     0.0000     0.0000     0.0000     0.0000     0.0000 </r>
        <r>   -12.1267     0.0000     0.0000     0.0000     0.0000     0.0000     0.0000     0.0000     0.0000     0.0000 </r>
        <r>   -12.0531     0.0000     0.0000     0.0000     0.0000     0.0000     0.0000     0.0000     0.0000     0.0000 </r>
        <r>   -11.9795     0.0000     0.0000     0.0000     0.0000     0.0000     0.0000     0.0000     0.0000     0.0000 </r>
        <r>   -11.9059     0.0000     0.0000     0.0000     0.0000     0.0000     0.0000     0.0000     0.0000     0.0000 </r>
        <r>   -11.8323     0.0000     0.0000     0.0000     0.0000     0.0000     0.0000     0.0000     0.0000     0.0000 </r>
        <r>   -11.7587     0.0000     0.0000     0.0000     0.0000     0.0000     0.0000     0.0000     0.0000     0.0000 </r>
        <r>   -11.6851     0.0000     0.0000     0.0000     0.0000     0.0000     0.0000     0.0000     0.0000     0.0000 </r>
        <r>   -11.6115     0.0000     0.0000     0.0000     0.0000     0.0000     0.0000     0.0000     0.0000     0.0000 </r>
        <r>   -11.5379     0.0000     0.0000     0.0000     0.0000     0.0000     0.0000     0.0000     0.0000     0.0000 </r>
        <r>   -11.4643     0.0000     0.0000     0.0000     0.0000     0.0000     0.0000     0.0000     0.0000     0.0000 </r>
        <r>   -11.3907     0.0000     0.0000     0.0000     0.0000     0.0000     0.0000     0.0000     0.0000     0.0000 </r>
        <r>   -11.3171     0.0000     0.0000     0.0000     0.0000     0.0000     0.0000     0.0000     0.0000     0.0000 </r>
        <r>   -11.2435     0.0000     0.0000     0.0000     0.0000     0.0000     0.0000     0.0000     0.0000     0.0000 </r>
        <r>   -11.1699     0.0000     0.0000     0.0000     0.0000     0.0000     0.0000     0.0000     0.0000     0.0000 </r>
        <r>   -11.0963     0.0000     0.0000     0.0000     0.0000     0.0000     0.0000     0.0000     0.0000     0.0000 </r>
        <r>   -11.0227     0.0000     0.0000     0.0000     0.0000     0.0000     0.0000     0.0000     0.0000     0.0000 </r>
        <r>   -10.9491     0.0000     0.0000     0.0000     0.0000     0.0000     0.0000     0.0000     0.0000     0.0000 </r>
        <r>   -10.8755     0.0000     0.0000     0.0000     0.0000     0.0000     0.0000     0.0000     0.0000     0.0000 </r>
        <r>   -10.8019     0.0000     0.0000     0.0000     0.0000     0.0000     0.0000     0.0000     0.0000     0.0000 </r>
        <r>   -10.7283     0.0000     0.0000     0.0000     0.0000     0.0000     0.0000     0.0000     0.0000     0.0000 </r>
        <r>   -10.6547     0.0000     0.0000     0.0000     0.0000     0.0000     0.0000     0.0000     0.0000     0.0000 </r>
        <r>   -10.5811     0.0000     0.0000     0.0000     0.0000     0.0000     0.0000     0.0000     0.0000     0.0000 </r>
        <r>   -10.5075     0.0000     0.0000     0.0000     0.0000     0.0000     0.0000     0.0000     0.0000     0.0000 </r>
        <r>   -10.4339     0.0000     0.0000     0.0000     0.0000     0.0000     0.0000     0.0000     0.0000     0.0000 </r>
        <r>   -10.3603     0.0000     0.0000     0.0000     0.0000     0.0000     0.0000     0.0000     0.0000     0.0000 </r>
        <r>   -10.2867     0.0000     0.0000     0.0000     0.0000     0.0000     0.0000     0.0000     0.0000     0.0000 </r>
        <r>   -10.2131     0.0000     0.0000     0.0000     0.0000     0.0000     0.0000     0.0000     0.0000     0.0000 </r>
        <r>   -10.1395     0.0000     0.0000     0.0000     0.0000     0.0000     0.0000     0.0000     0.0000     0.0000 </r>
        <r>   -10.0659     0.0000     0.0000     0.0000     0.0000     0.0000     0.0000     0.0000     0.0000     0.0000 </r>
        <r>    -9.9923     0.0000     0.0000     0.0000     0.0000     0.0000     0.0000     0.0000     0.0000     0.0000 </r>
        <r>    -9.9186     0.0000     0.0000     0.0000     0.0000     0.0000     0.0000     0.0000     0.0000     0.0000 </r>
        <r>    -9.8450     0.0000     0.0000     0.0000     0.0000     0.0000     0.0000     0.0000     0.0000     0.0000 </r>
        <r>    -9.7714     0.0000     0.0000     0.0000     0.0000     0.0000     0.0000     0.0000     0.0000     0.0000 </r>
        <r>    -9.6978     0.0000     0.0000     0.0000     0.0000     0.0000     0.0000     0.0000     0.0000     0.0000 </r>
        <r>    -9.6242     0.0000     0.0000     0.0000     0.0000     0.0000     0.0000     0.0000     0.0000     0.0000 </r>
        <r>    -9.5506     0.0000     0.0000     0.0000     0.0000     0.0000     0.0000     0.0000     0.0000     0.0000 </r>
        <r>    -9.4770     0.0074     0.0000     0.0000     0.0000     0.0000     0.0000     0.0000     0.0000     0.0000 </r>
        <r>    -9.4034     1.2345     0.0000     0.0000     0.0000     0.0000     0.0000     0.0000     0.0000     0.0000 </r>
        <r>    -9.3298     5.9144     0.0000     0.0000     0.0000     0.0000     0.0000     0.0000     0.0000     0.0000 </r>
        <r>    -9.2562     1.2603     0.0000     0.0000     0.0000     0.0000     0.0000     0.0000     0.0000     0.0000 </r>
        <r>    -9.1826     0.0077     0.0000     0.0000     0.0000     0.0000     0.0000     0.0000     0.0000     0.0000 </r>
        <r>    -9.1090     0.0000     0.0000     0.0000     0.0000     0.0000     0.0000     0.0000     0.0000     0.0000 </r>
        <r>    -9.0354     0.0000     0.0000     0.0000     0.0000     0.0000     0.0000     0.0000     0.0000     0.0000 </r>
        <r>    -8.9618     0.0000     0.0000     0.0000     0.0000     0.0000     0.0000     0.0000     0.0000     0.0000 </r>
        <r>    -8.8882     0.0000     0.0000     0.0000     0.0000     0.0000     0.0000     0.0000     0.0000     0.0000 </r>
        <r>    -8.8146     0.0000     0.0000     0.0000     0.0000     0.0000     0.0000     0.0000     0.0000     0.0000 </r>
        <r>    -8.7410     0.0000     0.0000     0.0000     0.0000     0.0000     0.0000     0.0000     0.0000     0.0000 </r>
        <r>    -8.6674     0.0000     0.0000     0.0000     0.0000     0.0000     0.0000     0.0000     0.0000     0.0000 </r>
        <r>    -8.5938     0.0000     0.0000     0.0000     0.0000     0.0000     0.0000     0.0000     0.0000     0.0000 </r>
        <r>    -8.5202     0.0000     0.0000     0.0000     0.0000     0.0000     0.0000     0.0000     0.0000     0.0000 </r>
        <r>    -8.4466     0.0000     0.0000     0.0000     0.0000     0.0000     0.0000     0.0000     0.0000     0.0000 </r>
        <r>    -8.3730     0.0000     0.0000     0.0000     0.0000     0.0000     0.0000     0.0000     0.0000     0.0000 </r>
        <r>    -8.2994     0.0000     0.0000     0.0000     0.0000     0.0000     0.0000     0.0000     0.0000     0.0000 </r>
        <r>    -8.2258     0.0000     0.0000     0.0000     0.0000     0.0000     0.0000     0.0000     0.0000     0.0000 </r>
        <r>    -8.1522     0.0000     0.0000     0.0000     0.0000     0.0000     0.0000     0.0000     0.0000     0.0000 </r>
        <r>    -8.0786     0.0000     0.0000     0.0000     0.0000     0.0000     0.0000     0.0000     0.0000     0.0000 </r>
        <r>    -8.0050     0.0000     0.0000     0.0000     0.0000     0.0000     0.0000     0.0000     0.0000     0.0000 </r>
        <r>    -7.9314     0.0000     0.0000     0.0000     0.0000     0.0000     0.0000     0.0000     0.0000     0.0000 </r>
        <r>    -7.8578     0.0000     0.0000     0.0000     0.0000     0.0000     0.0000     0.0000     0.0000     0.0000 </r>
        <r>    -7.7842     0.0000     0.0000     0.0000     0.0000     0.0000     0.0000     0.0000     0.0000     0.0000 </r>
        <r>    -7.7106     0.0000     0.0000     0.0000     0.0000     0.0000     0.0000     0.0000     0.0000     0.0000 </r>
        <r>    -7.6370     0.0000     0.0000     0.0000     0.0000     0.0000     0.0000     0.0000     0.0000     0.0000 </r>
        <r>    -7.5634     0.0000     0.0000     0.0000     0.0000     0.0000     0.0000     0.0000     0.0000     0.0000 </r>
        <r>    -7.4898     0.0000     0.0000     0.0000     0.0000     0.0000     0.0000     0.0000     0.0000     0.0000 </r>
        <r>    -7.4162     0.0000     0.0000     0.0000     0.0000     0.0000     0.0000     0.0000     0.0000     0.0000 </r>
        <r>    -7.3426     0.0000     0.0000     0.0000     0.0000     0.0000     0.0000     0.0000     0.0000     0.0000 </r>
        <r>    -7.2690     0.0000     0.0000     0.0000     0.0000     0.0000     0.0000     0.0000     0.0000     0.0000 </r>
        <r>    -7.1954     0.0000     0.0000     0.0000     0.0000     0.0000     0.0000     0.0000     0.0000     0.0000 </r>
        <r>    -7.1217     0.0000     0.0000     0.0000     0.0000     0.0000     0.0000     0.0000     0.0000     0.0000 </r>
        <r>    -7.0481     0.0000     0.0000     0.0000     0.0000     0.0000     0.0000     0.0000     0.0000     0.0000 </r>
        <r>    -6.9745     0.0000     0.0000     0.0000     0.0000     0.0000     0.0000     0.0000     0.0000     0.0000 </r>
        <r>    -6.9009     0.0000     0.0000     0.0000     0.0000     0.0000     0.0000     0.0000     0.0000     0.0000 </r>
        <r>    -6.8273     0.0000     0.0000     0.0000     0.0000     0.0000     0.0000     0.0000     0.0000     0.0000 </r>
        <r>    -6.7537     0.0000     0.0000     0.0000     0.0000     0.0000     0.0000     0.0000     0.0000     0.0000 </r>
        <r>    -6.6801     0.0000     0.0000     0.0000     0.0000     0.0000     0.0000     0.0000     0.0000     0.0000 </r>
        <r>    -6.6065     0.0000     0.0000     0.0000     0.0000     0.0000     0.0000     0.0000     0.0000     0.0000 </r>
        <r>    -6.5329     0.0000     0.0000     0.0000     0.0000     0.0000     0.0000     0.0000     0.0000     0.0000 </r>
        <r>    -6.4593     0.0000     0.0000     0.0000     0.0000     0.0000     0.0000     0.0000     0.0000     0.0000 </r>
        <r>    -6.3857     0.0000     0.0000     0.0000     0.0000     0.0000     0.0000     0.0000     0.0000     0.0000 </r>
        <r>    -6.3121     0.0000     0.0000     0.0000     0.0000     0.0000     0.0000     0.0000     0.0000     0.0000 </r>
        <r>    -6.2385     0.0000     0.0000     0.0000     0.0000     0.0000     0.0000     0.0000     0.0000     0.0000 </r>
        <r>    -6.1649     0.0000     0.0000     0.0000     0.0000     0.0000     0.0000     0.0000     0.0000     0.0000 </r>
        <r>    -6.0913     0.0000     0.0000     0.0000     0.0000     0.0000     0.0000     0.0000     0.0000     0.0000 </r>
        <r>    -6.0177     0.0000     0.0000     0.0000     0.0000     0.0000     0.0000     0.0000     0.0000     0.0000 </r>
        <r>    -5.9441     0.0000     0.0000     0.0000     0.0000     0.0000     0.0000     0.0000     0.0000     0.0000 </r>
        <r>    -5.8705     0.0000     0.0000     0.0000     0.0000     0.0000     0.0000     0.0000     0.0000     0.0000 </r>
        <r>    -5.7969     0.0000     0.0000     0.0000     0.0000     0.0000     0.0000     0.0000     0.0000     0.0000 </r>
        <r>    -5.7233     0.0000     0.0000     0.0000     0.0000     0.0000     0.0000     0.0000     0.0000     0.0000 </r>
        <r>    -5.6497     0.0000     0.0000     0.0000     0.0000     0.0000     0.0000     0.0000     0.0000     0.0000 </r>
        <r>    -5.5761     0.0000     0.0000     0.0000     0.0000     0.0000     0.0000     0.0000     0.0000     0.0000 </r>
        <r>    -5.5025     0.0000     0.0000     0.0000     0.0000     0.0000     0.0000     0.0000     0.0000     0.0000 </r>
        <r>    -5.4289     0.0000     0.0000     0.0000     0.0000     0.0000     0.0000     0.0000     0.0000     0.0000 </r>
        <r>    -5.3553     0.0000     0.0000     0.0000     0.0000     0.0000     0.0000     0.0000     0.0000     0.0000 </r>
        <r>    -5.2817     0.0000     0.0000     0.0000     0.0000     0.0000     0.0000     0.0000     0.0000     0.0000 </r>
        <r>    -5.2081     0.0000     0.0000     0.0000     0.0000     0.0000     0.0000     0.0000     0.0000     0.0000 </r>
        <r>    -5.1345     0.0000     0.0000     0.0000     0.0000     0.0000     0.0000     0.0000     0.0000     0.0000 </r>
        <r>    -5.0609     0.0000     0.0000     0.0000     0.0000     0.0000     0.0000     0.0000     0.0000     0.0000 </r>
        <r>    -4.9873     0.0000     0.0000     0.0000     0.0000     0.0000     0.0000     0.0000     0.0000     0.0000 </r>
        <r>    -4.9137     0.0000     0.0000     0.0000     0.0000     0.0000     0.0000     0.0000     0.0000     0.0000 </r>
        <r>    -4.8401     0.0000     0.0000     0.0000     0.0000     0.0000     0.0000     0.0000     0.0000     0.0000 </r>
        <r>    -4.7665     0.0000     0.0000     0.0000     0.0000     0.0000     0.0000     0.0000     0.0000     0.0000 </r>
        <r>    -4.6929     0.0000     0.0000     0.0000     0.0000     0.0000     0.0000     0.0000     0.0000     0.0000 </r>
        <r>    -4.6193     0.0000     0.0000     0.0000     0.0000     0.0000     0.0000     0.0000     0.0000     0.0000 </r>
        <r>    -4.5457     0.0000     0.0000     0.0000     0.0000     0.0000     0.0000     0.0000     0.0000     0.0000 </r>
        <r>    -4.4721     0.0000     0.0000     0.0000     0.0000     0.0000     0.0000     0.0000     0.0000     0.0000 </r>
        <r>    -4.3985     0.0000     0.0000     0.0000     0.0000     0.0000     0.0000     0.0000     0.0000     0.0000 </r>
        <r>    -4.3248     0.0000     0.0000     0.0000     0.0000     0.0000     0.0000     0.0000     0.0000     0.0000 </r>
        <r>    -4.2512     0.0000     0.0000     0.0000     0.0000     0.0000     0.0000     0.0000     0.0000     0.0000 </r>
        <r>    -4.1776     0.0000     0.0000     0.0000     0.0000     0.0000     0.0000     0.0000     0.0000     0.0000 </r>
        <r>    -4.1040     0.0000     0.0000     0.0000     0.0000     0.0000     0.0000     0.0000     0.0000     0.0000 </r>
        <r>    -4.0304     0.0000     0.0000     0.0000     0.0000     0.0000     0.0000     0.0000     0.0000     0.0000 </r>
        <r>    -3.9568     0.0000     0.0000     0.0000     0.0000     0.0000     0.0000     0.0000     0.0000     0.0000 </r>
        <r>    -3.8832     0.0000     0.0000     0.0000     0.0000     0.0000     0.0000     0.0000     0.0000     0.0000 </r>
        <r>    -3.8096     0.0000     0.0000     0.0000     0.0000     0.0000     0.0000     0.0000     0.0000     0.0000 </r>
        <r>    -3.7360     0.0000     0.0000     0.0000     0.0000     0.0000     0.0000     0.0000     0.0000     0.0000 </r>
        <r>    -3.6624     0.0000     0.0000     0.0000     0.0000     0.0000     0.0000     0.0000     0.0000     0.0000 </r>
        <r>    -3.5888     0.0000     0.0000     0.0000     0.0000     0.0000     0.0000     0.0000     0.0000     0.0000 </r>
        <r>    -3.5152     0.0000     0.0000     0.0000     0.0000     0.0000     0.0000     0.0000     0.0000     0.0000 </r>
        <r>    -3.4416     0.0000     0.0000     0.0000     0.0000     0.0000     0.0000     0.0000     0.0000     0.0000 </r>
        <r>    -3.3680     0.0000     0.0000     0.0000     0.0000     0.0000     0.0000     0.0000     0.0000     0.0000 </r>
        <r>    -3.2944     0.0000     0.0000     0.0000     0.0000     0.0000     0.0000     0.0000     0.0000     0.0000 </r>
        <r>    -3.2208     0.0000     0.0000     0.0000     0.0000     0.0000     0.0000     0.0000     0.0000     0.0000 </r>
        <r>    -3.1472     0.0000     0.0000     0.0000     0.0000     0.0000     0.0000     0.0000     0.0000     0.0000 </r>
        <r>    -3.0736     0.0000     0.0000     0.0000     0.0000     0.0000     0.0000     0.0000     0.0000     0.0000 </r>
[...]
        <r>     2.6674     0.0000     0.0000     0.0000     0.0000     0.0000     0.0000     0.0000     0.0000     0.0000 </r>
        <r>     2.7410     0.0000     0.0000     0.0000     0.0000     0.0000     0.0000     0.0000     0.0000     0.0000 </r>
        <r>     2.8146     0.0000     0.0000     0.0000     0.0000     0.0000     0.0000     0.0001     0.0000     0.0001 </r>
        <r>     2.8882     0.0000     0.0000     0.0000     0.0000     0.0000     0.0000     0.0108     0.0000     0.0103 </r>
        <r>     2.9618     0.0000     0.0002     0.0004     0.0003     0.0001     0.0000     0.0426     0.0000     0.0422 </r>
        <r>     3.0354     0.0000     0.0005     0.0020     0.0008     0.0004     0.0001     0.0076     0.0001     0.0080 </r>
        <r>     3.1090     0.0000     0.0001     0.0005     0.0002     0.0001     0.0000     0.0001     0.0000     0.0001 </r>
        <r>     3.1826     0.0000     0.0000     0.0000     0.0000     0.0000     0.0000     0.0000     0.0000     0.0000 </r>
        <r>     3.2562     0.0000     0.0000     0.0000     0.0000     0.0000     0.0000     0.0000     0.0000     0.0000 </r>
        <r>     3.3298     0.0000     0.0000     0.0000     0.0000     0.0000     0.0000     0.0000     0.0000     0.0000 </r>
        <r>     3.4034     0.0000     0.0000     0.0000     0.0000     0.0000     0.0000     0.0000     0.0000     0.0000 </r>
        <r>     3.4770     0.0000     0.0000     0.0000     0.0000     0.0000     0.0000     0.0000     0.0000     0.0000 </r>
        <r>     3.5506     0.0000     0.0000     0.0000     0.0000     0.0000     0.0000     0.0000     0.0000     0.0000 </r>
        <r>     3.6242     0.0006     0.0005     0.0000     0.0022     0.0000     0.0000     0.0000     0.0000     0.0000 </r>
        <r>     3.6978     0.0812     0.0327     0.0037     0.1600     0.0003     0.0000     0.0000     0.0002     0.0000 </r>
        <r>     3.7714     0.3274     0.0784     0.0091     0.3785     0.0008     0.0000     0.0000     0.0004     0.0001 </r>
        <r>     3.8450     0.0587     0.0088     0.0149     0.0387     0.0002     0.0003     0.0000     0.0010     0.0000 </r>
        <r>     3.9186     0.0003     0.0128     0.2365     0.0033     0.0036     0.0060     0.0006     0.0164     0.0000 </r>
        <r>     3.9922     0.0000     0.0876     0.2268     0.0660     0.0275     0.0171     0.0007     0.0139     0.0005 </r>
        <r>     4.0659     0.0028     0.1100     0.1858     0.0596     0.0532     0.0175     0.0050     0.0072     0.0005 </r>
        <r>     4.1395     0.0132     0.1503     0.0437     0.0051     0.0104     0.0163     0.0182     0.0150     0.0002 </r>
        <r>     4.2131     0.0057     0.0412     0.0259     0.0068     0.0029     0.0285     0.0074     0.0398     0.0040 </r>
        <r>     4.2867     0.0133     0.0473     0.0167     0.0245     0.0016     0.0095     0.0171     0.0075     0.0194 </r>
        <r>     4.3603     0.0029     0.0104     0.0029     0.0053     0.0003     0.0013     0.0038     0.0004     0.0043 </r>
        <r>     4.4339     0.0000     0.0001     0.0000     0.0000     0.0000     0.0000     0.0000     0.0000     0.0000 </r>
        <r>     4.5075     0.0000     0.0000     0.0000     0.0000     0.0000     0.0000     0.0000     0.0000     0.0000 </r>
        <r>     4.5811     0.0000     0.0000     0.0000     0.0000     0.0000     0.0000     0.0000     0.0000     0.0000 </r>
        <r>     4.6547     0.0000     0.0000     0.0000     0.0000     0.0000     0.0000     0.0000     0.0000     0.0000 </r>
        <r>     4.7283     0.0000     0.0007     0.0019     0.0004     0.0000     0.0000     0.0007     0.0000     0.0010 </r>
        <r>     4.8019     0.0002     0.0245     0.0641     0.0144     0.0001     0.0007     0.0235     0.0004     0.0343 </r>
        <r>     4.8755     0.0051     0.1014     0.0808     0.0205     0.0001     0.0038     0.0320     0.0005     0.0470 </r>
        <r>     4.9491     0.0923     0.2584     0.0112     0.0358     0.0003     0.0102     0.0477     0.0002     0.1174 </r>
        <r>     5.0227     0.0949     0.0506     0.0086     0.0300     0.0000     0.0016     0.0803     0.0001     0.1749 </r>
        <r>     5.0963     0.0045     0.0009     0.0005     0.0011     0.0000     0.0000     0.0067     0.0000     0.0127 </r>
        <r>     5.1699     0.0000     0.0000     0.0000     0.0000     0.0000     0.0000     0.0000     0.0000     0.0000 </r>
        <r>     5.2435     0.0000     0.0000     0.0000     0.0000     0.0000     0.0000     0.0000     0.0000     0.0000 </r>
        <r>     5.3171     0.0000     0.0000     0.0000     0.0000     0.0000     0.0000     0.0000     0.0000     0.0000 </r>
        <r>     5.3907     0.0000     0.0000     0.0000     0.0000     0.0000     0.0000     0.0000     0.0000     0.0000 </r>
        <r>     5.4643     0.0000     0.0000     0.0000     0.0000     0.0000     0.0000     0.0000     0.0000     0.0000 </r>
        <r>     5.5379     0.0000     0.0000     0.0000     0.0000     0.0000     0.0000     0.0000     0.0000     0.0000 </r>
        <r>     5.6115     0.0000     0.0000     0.0000     0.0000     0.0000     0.0000     0.0000     0.0000     0.0000 </r>
        <r>     5.6851     0.0000     0.0000     0.0000     0.0000     0.0000     0.0000     0.0000     0.0000     0.0000 </r>
        <r>     5.7587     0.0000     0.0000     0.0000     0.0000     0.0000     0.0000     0.0000     0.0000     0.0000 </r>
        <r>     5.8323     0.0000     0.0000     0.0000     0.0000     0.0000     0.0000     0.0000     0.0000     0.0000 </r>
        <r>     5.9059     0.0000     0.0000     0.0000     0.0000     0.0000     0.0000     0.0000     0.0000     0.0000 </r>
        <r>     5.9795     0.0000     0.0000     0.0000     0.0000     0.0000     0.0000     0.0000     0.0000     0.0000 </r>
       </set>
      </set>
     </set>
    </array>
   </partial>
  </dos>
  <projected>
   <eigenvalues>
    <array>
     <dimension dim="1">band</dimension>
     <dimension dim="2">kpoint</dimension>
     <dimension dim="3">spin</dimension>
     <field>eigene</field>
     <field>occ</field>
     <set>
      <set comment="spin 1">
       <set comment="kpoint 1">
        <r>  -15.0976    1.0000 </r>
        <r>  -15.0976    1.0000 </r>
        <r>  -15.0976    1.0000 </r>
        <r>  -15.0976    1.0000 </r>
        <r>  -15.0976    1.0000 </r>
        <r>   -9.3664    1.0000 </r>
        <r>   -2.2372    0.3388 </r>
        <r>   -2.2372    0.3388 </r>
        <r>   -2.2356    0.3224 </r>
        <r>   -0.6176    0.0000 </r>
        <r>    0.6954    0.0000 </r>
        <r>    0.6954    0.0000 </r>
        <r>    1.2172    0.0000 </r>
        <r>    1.2475    0.0000 </r>
        <r>    1.2503    0.0000 </r>
        <r>    1.2903    0.0000 </r>
        <r>    1.6921    0.0000 </r>
        <r>    1.6942    0.0000 </r>
        <r>    1.6948    0.0000 </r>
        <r>    2.2978    0.0000 </r>
        <r>    2.3072    0.0000 </r>
        <r>    2.3127    0.0000 </r>
        <r>    2.3765    0.0000 </r>
        <r>    2.3814    0.0000 </r>
        <r>    3.1111    0.0000 </r>
        <r>    3.1188    0.0000 </r>
        <r>    3.2822    0.0000 </r>
        <r>    3.2835    0.0000 </r>
        <r>    3.4228    0.0000 </r>
        <r>    3.4591    0.0000 </r>
        <r>    3.5709    0.0000 </r>
        <r>    3.5715    0.0000 </r>
        <r>    4.2614    0.0000 </r>
        <r>    4.3829    0.0000 </r>
        <r>    4.5200    0.0000 </r>
        <r>    4.9758    0.0000 </r>
       </set>
      </set>
      <set comment="spin 2">
       <set comment="kpoint 1">
        <r>  -15.0049    1.0000 </r>
        <r>  -15.0049    1.0000 </r>
        <r>  -15.0048    1.0000 </r>
        <r>  -15.0048    1.0000 </r>
        <r>  -15.0048    1.0000 </r>
        <r>   -8.8713    1.0000 </r>
        <r>   -1.5966    0.0000 </r>
        <r>   -1.5965    0.0000 </r>
        <r>   -1.5960    0.0000 </r>
        <r>    0.0449    0.0000 </r>
        <r>    1.3738    0.0000 </r>
        <r>    1.3741    0.0000 </r>
        <r>    1.8004    0.0000 </r>
        <r>    1.8781    0.0000 </r>
        <r>    1.8785    0.0000 </r>
        <r>    1.8813    0.0000 </r>
        <r>    2.4313    0.0000 </r>
        <r>    2.4314    0.0000 </r>
        <r>    2.4324    0.0000 </r>
        <r>    2.9207    0.0000 </r>
        <r>    2.9216    0.0000 </r>
        <r>    2.9954    0.0000 </r>
        <r>    2.9965    0.0000 </r>
        <r>    3.0016    0.0000 </r>
        <r>    3.7184    0.0000 </r>
        <r>    3.7310    0.0000 </r>
        <r>    3.9098    0.0000 </r>
        <r>    3.9880    0.0000 </r>
        <r>    4.0298    0.0000 </r>
        <r>    4.1029    0.0000 </r>
        <r>    4.1687    0.0000 </r>
        <r>    4.2509    0.0000 </r>
        <r>    4.8074    0.0000 </r>
        <r>    4.9051    0.0000 </r>
        <r>    4.9477    0.0000 </r>
        <r>    4.9659    0.0000 </r>
       </set>
      </set>
     </set>
    </array>
   </eigenvalues>
   <array>
    <dimension dim="1">ion</dimension>
    <dimension dim="2">band</dimension>
    <dimension dim="3">kpoint</dimension>
    <dimension dim="4">spin</dimension>
    <field>    s</field>
    <field>   py</field>
    <field>   pz</field>
    <field>   px</field>
    <field>  dxy</field>
    <field>  dyz</field>
    <field>  dz2</field>
    <field>  dxz</field>
    <field>x2-y2</field>
    <set>
     <set comment="spin1">
      <set comment="kpoint 1">
       <set comment="band 1">
        <r>  0.0000  0.0000  0.0000  0.0000  0.3091  0.0197  0.0000  0.6346  0.0000 </r>
       </set>
       <set comment="band 2">
        <r>  0.0000  0.0000  0.0000  0.0000  0.6249  0.0897  0.0000  0.2489  0.0000 </r>
       </set>
       <set comment="band 3">
        <r>  0.0000  0.0000  0.0000  0.0000  0.0295  0.8540  0.0000  0.0800  0.0000 </r>
       </set>
       <set comment="band 4">
        <r>  0.0000  0.0000  0.0000  0.0000  0.0000  0.0000  0.7384  0.0000  0.2251 </r>
       </set>
       <set comment="band 5">
        <r>  0.0000  0.0000  0.0000  0.0000  0.0000  0.0000  0.2251  0.0000  0.7384 </r>
       </set>
       <set comment="band 6">
        <r>  0.6200  0.0000  0.0000  0.0000  0.0000  0.0000  0.0000  0.0000  0.0000 </r>
       </set>
       <set comment="band 7">
        <r>  0.0000  0.1839  0.0422  0.0132  0.0000  0.0000  0.0000  0.0000  0.0000 </r>
       </set>
       <set comment="band 8">
        <r>  0.0000  0.0155  0.1605  0.0633  0.0000  0.0000  0.0000  0.0000  0.0000 </r>
       </set>
       <set comment="band 9">
        <r>  0.0000  0.0393  0.0359  0.1599  0.0000  0.0000  0.0000  0.0000  0.0000 </r>
       </set>
       <set comment="band 10">
        <r>  0.0232  0.0000  0.0000  0.0000  0.0000  0.0000  0.0000  0.0000  0.0000 </r>
       </set>
       <set comment="band 11">
        <r>  0.0000  0.0000  0.0000  0.0000  0.0000  0.0000  0.0034  0.0000  0.0005 </r>
       </set>
       <set comment="band 12">
        <r>  0.0000  0.0000  0.0000  0.0000  0.0000  0.0000  0.0005  0.0000  0.0034 </r>
       </set>
       <set comment="band 13">
        <r>  0.0000  0.0055  0.0251  0.0059  0.0000  0.0000  0.0000  0.0000  0.0000 </r>
       </set>
       <set comment="band 14">
        <r>  0.0067  0.0175  0.0000  0.0126  0.0000  0.0000  0.0000  0.0000  0.0000 </r>
       </set>
       <set comment="band 15">
        <r>  0.0057  0.0020  0.0089  0.0198  0.0001  0.0000  0.0000  0.0000  0.0000 </r>
       </set>
       <set comment="band 16">
        <r>  0.0161  0.0122  0.0037  0.0001  0.0000  0.0000  0.0000  0.0000  0.0000 </r>
       </set>
       <set comment="band 17">
        <r>  0.0000  0.0000  0.0000  0.0004  0.0026  0.0086  0.0000  0.0002  0.0000 </r>
       </set>
       <set comment="band 18">
        <r>  0.0000  0.0001  0.0000  0.0001  0.0085  0.0020  0.0000  0.0010  0.0000 </r>
       </set>
       <set comment="band 19">
        <r>  0.0000  0.0000  0.0000  0.0000  0.0004  0.0008  0.0000  0.0104  0.0000 </r>
       </set>
       <set comment="band 20">
        <r>  0.0000  0.0000  0.0000  0.0002  0.0000  0.0000  0.0001  0.0000  0.0000 </r>
       </set>
       <set comment="band 21">
        <r>  0.0000  0.0002  0.0001  0.0003  0.0000  0.0000  0.0000  0.0000  0.0000 </r>
       </set>
       <set comment="band 22">
        <r>  0.0001  0.0004  0.0001  0.0011  0.0000  0.0000  0.0001  0.0000  0.0000 </r>
       </set>
       <set comment="band 23">
        <r>  0.0000  0.0000  0.0000  0.0000  0.0000  0.0000  0.0039  0.0000  0.0000 </r>
       </set>
       <set comment="band 24">
        <r>  0.0000  0.0000  0.0000  0.0000  0.0000  0.0000  0.0000  0.0000  0.0041 </r>
       </set>
       <set comment="band 25">
        <r>  0.0002  0.0049  0.0070  0.0413  0.0000  0.0000  0.0000  0.0000  0.0000 </r>
       </set>
       <set comment="band 26">
        <r>  0.0022  0.0021  0.0373  0.0095  0.0001  0.0000  0.0000  0.0000  0.0000 </r>
       </set>
       <set comment="band 27">
        <r>  0.0010  0.0291  0.0027  0.0005  0.0003  0.0005  0.0000  0.0017  0.0000 </r>
       </set>
       <set comment="band 28">
        <r>  0.0335  0.0021  0.0014  0.0022  0.0000  0.0000  0.0000  0.0000  0.0000 </r>
       </set>
       <set comment="band 29">
        <r>  0.0004  0.0148  0.0023  0.0006  0.0005  0.0004  0.0000  0.0039  0.0000 </r>
       </set>
       <set comment="band 30">
        <r>  0.0002  0.0018  0.0000  0.0001  0.0000  0.0000  0.0005  0.0001  0.0001 </r>
       </set>
       <set comment="band 31">
        <r>  0.0001  0.0002  0.0002  0.0002  0.0050  0.0023  0.0000  0.0001  0.0000 </r>
       </set>
       <set comment="band 32">
        <r>  0.0000  0.0001  0.0002  0.0000  0.0015  0.0042  0.0000  0.0016  0.0000 </r>
       </set>
       <set comment="band 33">
        <r>  0.0022  0.0062  0.0000  0.0032  0.0000  0.0001  0.0132  0.0000  0.0009 </r>
       </set>
       <set comment="band 34">
        <r>  0.0014  0.0004  0.0002  0.0001  0.0000  0.0000  0.0040  0.0000  0.0241 </r>
       </set>
       <set comment="band 35">
        <r>  0.0084  0.0010  0.0100  0.0001  0.0028  0.0001  0.0055  0.0002  0.0008 </r>
       </set>
       <set comment="band 36">
        <r>  0.0005  0.0035  0.0062  0.0025  0.0031  0.0018  0.0006  0.0034  0.0001 </r>
       </set>
      </set>
     </set>
     <set comment="spin2">
      <set comment="kpoint 1">
       <set comment="band 1">
        <r>  0.0000  0.0000  0.0000  0.0000  0.0000  0.0000  0.7718  0.0000  0.1931 </r>
       </set>
       <set comment="band 2">
        <r>  0.0000  0.0000  0.0000  0.0000  0.0000  0.0000  0.1931  0.0000  0.7718 </r>
       </set>
       <set comment="band 3">
        <r>  0.0000  0.0000  0.0000  0.0000  0.0464  0.2867  0.0000  0.6318  0.0000 </r>
       </set>
       <set comment="band 4">
        <r>  0.0000  0.0000  0.0000  0.0000  0.7483  0.0586  0.0000  0.1580  0.0000 </r>
       </set>
       <set comment="band 5">
        <r>  0.0000  0.0000  0.0000  0.0000  0.1702  0.6197  0.0000  0.1751  0.0000 </r>
       </set>
       <set comment="band 6">
        <r>  0.6291  0.0000  0.0000  0.0000  0.0000  0.0000  0.0000  0.0000  0.0000 </r>
       </set>
       <set comment="band 7">
        <r>  0.0000  0.0178  0.2251  0.0002  0.0000  0.0000  0.0000  0.0000  0.0000 </r>
       </set>
       <set comment="band 8">
        <r>  0.0000  0.0170  0.0025  0.2229  0.0000  0.0000  0.0000  0.0000  0.0000 </r>
       </set>
       <set comment="band 9">
        <r>  0.0000  0.2069  0.0153  0.0193  0.0000  0.0000  0.0000  0.0000  0.0000 </r>
       </set>
       <set comment="band 10">
        <r>  0.0217  0.0000  0.0000  0.0000  0.0000  0.0000  0.0000  0.0000  0.0000 </r>
       </set>
       <set comment="band 11">
        <r>  0.0000  0.0000  0.0000  0.0000  0.0000  0.0000  0.0016  0.0000  0.0022 </r>
       </set>
       <set comment="band 12">
        <r>  0.0000  0.0000  0.0000  0.0000  0.0000  0.0000  0.0022  0.0000  0.0016 </r>
       </set>
       <set comment="band 13">
        <r>  0.0290  0.0000  0.0000  0.0000  0.0000  0.0000  0.0000  0.0000  0.0000 </r>
       </set>
       <set comment="band 14">
        <r>  0.0000  0.0001  0.0208  0.0116  0.0000  0.0000  0.0000  0.0000  0.0000 </r>
       </set>
       <set comment="band 15">
        <r>  0.0000  0.0295  0.0008  0.0029  0.0000  0.0000  0.0000  0.0000  0.0000 </r>
       </set>
       <set comment="band 16">
        <r>  0.0000  0.0040  0.0113  0.0181  0.0000  0.0000  0.0000  0.0000  0.0000 </r>
       </set>
       <set comment="band 17">
        <r>  0.0000  0.0000  0.0000  0.0000  0.0012  0.0004  0.0000  0.0106  0.0000 </r>
       </set>
       <set comment="band 18">
        <r>  0.0000  0.0000  0.0000  0.0000  0.0002  0.0118  0.0000  0.0003  0.0000 </r>
       </set>
       <set comment="band 19">
        <r>  0.0000  0.0000  0.0000  0.0000  0.0109  0.0001  0.0000  0.0014  0.0000 </r>
       </set>
       <set comment="band 20">
        <r>  0.0000  0.0000  0.0000  0.0000  0.0000  0.0000  0.0042  0.0000  0.0003 </r>
       </set>
       <set comment="band 21">
        <r>  0.0000  0.0000  0.0000  0.0000  0.0000  0.0000  0.0003  0.0000  0.0041 </r>
       </set>
       <set comment="band 22">
        <r>  0.0000  0.0000  0.0000  0.0000  0.0000  0.0000  0.0000  0.0000  0.0000 </r>
       </set>
       <set comment="band 23">
        <r>  0.0000  0.0000  0.0000  0.0000  0.0000  0.0000  0.0000  0.0000  0.0000 </r>
       </set>
       <set comment="band 24">
        <r>  0.0000  0.0000  0.0002  0.0001  0.0000  0.0000  0.0000  0.0000  0.0000 </r>
       </set>
       <set comment="band 25">
        <r>  0.0002  0.0085  0.0009  0.0426  0.0001  0.0000  0.0000  0.0000  0.0000 </r>
       </set>
       <set comment="band 26">
        <r>  0.0342  0.0003  0.0001  0.0000  0.0000  0.0000  0.0000  0.0000  0.0000 </r>
       </set>
       <set comment="band 27">
        <r>  0.0000  0.0012  0.0306  0.0000  0.0004  0.0007  0.0001  0.0021  0.0000 </r>
       </set>
       <set comment="band 28">
        <r>  0.0000  0.0110  0.0046  0.0091  0.0025  0.0017  0.0000  0.0002  0.0001 </r>
       </set>
       <set comment="band 29">
        <r>  0.0000  0.0015  0.0161  0.0005  0.0040  0.0006  0.0001  0.0005  0.0000 </r>
       </set>
       <set comment="band 30">
        <r>  0.0014  0.0152  0.0003  0.0002  0.0001  0.0008  0.0019  0.0003  0.0000 </r>
       </set>
       <set comment="band 31">
        <r>  0.0000  0.0001  0.0024  0.0002  0.0002  0.0027  0.0000  0.0041  0.0000 </r>
       </set>
       <set comment="band 32">
        <r>  0.0014  0.0049  0.0014  0.0025  0.0001  0.0006  0.0018  0.0002  0.0020 </r>
       </set>
       <set comment="band 33">
        <r>  0.0000  0.0041  0.0111  0.0025  0.0000  0.0001  0.0041  0.0001  0.0059 </r>
       </set>
       <set comment="band 34">
        <r>  0.0006  0.0262  0.0000  0.0004  0.0000  0.0011  0.0006  0.0000  0.0003 </r>
       </set>
       <set comment="band 35">
        <r>  0.0112  0.0011  0.0008  0.0046  0.0000  0.0000  0.0002  0.0000  0.0072 </r>
       </set>
       <set comment="band 36">
        <r>  0.0026  0.0007  0.0004  0.0000  0.0000  0.0000  0.0091  0.0000  0.0151 </r>
       </set>
      </set>
     </set>
    </set>
   </array>
  </projected>
 </calculation>
 <structure name="finalpos" >
  <crystal>
   <varray name="basis" >
    <v>      10.00000000       0.00000000       0.00000000 </v>
    <v>       0.00000000      10.00000000       0.00000000 </v>
    <v>       0.00000000       0.00000000      10.00000000 </v>
   </varray>
   <i name="volume">   1000.00000000 </i>
   <varray name="rec_basis" >
    <v>       0.10000000       0.00000000       0.00000000 </v>
    <v>       0.00000000       0.10000000       0.00000000 </v>
    <v>       0.00000000       0.00000000       0.10000000 </v>
   </varray>
  </crystal>
  <varray name="positions" >
   <v>       0.50000000       0.50000000       0.50000000 </v>
  </varray>
 </structure>
</modeling>
