       N       E                     dE             d eps       ncg     rms          ort
DAV:   1     0.280000310237E+02    0.28000E+02   -0.14232E+03    36   0.107E+02
DAV:   2     0.149654340107E+02   -0.13035E+02   -0.13024E+02    36   0.142E+01
DAV:   3     0.107339423090E+02   -0.42315E+01   -0.41242E+01    36   0.729E+00
DAV:   4     0.525471396391E+01   -0.54792E+01   -0.50543E+01    36   0.750E+00
DAV:   5     0.212958799463E+01   -0.31251E+01   -0.31246E+01    36   0.676E+00
SDA:   6     0.258558689949E+01    0.45600E+00   -0.31414E+01    36   0.785E+01 0.000E+00
DMP:   7     0.495884998105E+00   -0.20897E+01   -0.88111E+00    36   0.127E+01 0.245E+01
DMP:   8    -0.503269360238E-01   -0.54621E+00   -0.62229E+00    36   0.137E+01 0.481E+00
DMP:   9    -0.111383015082E+01   -0.10635E+01   -0.13014E+01    36   0.266E+01 0.155E+01
DMP:  10    -0.137162276808E+01   -0.25779E+00   -0.61685E-01    36   0.107E+00 0.125E+00
DMP:  11    -0.140383718222E+01   -0.32214E-01   -0.18194E-01    36   0.449E-01 0.158E-02
DMP:  12    -0.141610144077E+01   -0.12264E-01   -0.12602E-01    36   0.264E-01 0.135E-01
DMP:  13    -0.142464633242E+01   -0.85449E-02   -0.41560E-02    36   0.628E-02 0.107E-01
DMP:  14    -0.142693783858E+01   -0.22915E-02   -0.93941E-03    36   0.195E-02 0.103E-02
DMP:  15    -0.142749821442E+01   -0.56038E-03   -0.61245E-03    36   0.136E-02 0.451E-03
DMP:  16    -0.142793910322E+01   -0.44089E-03   -0.29768E-03    36   0.487E-03 0.674E-03
DMP:  17    -0.142813278455E+01   -0.19368E-03   -0.84840E-04    36   0.126E-03 0.225E-03
DMP:  18    -0.142818496436E+01   -0.52180E-04   -0.31053E-04    36   0.589E-04 0.490E-04
DMP:  19    -0.142820632854E+01   -0.21364E-04   -0.14850E-04    36   0.261E-04 0.289E-04
