       N       E                     dE             d eps       ncg     rms          ort
DAV:   1     0.253282492610E+03    0.25328E+03   -0.34876E+03    36   0.238E+02
DAV:   2     0.334931574614E+02   -0.21979E+03   -0.21979E+03    36   0.104E+02
DAV:   3     0.157309310676E+01   -0.31920E+02   -0.31914E+02    36   0.489E+01
DAV:   4    -0.199459184960E+01   -0.35677E+01   -0.35459E+01    36   0.193E+01
DAV:   5    -0.230655410455E+01   -0.31196E+00   -0.30907E+00    36   0.567E+00
SDA:   6    -0.123374902272E+01    0.10728E+01   -0.15653E+01    36   0.391E+01 0.000E+00
DMP:   7    -0.138839328095E+01   -0.15464E+00   -0.16158E+01    36   0.516E+01-0.294E+01
DMP:   8    -0.147284764539E+01   -0.84454E-01   -0.19724E+01    36   0.634E+01-0.370E+01
DMP:   9    -0.122131974333E+01    0.25153E+00   -0.33004E+01    36   0.105E+02-0.600E+01
DMP:  10    -0.805255105465E+00    0.41606E+00   -0.48215E+01    36   0.160E+02-0.102E+02
DMP:  11    -0.802577480046E+00    0.26776E-02   -0.40774E+01    36   0.146E+02-0.115E+02
DMP:  12    -0.140991234000E+01   -0.60733E+00   -0.16150E+01    36   0.668E+01-0.693E+01
DMP:  13    -0.189510784947E+01   -0.48520E+00   -0.16750E+00    36   0.999E+00-0.152E+01
DMP:  14    -0.197408198971E+01   -0.78974E-01   -0.51955E-01    36   0.138E+00-0.201E-01
DMP:  15    -0.196868040377E+01    0.54016E-02   -0.52684E-01    36   0.191E+00-0.156E+00
DMP:  16    -0.198860182469E+01   -0.19921E-01   -0.53260E-02    36   0.254E-01-0.317E-01
DMP:  17    -0.199113604065E+01   -0.25342E-02   -0.72264E-02    36   0.183E-01-0.663E-03
DMP:  18    -0.199450449123E+01   -0.33685E-02   -0.21849E-02    36   0.595E-02-0.129E-02
DMP:  19    -0.199622278879E+01   -0.17183E-02   -0.16512E-02    36   0.297E-02 0.304E-02
DMP:  20    -0.199736265620E+01   -0.11399E-02   -0.70723E-03    36   0.119E-02 0.150E-02
DMP:  21    -0.199794876720E+01   -0.58611E-03   -0.42522E-03    36   0.631E-03 0.113E-02
DMP:  22    -0.199827842445E+01   -0.32966E-03   -0.18493E-03    36   0.242E-03 0.577E-03
DMP:  23    -0.199842757670E+01   -0.14915E-03   -0.93065E-04    36   0.125E-03 0.281E-03
DMP:  24    -0.199850147773E+01   -0.73901E-04   -0.39522E-04    36   0.475E-04 0.134E-03
DMP:  25    -0.199853297180E+01   -0.31494E-04   -0.17397E-04    36   0.217E-04 0.571E-04
   1 F= -.19985330E+01 E0= -.19792512E+01  d E =-.199853E+01  mag=     1.0000
