<?xml version="1.0" encoding="ISO-8859-1"?>
<modeling>
 <generator>
  <i name="program" type="string">vasp </i>
  <i name="version" type="string">5.4.4.18Apr17-6-g9f103f2a35  </i>
  <i name="subversion" type="string">(build Nov 08 2019 15:19:53) gamma-only         parallel </i>
  <i name="platform" type="string">LinuxIFC </i>
  <i name="date" type="string">2020 11 30 </i>
  <i name="time" type="string">09:30:53 </i>
 </generator>
 <incar>
  <i type="string" name="PREC">accurate</i>
  <i type="string" name="ALGO"> D</i>
  <i type="int" name="ISPIN">     2</i>
  <i type="int" name="NELM">   300</i>
  <i type="int" name="IBRION">     2</i>
  <i name="EDIFF">      0.00005000</i>
  <i type="int" name="NSW">    99</i>
  <i type="int" name="ISIF">     2</i>
  <i name="ENCUT">    520.00000000</i>
  <v name="MAGMOM">      0.60000000</v>
  <i type="string" name="LREAL"> Auto</i>
  <i type="int" name="ISMEAR">     0</i>
  <i name="SIGMA">      0.05000000</i>
  <i type="logical" name="LWAVE"> F  </i>
  <i type="int" name="LORBIT">    11</i>
  <i type="logical" name="LASPH"> T  </i>
  <v type="int" name="KPOINT_BSE">    -1     0     0     0</v>
  <i type="int" name="NELM">   300</i>
  <i type="logical" name="LASPH"> T  </i>
 </incar>
 <structure name="primitive_cell" >
  <crystal>
   <varray name="basis" >
    <v>      10.00000000       0.00000000       0.00000000 </v>
    <v>       0.00000000      10.00000000       0.00000000 </v>
    <v>       0.00000000       0.00000000      10.00000000 </v>
   </varray>
   <i name="volume">   1000.00000000 </i>
   <varray name="rec_basis" >
    <v>       0.10000000       0.00000000       0.00000000 </v>
    <v>       0.00000000       0.10000000       0.00000000 </v>
    <v>       0.00000000       0.00000000       0.10000000 </v>
   </varray>
  </crystal>
  <varray name="positions" >
   <v>      -0.50000000      -0.50000000      -0.50000000 </v>
  </varray>
 </structure>
 <varray name="primitive_index" >
  <v type="int" >        1 </v>
 </varray>
 <kpoints>
  <generation param="Gamma">
   <v type="int" name="divisions">       1        1        1 </v>
   <v name="usershift">      0.00000000       0.00000000       0.00000000 </v>
   <v name="genvec1">      1.00000000       0.00000000       0.00000000 </v>
   <v name="genvec2">      0.00000000       1.00000000       0.00000000 </v>
   <v name="genvec3">      0.00000000       0.00000000       1.00000000 </v>
   <v name="shift">      0.00000000       0.00000000       0.00000000 </v>
  </generation>
  <varray name="kpointlist" >
   <v>       0.00000000       0.00000000       0.00000000 </v>
  </varray>
  <varray name="weights" >
   <v>       1.00000000 </v>
  </varray>
 </kpoints>
 <parameters>
  <separator name="general" >
   <i type="string" name="SYSTEM">unknown system</i>
   <i type="logical" name="LCOMPAT"> F  </i>
  </separator>
  <separator name="electronic" >
   <i type="string" name="PREC">accura</i>
   <i name="ENMAX">    520.00000000</i>
   <i name="ENAUG">    443.06300000</i>
   <i name="EDIFF">      0.00005000</i>
   <i type="int" name="IALGO">    53</i>
   <i type="int" name="IWAVPR">    11</i>
   <i type="int" name="NBANDS">    36</i>
   <i name="NELECT">     11.00000000</i>
   <i type="int" name="TURBO">     0</i>
   <i type="int" name="IRESTART">     0</i>
   <i type="int" name="NREBOOT">     0</i>
   <i type="int" name="NMIN">     0</i>
   <i name="EREF">      0.00000000</i>
   <separator name="electronic smearing" >
    <i type="int" name="ISMEAR">     0</i>
    <i name="SIGMA">      0.05000000</i>
    <i name="KSPACING">      0.50000000</i>
    <i type="logical" name="KGAMMA"> T  </i>
   </separator>
   <separator name="electronic projectors" >
    <i type="logical" name="LREAL"> T  </i>
    <v name="ROPT">     -0.00025000</v>
    <i type="int" name="LMAXPAW">  -100</i>
    <i type="int" name="LMAXMIX">     2</i>
    <i type="logical" name="NLSPLINE"> F  </i>
   </separator>
   <separator name="electronic startup" >
    <i type="int" name="ISTART">     0</i>
    <i type="int" name="ICHARG">     2</i>
    <i type="int" name="INIWAV">     1</i>
   </separator>
   <separator name="electronic spin" >
    <i type="int" name="ISPIN">     2</i>
    <i type="logical" name="LNONCOLLINEAR"> F  </i>
    <v name="MAGMOM">      0.60000000</v>
    <i name="NUPDOWN">     -1.00000000</i>
    <i type="logical" name="LSORBIT"> F  </i>
    <v name="SAXIS">      0.00000000      0.00000000      1.00000000</v>
    <i type="logical" name="LSPIRAL"> F  </i>
    <v name="QSPIRAL">      0.00000000      0.00000000      0.00000000</v>
    <i type="logical" name="LZEROZ"> F  </i>
   </separator>
   <separator name="electronic exchange-correlation" >
    <i type="logical" name="LASPH"> T  </i>
    <i type="logical" name="LMETAGGA"> F  </i>
   </separator>
   <separator name="electronic convergence" >
    <i type="int" name="NELM">   300</i>
    <i type="int" name="NELMDL">    -5</i>
    <i type="int" name="NELMIN">     2</i>
    <i name="ENINI">    520.00000000</i>
    <separator name="electronic convergence detail" >
     <i type="logical" name="LDIAG"> T  </i>
     <i type="logical" name="LSUBROT"> F  </i>
     <i name="WEIMIN">      0.00100000</i>
     <i name="EBREAK">      0.00000035</i>
     <i name="DEPER">      0.30000000</i>
     <i type="int" name="NRMM">     4</i>
     <i name="TIME">      0.40000000</i>
    </separator>
   </separator>
   <separator name="electronic mixer" >
    <i name="AMIX">      0.40000000</i>
    <i name="BMIX">      1.00000000</i>
    <i name="AMIN">      0.10000000</i>
    <i name="AMIX_MAG">      1.60000000</i>
    <i name="BMIX_MAG">      1.00000000</i>
    <separator name="electronic mixer details" >
     <i type="int" name="IMIX">     4</i>
     <i type="logical" name="MIXFIRST"> F  </i>
     <i type="int" name="MAXMIX">   -45</i>
     <i name="WC">    100.00000000</i>
     <i type="int" name="INIMIX">     1</i>
     <i type="int" name="MIXPRE">     1</i>
     <i type="int" name="MREMOVE">     5</i>
    </separator>
   </separator>
   <separator name="electronic dipolcorrection" >
    <i type="logical" name="LDIPOL"> F  </i>
    <i type="logical" name="LMONO"> F  </i>
    <i type="int" name="IDIPOL">     0</i>
    <i name="EPSILON">      1.00000000</i>
    <v name="DIPOL">   -100.00000000   -100.00000000   -100.00000000</v>
    <i name="EFIELD">      0.00000000</i>
   </separator>
  </separator>
  <separator name="grids" >
   <i type="int" name="NGX">    80</i>
   <i type="int" name="NGY">    80</i>
   <i type="int" name="NGZ">    80</i>
   <i type="int" name="NGXF">   160</i>
   <i type="int" name="NGYF">   160</i>
   <i type="int" name="NGZF">   160</i>
   <i type="logical" name="ADDGRID"> F  </i>
  </separator>
  <separator name="ionic" >
   <i type="int" name="NSW">    99</i>
   <i type="int" name="IBRION">     2</i>
   <i type="int" name="MDALGO">     0</i>
   <i type="int" name="ISIF">     2</i>
   <i name="PSTRESS">      0.00000000</i>
   <i name="EDIFFG">      0.00050000</i>
   <i type="int" name="NFREE">     1</i>
   <i name="POTIM">      0.50000000</i>
   <i name="SMASS">     -3.00000000</i>
   <i name="SCALEE">      1.00000000</i>
  </separator>
  <separator name="ionic md" >
   <i name="TEBEG">      0.00010000</i>
   <i name="TEEND">      0.00010000</i>
   <i type="int" name="NBLOCK">     1</i>
   <i type="int" name="KBLOCK">    99</i>
   <i type="int" name="NPACO">   256</i>
   <i name="APACO">     16.00000000</i>
  </separator>
  <separator name="symmetry" >
   <i type="int" name="ISYM">     2</i>
   <i name="SYMPREC">      0.00001000</i>
  </separator>
  <separator name="dos" >
   <i type="int" name="LORBIT">    11</i>
   <v name="RWIGS">     -1.00000000</v>
   <i type="int" name="NEDOS">   301</i>
   <i name="EMIN">     10.00000000</i>
   <i name="EMAX">    -10.00000000</i>
   <i name="EFERMI">      0.00000000</i>
  </separator>
  <separator name="writing" >
   <i type="int" name="NWRITE">     2</i>
   <i type="logical" name="LWAVE"> F  </i>
   <i type="logical" name="LDOWNSAMPLE"> F  </i>
   <i type="logical" name="LCHARG"> T  </i>
   <i type="logical" name="LPARD"> F  </i>
   <i type="logical" name="LVTOT"> F  </i>
   <i type="logical" name="LVHAR"> F  </i>
   <i type="logical" name="LELF"> F  </i>
   <i type="logical" name="LOPTICS"> F  </i>
   <v name="STM">      0.00000000      0.00000000      0.00000000      0.00000000      0.00000000      0.00000000      0.00000000</v>
  </separator>
  <separator name="performance" >
   <i type="int" name="NPAR">    36</i>
   <i type="int" name="NSIM">     4</i>
   <i type="int" name="NBLK">    -1</i>
   <i type="logical" name="LPLANE"> T  </i>
   <i type="logical" name="LSCALAPACK"> T  </i>
   <i type="logical" name="LSCAAWARE"> F  </i>
   <i type="logical" name="LSCALU"> F  </i>
   <i type="logical" name="LASYNC"> F  </i>
   <i type="logical" name="LORBITALREAL"> F  </i>
  </separator>
  <separator name="miscellaneous" >
   <i type="int" name="IDIOT">     3</i>
   <i type="int" name="ISPECIAL">     0</i>
   <i type="logical" name="LMUSIC"> F  </i>
   <v name="POMASS">     44.95600000</v>
   <v name="DARWINR">      0.00000000</v>
   <v name="DARWINV">      1.00000000</v>
   <i type="logical" name="LCORR"> T  </i>
  </separator>
  <i type="logical" name="GGA_COMPAT"> T  </i>
  <i type="logical" name="LBERRY"> F  </i>
  <i type="int" name="ICORELEVEL">     0</i>
  <i type="logical" name="LDAU"> F  </i>
  <i type="int" name="I_CONSTRAINED_M">     0</i>
  <separator name="electronic exchange-correlation" >
   <i type="string" name="GGA">--</i>
   <i type="int" name="VOSKOWN">     0</i>
   <i type="logical" name="LHFCALC"> F  </i>
   <i type="string" name="PRECFOCK"></i>
   <i type="logical" name="LSYMGRAD"> F  </i>
   <i type="logical" name="LHFONE"> F  </i>
   <i type="logical" name="LRHFCALC"> F  </i>
   <i type="logical" name="LTHOMAS"> F  </i>
   <i type="logical" name="LMODELHF"> F  </i>
   <i name="ENCUT4O">     -1.00000000</i>
   <i type="int" name="EXXOEP">     0</i>
   <i type="int" name="FOURORBIT">     0</i>
   <i name="AEXX">      0.00000000</i>
   <i name="HFALPHA">      0.00000000</i>
   <i name="MCALPHA">      0.00000000</i>
   <i name="ALDAX">      1.00000000</i>
   <i name="AGGAX">      1.00000000</i>
   <i name="ALDAC">      1.00000000</i>
   <i name="AGGAC">      1.00000000</i>
   <i type="int" name="NKREDX">     1</i>
   <i type="int" name="NKREDY">     1</i>
   <i type="int" name="NKREDZ">     1</i>
   <i type="logical" name="SHIFTRED"> F  </i>
   <i type="logical" name="ODDONLY"> F  </i>
   <i type="logical" name="EVENONLY"> F  </i>
   <i type="int" name="LMAXFOCK">     0</i>
   <i type="int" name="NMAXFOCKAE">     0</i>
   <i type="logical" name="LFOCKAEDFT"> F  </i>
   <i name="HFSCREEN">      0.00000000</i>
   <i name="HFSCREENC">      0.00000000</i>
   <i type="int" name="NBANDSGWLOW">     0</i>
  </separator>
  <separator name="vdW DFT" >
   <i type="logical" name="LUSE_VDW"> F  </i>
   <i name="Zab_VDW">     -0.84910000</i>
   <i name="PARAM1">      0.12340000</i>
   <i name="PARAM2">      1.00000000</i>
   <i name="PARAM3">      0.00000000</i>
  </separator>
  <separator name="model GW" >
   <i type="int" name="MODEL_GW">     0</i>
   <i name="MODEL_EPS0">    600.00000000</i>
   <i name="MODEL_ALPHA">      1.00000000</i>
  </separator>
  <separator name="linear response parameters" >
   <i type="logical" name="LEPSILON"> F  </i>
   <i type="logical" name="LRPA"> F  </i>
   <i type="logical" name="LNABLA"> F  </i>
   <i type="logical" name="LVEL"> F  </i>
   <i type="int" name="KINTER">     0</i>
   <i name="CSHIFT">      0.10000000</i>
   <i name="OMEGAMAX">     -1.00000000</i>
   <i name="DEG_THRESHOLD">      0.00200000</i>
   <i name="RTIME">     -0.10000000</i>
   <i name="WPLASMAI">      0.00000000</i>
   <v name="DFIELD">      0.00000000      0.00000000      0.00000000</v>
   <v name="WPLASMA">      0.00000000      0.00000000      0.00000000      0.00000000      0.00000000      0.00000000      0.00000000      0.00000000      0.00000000</v>
  </separator>
  <separator name="orbital magnetization" >
   <i type="logical" name="NUCIND"> F  </i>
   <v name="MAGPOS">      0.00000000      0.00000000      0.00000000</v>
   <i type="logical" name="LNICSALL"> T  </i>
   <i type="logical" name="ORBITALMAG"> F  </i>
   <i type="logical" name="LMAGBLOCH"> F  </i>
   <i type="logical" name="LCHIMAG"> F  </i>
   <i type="logical" name="LGAUGE"> T  </i>
   <i type="int" name="MAGATOM">     0</i>
   <v name="MAGDIPOL">      0.00000000      0.00000000      0.00000000</v>
   <v name="AVECCONST">      0.00000000      0.00000000      0.00000000</v>
  </separator>
  <separator name="response functions" >
   <i type="logical" name="LADDER"> F  </i>
   <i type="logical" name="LRPAFORCE"> F  </i>
   <i type="logical" name="LFXC"> F  </i>
   <i type="logical" name="LHARTREE"> T  </i>
   <i type="int" name="IBSE">     0</i>
   <v type="int" name="KPOINT">    -1     0     0     0</v>
   <i type="logical" name="LTCTE"> F  </i>
   <i type="logical" name="LTETE"> F  </i>
   <i type="logical" name="LTRIPLET"> F  </i>
   <i type="logical" name="LFXCEPS"> F  </i>
   <i type="logical" name="LFXHEG"> F  </i>
   <i type="int" name="NATURALO">     2</i>
   <i type="logical" name="L2ORDER"> F  </i>
   <i type="logical" name="LMP2LT"> F  </i>
   <i type="logical" name="LUSEW"> F  </i>
   <i name="ENCUTGW">     -2.00000000</i>
   <i name="ENCUTGWSOFT">     -2.00000000</i>
   <i name="ENCUTLF">     -1.00000000</i>
   <i type="int" name="LMAXMP2">    -1</i>
   <i name="SCISSOR">      0.00000000</i>
   <i type="int" name="NOMEGA">     0</i>
   <i type="int" name="NOMEGAR">     0</i>
   <i type="int" name="NBANDSGW">    -1</i>
   <i type="int" name="NBANDSO">    -1</i>
   <i type="int" name="NBANDSV">    -1</i>
   <i type="int" name="NELM">   300</i>
   <i type="int" name="NELMHF">     1</i>
   <i type="int" name="DIM">     3</i>
   <i type="int" name="ANTIRES">     0</i>
   <i name="OMEGAMAX">    -30.00000000</i>
   <i name="OMEGAMIN">    -30.00000000</i>
   <i name="OMEGATL">   -200.00000000</i>
   <i type="int" name="OMEGAGRID">   140</i>
   <i name="CSHIFT">     -0.10000000</i>
   <i type="logical" name="SELFENERGY"> F  </i>
   <i type="logical" name="LSPECTRAL"> F  </i>
   <i type="logical" name="LSPECTRALGW"> F  </i>
   <i type="logical" name="LSINGLES"> F  </i>
   <i type="logical" name="LFERMIGW"> F  </i>
   <i type="logical" name="ODDONLYGW"> F  </i>
   <i type="logical" name="EVENONLYGW"> F  </i>
   <i type="int" name="NKREDLFX">     1</i>
   <i type="int" name="NKREDLFY">     1</i>
   <i type="int" name="NKREDLFZ">     1</i>
   <i type="int" name="MAXMEM">  2800</i>
   <i type="int" name="TELESCOPE">     0</i>
   <i type="int" name="TAUPAR">     1</i>
   <i type="int" name="OMEGAPAR">    -1</i>
   <i name="LAMBDA">      1.00000000</i>
  </separator>
  <separator name="External order field" >
   <i name="OFIELD_KAPPA">      0.00000000</i>
   <v name="OFIELD_K">      0.00000000      0.00000000      0.00000000</v>
   <i name="OFIELD_Q6_NEAR">      0.00000000</i>
   <i name="OFIELD_Q6_FAR">      0.00000000</i>
   <i name="OFIELD_A">      0.00000000</i>
  </separator>
 </parameters>
 <atominfo>
  <atoms>       1 </atoms>
  <types>       1 </types>
  <array name="atoms" >
   <dimension dim="1">ion</dimension>
   <field type="string">element</field>
   <field type="int">atomtype</field>
   <set>
    <rc><c>Sc</c><c>   1</c></rc>
   </set>
  </array>
  <array name="atomtypes" >
   <dimension dim="1">type</dimension>
   <field type="int">atomspertype</field>
   <field type="string">element</field>
   <field>mass</field>
   <field>valence</field>
   <field type="string">pseudopotential</field>
   <set>
    <rc><c>   1</c><c>Sc</c><c>     44.95600000</c><c>     11.00000000</c><c>  PAW_PBE Sc_sv 07Sep2000               </c></rc>
   </set>
  </array>
 </atominfo>
 <structure name="initialpos" >
  <crystal>
   <varray name="basis" >
    <v>      10.00000000       0.00000000       0.00000000 </v>
    <v>       0.00000000      10.00000000       0.00000000 </v>
    <v>       0.00000000       0.00000000      10.00000000 </v>
   </varray>
   <i name="volume">   1000.00000000 </i>
   <varray name="rec_basis" >
    <v>       0.10000000       0.00000000       0.00000000 </v>
    <v>       0.00000000       0.10000000       0.00000000 </v>
    <v>       0.00000000       0.00000000       0.10000000 </v>
   </varray>
  </crystal>
  <varray name="positions" >
   <v>       0.50000000       0.50000000       0.50000000 </v>
  </varray>
 </structure>
 <calculation>
  <scstep>
   <time name="total">    1.17    1.18</time>
   <energy>
    <i name="alphaZ">      1.48629932 </i>
    <i name="ewald">   -247.18170407 </i>
    <i name="hartreedc">   -792.71777237 </i>
    <i name="XCdc">     49.48672855 </i>
    <i name="pawpsdc">    985.42419685 </i>
    <i name="pawaedc">   -976.82798795 </i>
    <i name="eentropy">     -0.01487634 </i>
    <i name="bandstr">    -39.65665581 </i>
    <i name="atom">   1273.28426442 </i>
    <i name="e_fr_energy">    253.28249261 </i>
    <i name="e_wo_entrp">    253.29736895 </i>
    <i name="e_0_energy">    253.28993078 </i>
   </energy>
  </scstep>
  <scstep>
   <time name="total">    0.58    0.59</time>
   <energy>
    <i name="e_fr_energy">     33.49315746 </i>
    <i name="e_wo_entrp">     33.50708572 </i>
    <i name="e_0_energy">     33.50012159 </i>
   </energy>
  </scstep>
  <scstep>
   <time name="total">    0.45    0.45</time>
   <energy>
    <i name="e_fr_energy">      1.57309311 </i>
    <i name="e_wo_entrp">      1.57906148 </i>
    <i name="e_0_energy">      1.57607729 </i>
   </energy>
  </scstep>
  <scstep>
   <time name="total">    0.58    0.58</time>
   <energy>
    <i name="e_fr_energy">     -1.99459185 </i>
    <i name="e_wo_entrp">     -1.96550713 </i>
    <i name="e_0_energy">     -1.98004949 </i>
   </energy>
  </scstep>
  <scstep>
   <time name="total">    0.82    0.82</time>
   <energy>
    <i name="e_fr_energy">     -2.30655410 </i>
    <i name="e_wo_entrp">     -2.27016941 </i>
    <i name="e_0_energy">     -2.28836176 </i>
   </energy>
  </scstep>
  <scstep>
   <time name="total">    1.18    1.18</time>
   <energy>
    <i name="e_fr_energy">     -1.23374902 </i>
    <i name="e_wo_entrp">     -1.19782619 </i>
    <i name="e_0_energy">     -1.21578761 </i>
   </energy>
  </scstep>
  <scstep>
   <time name="total">    1.11    1.11</time>
   <energy>
    <i name="e_fr_energy">     -1.38839328 </i>
    <i name="e_wo_entrp">     -1.35491511 </i>
    <i name="e_0_energy">     -1.37165420 </i>
   </energy>
  </scstep>
  <scstep>
   <time name="total">    1.12    1.12</time>
   <energy>
    <i name="e_fr_energy">     -1.47284765 </i>
    <i name="e_wo_entrp">     -1.44220355 </i>
    <i name="e_0_energy">     -1.45752560 </i>
   </energy>
  </scstep>
  <scstep>
   <time name="total">    1.11    1.11</time>
   <energy>
    <i name="e_fr_energy">     -1.22131974 </i>
    <i name="e_wo_entrp">     -1.19188542 </i>
    <i name="e_0_energy">     -1.20660258 </i>
   </energy>
  </scstep>
  <scstep>
   <time name="total">    1.11    1.11</time>
   <energy>
    <i name="e_fr_energy">     -0.80525511 </i>
    <i name="e_wo_entrp">     -0.77623777 </i>
    <i name="e_0_energy">     -0.79074644 </i>
   </energy>
  </scstep>
  <scstep>
   <time name="total">    1.11    1.11</time>
   <energy>
    <i name="e_fr_energy">     -0.80257748 </i>
    <i name="e_wo_entrp">     -0.77356594 </i>
    <i name="e_0_energy">     -0.78807171 </i>
   </energy>
  </scstep>
  <scstep>
   <time name="total">    1.10    1.10</time>
   <energy>
    <i name="e_fr_energy">     -1.40991234 </i>
    <i name="e_wo_entrp">     -1.38061657 </i>
    <i name="e_0_energy">     -1.39526446 </i>
   </energy>
  </scstep>
  <scstep>
   <time name="total">    1.11    1.11</time>
   <energy>
    <i name="e_fr_energy">     -1.89510785 </i>
    <i name="e_wo_entrp">     -1.86512841 </i>
    <i name="e_0_energy">     -1.88011813 </i>
   </energy>
  </scstep>
  <scstep>
   <time name="total">    1.10    1.11</time>
   <energy>
    <i name="e_fr_energy">     -1.97408199 </i>
    <i name="e_wo_entrp">     -1.94289039 </i>
    <i name="e_0_energy">     -1.95848619 </i>
   </energy>
  </scstep>
  <scstep>
   <time name="total">    1.11    1.11</time>
   <energy>
    <i name="e_fr_energy">     -1.96868040 </i>
    <i name="e_wo_entrp">     -1.93579959 </i>
    <i name="e_0_energy">     -1.95224000 </i>
   </energy>
  </scstep>
  <scstep>
   <time name="total">    1.12    1.12</time>
   <energy>
    <i name="e_fr_energy">     -1.98860182 </i>
    <i name="e_wo_entrp">     -1.95389830 </i>
    <i name="e_0_energy">     -1.97125006 </i>
   </energy>
  </scstep>
  <scstep>
   <time name="total">    1.10    1.10</time>
   <energy>
    <i name="e_fr_energy">     -1.99113604 </i>
    <i name="e_wo_entrp">     -1.95488949 </i>
    <i name="e_0_energy">     -1.97301277 </i>
   </energy>
  </scstep>
  <scstep>
   <time name="total">    1.10    1.10</time>
   <energy>
    <i name="e_fr_energy">     -1.99450449 </i>
    <i name="e_wo_entrp">     -1.95718756 </i>
    <i name="e_0_energy">     -1.97584602 </i>
   </energy>
  </scstep>
  <scstep>
   <time name="total">    1.11    1.11</time>
   <energy>
    <i name="e_fr_energy">     -1.99622279 </i>
    <i name="e_wo_entrp">     -1.95826986 </i>
    <i name="e_0_energy">     -1.97724633 </i>
   </energy>
  </scstep>
  <scstep>
   <time name="total">    1.11    1.11</time>
   <energy>
    <i name="e_fr_energy">     -1.99736266 </i>
    <i name="e_wo_entrp">     -1.95907484 </i>
    <i name="e_0_energy">     -1.97821875 </i>
   </energy>
  </scstep>
  <scstep>
   <time name="total">    1.10    1.10</time>
   <energy>
    <i name="e_fr_energy">     -1.99794877 </i>
    <i name="e_wo_entrp">     -1.95950078 </i>
    <i name="e_0_energy">     -1.97872477 </i>
   </energy>
  </scstep>
  <scstep>
   <time name="total">    1.10    1.10</time>
   <energy>
    <i name="e_fr_energy">     -1.99827842 </i>
    <i name="e_wo_entrp">     -1.95975964 </i>
    <i name="e_0_energy">     -1.97901903 </i>
   </energy>
  </scstep>
  <scstep>
   <time name="total">    1.11    1.11</time>
   <energy>
    <i name="e_fr_energy">     -1.99842758 </i>
    <i name="e_wo_entrp">     -1.95987956 </i>
    <i name="e_0_energy">     -1.97915357 </i>
   </energy>
  </scstep>
  <scstep>
   <time name="total">    1.13    1.14</time>
   <energy>
    <i name="e_fr_energy">     -1.99850148 </i>
    <i name="e_wo_entrp">     -1.95994212 </i>
    <i name="e_0_energy">     -1.97922180 </i>
   </energy>
  </scstep>
  <scstep>
   <time name="total">    1.19    1.19</time>
   <energy>
    <i name="alphaZ">      1.48629932 </i>
    <i name="ewald">   -247.18170407 </i>
    <i name="hartreedc">   -762.30213312 </i>
    <i name="XCdc">     48.30471232 </i>
    <i name="pawpsdc">    971.33012626 </i>
    <i name="pawaedc">   -966.47761288 </i>
    <i name="eentropy">     -0.03856350 </i>
    <i name="bandstr">   -320.40392587 </i>
    <i name="atom">   1273.28426442 </i>
    <i name="e_fr_energy">     -1.99853297 </i>
    <i name="e_wo_entrp">     -1.95996947 </i>
    <i name="e_0_energy">     -1.97925122 </i>
   </energy>
  </scstep>
  <structure>
   <crystal>
    <varray name="basis" >
     <v>      10.00000000       0.00000000       0.00000000 </v>
     <v>       0.00000000      10.00000000       0.00000000 </v>
     <v>       0.00000000       0.00000000      10.00000000 </v>
    </varray>
    <i name="volume">   1000.00000000 </i>
    <varray name="rec_basis" >
     <v>       0.10000000       0.00000000       0.00000000 </v>
     <v>       0.00000000       0.10000000       0.00000000 </v>
     <v>       0.00000000       0.00000000       0.10000000 </v>
    </varray>
   </crystal>
   <varray name="positions" >
    <v>       0.50000000       0.50000000       0.50000000 </v>
   </varray>
  </structure>
  <varray name="forces" >
   <v>       0.00000000       0.00000000       0.00000000 </v>
  </varray>
  <varray name="stress" >
   <v>      -0.12705492      -0.00000000       0.00000000 </v>
   <v>       0.00000000      -0.12705492      -0.00000000 </v>
   <v>       0.00000000       0.00000000      -0.12705492 </v>
  </varray>
  <energy>
   <i name="e_fr_energy">     -1.99853297 </i>
   <i name="e_wo_entrp">     -1.97925122 </i>
   <i name="e_0_energy">     -0.03856350 </i>
  </energy>
  <time name="totalsc">   34.43   34.68</time>
  <eigenvalues>
   <array>
    <dimension dim="1">band</dimension>
    <dimension dim="2">kpoint</dimension>
    <dimension dim="3">spin</dimension>
    <field>eigene</field>
    <field>occ</field>
    <set>
     <set comment="spin 1">
      <set comment="kpoint 1">
       <r>  -55.0809    1.0000 </r>
       <r>  -33.6777    1.0000 </r>
       <r>  -33.6777    1.0000 </r>
       <r>  -33.6777    1.0000 </r>
       <r>   -4.0541    1.0000 </r>
       <r>   -3.3993    0.3361 </r>
       <r>   -3.3993    0.3359 </r>
       <r>   -3.3993    0.3280 </r>
       <r>   -3.0393    0.0000 </r>
       <r>   -3.0393    0.0000 </r>
       <r>   -1.2134    0.0000 </r>
       <r>   -1.2131    0.0000 </r>
       <r>   -1.2128    0.0000 </r>
       <r>   -0.2379    0.0000 </r>
       <r>    0.6815    0.0000 </r>
       <r>    0.6815    0.0000 </r>
       <r>    1.4783    0.0000 </r>
       <r>    1.4800    0.0000 </r>
       <r>    1.4873    0.0000 </r>
       <r>    1.7404    0.0000 </r>
       <r>    1.7426    0.0000 </r>
       <r>    1.7516    0.0000 </r>
       <r>    1.7562    0.0000 </r>
       <r>    2.2277    0.0000 </r>
       <r>    2.2573    0.0000 </r>
       <r>    2.2701    0.0000 </r>
       <r>    2.2834    0.0000 </r>
       <r>    2.3563    0.0000 </r>
       <r>    3.4494    0.0000 </r>
       <r>    3.5211    0.0000 </r>
       <r>    3.5356    0.0000 </r>
       <r>    3.5780    0.0000 </r>
       <r>    3.5884    0.0000 </r>
       <r>    3.5969    0.0000 </r>
       <r>    3.6437    0.0000 </r>
       <r>    4.3368    0.0000 </r>
      </set>
     </set>
     <set comment="spin 2">
      <set comment="kpoint 1">
       <r>  -54.3146    1.0000 </r>
       <r>  -32.9108    1.0000 </r>
       <r>  -32.9108    1.0000 </r>
       <r>  -32.9108    1.0000 </r>
       <r>   -3.7897    1.0000 </r>
       <r>   -2.7361    0.0000 </r>
       <r>   -2.7360    0.0000 </r>
       <r>   -2.5083    0.0000 </r>
       <r>   -2.5083    0.0000 </r>
       <r>   -2.5083    0.0000 </r>
       <r>   -1.0664    0.0000 </r>
       <r>   -1.0662    0.0000 </r>
       <r>   -1.0661    0.0000 </r>
       <r>   -0.2303    0.0000 </r>
       <r>    0.6748    0.0000 </r>
       <r>    0.6748    0.0000 </r>
       <r>    1.4766    0.0000 </r>
       <r>    1.4770    0.0000 </r>
       <r>    1.4782    0.0000 </r>
       <r>    1.7694    0.0000 </r>
       <r>    1.8265    0.0000 </r>
       <r>    1.8266    0.0000 </r>
       <r>    1.8269    0.0000 </r>
       <r>    2.2136    0.0000 </r>
       <r>    2.2194    0.0000 </r>
       <r>    2.2312    0.0000 </r>
       <r>    2.3118    0.0000 </r>
       <r>    2.3297    0.0000 </r>
       <r>    3.4990    0.0000 </r>
       <r>    3.4996    0.0000 </r>
       <r>    3.5319    0.0000 </r>
       <r>    3.6026    0.0000 </r>
       <r>    3.6113    0.0000 </r>
       <r>    3.6202    0.0000 </r>
       <r>    3.7079    0.0000 </r>
       <r>    4.2168    0.0000 </r>
      </set>
     </set>
    </set>
   </array>
  </eigenvalues>
  <separator name="orbital magnetization" >
   <v name="MAGDIPOLOUT">      0.00000000      0.00000000      0.00000000</v>
  </separator>
  <dos>
   <i name="efermi">     -3.41452421 </i>
   <total>
    <array>
     <dimension dim="1">gridpoints</dimension>
     <dimension dim="2">spin</dimension>
     <field>energy</field>
     <field>total</field>
     <field>integrated</field>
     <set>
      <set comment="spin 1">
       <r>   -58.0518     0.0000     0.0000 </r>
       <r>   -57.8340     0.0000     0.0000 </r>
       <r>   -57.6161     0.0000     0.0000 </r>
       <r>   -57.3982     0.0000     0.0000 </r>
       <r>   -57.1804     0.0000     0.0000 </r>
       <r>   -56.9625     0.0000     0.0000 </r>
       <r>   -56.7446     0.0000     0.0000 </r>
       <r>   -56.5268     0.0000     0.0000 </r>
       <r>   -56.3089     0.0000     0.0000 </r>
       <r>   -56.0910     0.0000     0.0000 </r>
       <r>   -55.8732     0.0000     0.0000 </r>
       <r>   -55.6553     0.0000     0.0000 </r>
       <r>   -55.4374     0.0000     0.0000 </r>
       <r>   -55.2196     0.0002     0.0000 </r>
       <r>   -55.0017     4.5323     0.9875 </r>
       <r>   -54.7839     0.0575     1.0000 </r>
       <r>   -54.5660     0.0000     1.0000 </r>
       <r>   -54.3481     0.0000     1.0000 </r>
       <r>   -54.1303     0.0000     1.0000 </r>
       <r>   -53.9124     0.0000     1.0000 </r>
       <r>   -53.6945     0.0000     1.0000 </r>
       <r>   -53.4767     0.0000     1.0000 </r>
       <r>   -53.2588     0.0000     1.0000 </r>
       <r>   -53.0409     0.0000     1.0000 </r>
       <r>   -52.8231     0.0000     1.0000 </r>
       <r>   -52.6052     0.0000     1.0000 </r>
       <r>   -52.3873     0.0000     1.0000 </r>
       <r>   -52.1695     0.0000     1.0000 </r>
       <r>   -51.9516     0.0000     1.0000 </r>
       <r>   -51.7337     0.0000     1.0000 </r>
       <r>   -51.5159     0.0000     1.0000 </r>
       <r>   -51.2980     0.0000     1.0000 </r>
       <r>   -51.0801     0.0000     1.0000 </r>
       <r>   -50.8623     0.0000     1.0000 </r>
       <r>   -50.6444     0.0000     1.0000 </r>
       <r>   -50.4266     0.0000     1.0000 </r>
       <r>   -50.2087     0.0000     1.0000 </r>
       <r>   -49.9908     0.0000     1.0000 </r>
       <r>   -49.7730     0.0000     1.0000 </r>
       <r>   -49.5551     0.0000     1.0000 </r>
       <r>   -49.3372     0.0000     1.0000 </r>
       <r>   -49.1194     0.0000     1.0000 </r>
       <r>   -48.9015     0.0000     1.0000 </r>
       <r>   -48.6836     0.0000     1.0000 </r>
       <r>   -48.4658     0.0000     1.0000 </r>
       <r>   -48.2479     0.0000     1.0000 </r>
       <r>   -48.0300     0.0000     1.0000 </r>
       <r>   -47.8122     0.0000     1.0000 </r>
       <r>   -47.5943     0.0000     1.0000 </r>
       <r>   -47.3764     0.0000     1.0000 </r>
       <r>   -47.1586     0.0000     1.0000 </r>
       <r>   -46.9407     0.0000     1.0000 </r>
       <r>   -46.7228     0.0000     1.0000 </r>
       <r>   -46.5050     0.0000     1.0000 </r>
       <r>   -46.2871     0.0000     1.0000 </r>
       <r>   -46.0693     0.0000     1.0000 </r>
       <r>   -45.8514     0.0000     1.0000 </r>
       <r>   -45.6335     0.0000     1.0000 </r>
       <r>   -45.4157     0.0000     1.0000 </r>
       <r>   -45.1978     0.0000     1.0000 </r>
       <r>   -44.9799     0.0000     1.0000 </r>
       <r>   -44.7621     0.0000     1.0000 </r>
       <r>   -44.5442     0.0000     1.0000 </r>
       <r>   -44.3263     0.0000     1.0000 </r>
       <r>   -44.1085     0.0000     1.0000 </r>
       <r>   -43.8906     0.0000     1.0000 </r>
       <r>   -43.6727     0.0000     1.0000 </r>
       <r>   -43.4549     0.0000     1.0000 </r>
       <r>   -43.2370     0.0000     1.0000 </r>
       <r>   -43.0191     0.0000     1.0000 </r>
       <r>   -42.8013     0.0000     1.0000 </r>
       <r>   -42.5834     0.0000     1.0000 </r>
       <r>   -42.3655     0.0000     1.0000 </r>
       <r>   -42.1477     0.0000     1.0000 </r>
       <r>   -41.9298     0.0000     1.0000 </r>
       <r>   -41.7119     0.0000     1.0000 </r>
       <r>   -41.4941     0.0000     1.0000 </r>
       <r>   -41.2762     0.0000     1.0000 </r>
       <r>   -41.0584     0.0000     1.0000 </r>
       <r>   -40.8405     0.0000     1.0000 </r>
       <r>   -40.6226     0.0000     1.0000 </r>
       <r>   -40.4048     0.0000     1.0000 </r>
       <r>   -40.1869     0.0000     1.0000 </r>
       <r>   -39.9690     0.0000     1.0000 </r>
       <r>   -39.7512     0.0000     1.0000 </r>
       <r>   -39.5333     0.0000     1.0000 </r>
       <r>   -39.3154     0.0000     1.0000 </r>
       <r>   -39.0976     0.0000     1.0000 </r>
       <r>   -38.8797     0.0000     1.0000 </r>
       <r>   -38.6618     0.0000     1.0000 </r>
       <r>   -38.4440     0.0000     1.0000 </r>
       <r>   -38.2261     0.0000     1.0000 </r>
       <r>   -38.0082     0.0000     1.0000 </r>
       <r>   -37.7904     0.0000     1.0000 </r>
       <r>   -37.5725     0.0000     1.0000 </r>
       <r>   -37.3546     0.0000     1.0000 </r>
       <r>   -37.1368     0.0000     1.0000 </r>
       <r>   -36.9189     0.0000     1.0000 </r>
       <r>   -36.7011     0.0000     1.0000 </r>
       <r>   -36.4832     0.0000     1.0000 </r>
       <r>   -36.2653     0.0000     1.0000 </r>
       <r>   -36.0475     0.0000     1.0000 </r>
       <r>   -35.8296     0.0000     1.0000 </r>
       <r>   -35.6117     0.0000     1.0000 </r>
       <r>   -35.3939     0.0000     1.0000 </r>
       <r>   -35.1760     0.0000     1.0000 </r>
       <r>   -34.9581     0.0000     1.0000 </r>
       <r>   -34.7403     0.0000     1.0000 </r>
       <r>   -34.5224     0.0000     1.0000 </r>
       <r>   -34.3045     0.0000     1.0000 </r>
       <r>   -34.0867     0.0000     1.0000 </r>
       <r>   -33.8688     0.0000     1.0000 </r>
       <r>   -33.6509    10.6753     3.3258 </r>
       <r>   -33.4331     3.0947     4.0000 </r>
       <r>   -33.2152     0.0000     4.0000 </r>
       <r>   -32.9973     0.0000     4.0000 </r>
       <r>   -32.7795     0.0000     4.0000 </r>
       <r>   -32.5616     0.0000     4.0000 </r>
       <r>   -32.3438     0.0000     4.0000 </r>
       <r>   -32.1259     0.0000     4.0000 </r>
       <r>   -31.9080     0.0000     4.0000 </r>
       <r>   -31.6902     0.0000     4.0000 </r>
       <r>   -31.4723     0.0000     4.0000 </r>
       <r>   -31.2544     0.0000     4.0000 </r>
       <r>   -31.0366     0.0000     4.0000 </r>
       <r>   -30.8187     0.0000     4.0000 </r>
       <r>   -30.6008     0.0000     4.0000 </r>
       <r>   -30.3830     0.0000     4.0000 </r>
       <r>   -30.1651     0.0000     4.0000 </r>
       <r>   -29.9472     0.0000     4.0000 </r>
       <r>   -29.7294     0.0000     4.0000 </r>
       <r>   -29.5115     0.0000     4.0000 </r>
       <r>   -29.2936     0.0000     4.0000 </r>
       <r>   -29.0758     0.0000     4.0000 </r>
       <r>   -28.8579     0.0000     4.0000 </r>
       <r>   -28.6400     0.0000     4.0000 </r>
       <r>   -28.4222     0.0000     4.0000 </r>
       <r>   -28.2043     0.0000     4.0000 </r>
       <r>   -27.9864     0.0000     4.0000 </r>
       <r>   -27.7686     0.0000     4.0000 </r>
       <r>   -27.5507     0.0000     4.0000 </r>
       <r>   -27.3329     0.0000     4.0000 </r>
       <r>   -27.1150     0.0000     4.0000 </r>
       <r>   -26.8971     0.0000     4.0000 </r>
       <r>   -26.6793     0.0000     4.0000 </r>
       <r>   -26.4614     0.0000     4.0000 </r>
       <r>   -26.2435     0.0000     4.0000 </r>
       <r>   -26.0257     0.0000     4.0000 </r>
       <r>   -25.8078     0.0000     4.0000 </r>
       <r>   -25.5899     0.0000     4.0000 </r>
       <r>   -25.3721     0.0000     4.0000 </r>
       <r>   -25.1542     0.0000     4.0000 </r>
       <r>   -24.9363     0.0000     4.0000 </r>
       <r>   -24.7185     0.0000     4.0000 </r>
       <r>   -24.5006     0.0000     4.0000 </r>
       <r>   -24.2827     0.0000     4.0000 </r>
       <r>   -24.0649     0.0000     4.0000 </r>
       <r>   -23.8470     0.0000     4.0000 </r>
       <r>   -23.6291     0.0000     4.0000 </r>
       <r>   -23.4113     0.0000     4.0000 </r>
       <r>   -23.1934     0.0000     4.0000 </r>
       <r>   -22.9756     0.0000     4.0000 </r>
       <r>   -22.7577     0.0000     4.0000 </r>
       <r>   -22.5398     0.0000     4.0000 </r>
       <r>   -22.3220     0.0000     4.0000 </r>
       <r>   -22.1041     0.0000     4.0000 </r>
       <r>   -21.8862     0.0000     4.0000 </r>
       <r>   -21.6684     0.0000     4.0000 </r>
       <r>   -21.4505     0.0000     4.0000 </r>
       <r>   -21.2326     0.0000     4.0000 </r>
       <r>   -21.0148     0.0000     4.0000 </r>
       <r>   -20.7969     0.0000     4.0000 </r>
       <r>   -20.5790     0.0000     4.0000 </r>
       <r>   -20.3612     0.0000     4.0000 </r>
       <r>   -20.1433     0.0000     4.0000 </r>
       <r>   -19.9254     0.0000     4.0000 </r>
       <r>   -19.7076     0.0000     4.0000 </r>
       <r>   -19.4897     0.0000     4.0000 </r>
       <r>   -19.2718     0.0000     4.0000 </r>
       <r>   -19.0540     0.0000     4.0000 </r>
       <r>   -18.8361     0.0000     4.0000 </r>
       <r>   -18.6183     0.0000     4.0000 </r>
       <r>   -18.4004     0.0000     4.0000 </r>
       <r>   -18.1825     0.0000     4.0000 </r>
       <r>   -17.9647     0.0000     4.0000 </r>
       <r>   -17.7468     0.0000     4.0000 </r>
       <r>   -17.5289     0.0000     4.0000 </r>
       <r>   -17.3111     0.0000     4.0000 </r>
       <r>   -17.0932     0.0000     4.0000 </r>
       <r>   -16.8753     0.0000     4.0000 </r>
       <r>   -16.6575     0.0000     4.0000 </r>
       <r>   -16.4396     0.0000     4.0000 </r>
       <r>   -16.2217     0.0000     4.0000 </r>
       <r>   -16.0039     0.0000     4.0000 </r>
       <r>   -15.7860     0.0000     4.0000 </r>
       <r>   -15.5681     0.0000     4.0000 </r>
       <r>   -15.3503     0.0000     4.0000 </r>
       <r>   -15.1324     0.0000     4.0000 </r>
       <r>   -14.9145     0.0000     4.0000 </r>
       <r>   -14.6967     0.0000     4.0000 </r>
       <r>   -14.4788     0.0000     4.0000 </r>
       <r>   -14.2609     0.0000     4.0000 </r>
       <r>   -14.0431     0.0000     4.0000 </r>
       <r>   -13.8252     0.0000     4.0000 </r>
       <r>   -13.6074     0.0000     4.0000 </r>
       <r>   -13.3895     0.0000     4.0000 </r>
       <r>   -13.1716     0.0000     4.0000 </r>
       <r>   -12.9538     0.0000     4.0000 </r>
       <r>   -12.7359     0.0000     4.0000 </r>
       <r>   -12.5180     0.0000     4.0000 </r>
       <r>   -12.3002     0.0000     4.0000 </r>
       <r>   -12.0823     0.0000     4.0000 </r>
       <r>   -11.8644     0.0000     4.0000 </r>
       <r>   -11.6466     0.0000     4.0000 </r>
       <r>   -11.4287     0.0000     4.0000 </r>
       <r>   -11.2108     0.0000     4.0000 </r>
       <r>   -10.9930     0.0000     4.0000 </r>
       <r>   -10.7751     0.0000     4.0000 </r>
       <r>   -10.5572     0.0000     4.0000 </r>
       <r>   -10.3394     0.0000     4.0000 </r>
       <r>   -10.1215     0.0000     4.0000 </r>
       <r>    -9.9036     0.0000     4.0000 </r>
       <r>    -9.6858     0.0000     4.0000 </r>
       <r>    -9.4679     0.0000     4.0000 </r>
       <r>    -9.2501     0.0000     4.0000 </r>
       <r>    -9.0322     0.0000     4.0000 </r>
       <r>    -8.8143     0.0000     4.0000 </r>
       <r>    -8.5965     0.0000     4.0000 </r>
       <r>    -8.3786     0.0000     4.0000 </r>
       <r>    -8.1607     0.0000     4.0000 </r>
       <r>    -7.9429     0.0000     4.0000 </r>
       <r>    -7.7250     0.0000     4.0000 </r>
       <r>    -7.5071     0.0000     4.0000 </r>
       <r>    -7.2893     0.0000     4.0000 </r>
       <r>    -7.0714     0.0000     4.0000 </r>
       <r>    -6.8535     0.0000     4.0000 </r>
       <r>    -6.6357     0.0000     4.0000 </r>
       <r>    -6.4178     0.0000     4.0000 </r>
       <r>    -6.1999     0.0000     4.0000 </r>
       <r>    -5.9821     0.0000     4.0000 </r>
       <r>    -5.7642     0.0000     4.0000 </r>
       <r>    -5.5463     0.0000     4.0000 </r>
       <r>    -5.3285     0.0000     4.0000 </r>
       <r>    -5.1106     0.0000     4.0000 </r>
       <r>    -4.8927     0.0000     4.0000 </r>
       <r>    -4.6749     0.0000     4.0000 </r>
       <r>    -4.4570     0.0000     4.0000 </r>
       <r>    -4.2392     0.0000     4.0000 </r>
       <r>    -4.0213     3.7781     4.8231 </r>
       <r>    -3.8034     0.8119     5.0000 </r>
       <r>    -3.5856     0.0000     5.0000 </r>
       <r>    -3.3677    11.2128     7.4429 </r>
       <r>    -3.1498     2.5653     8.0018 </r>
       <r>    -2.9320     9.1609     9.9976 </r>
       <r>    -2.7141     0.0110    10.0000 </r>
       <r>    -2.4962     0.0000    10.0000 </r>
       <r>    -2.2784     0.0000    10.0000 </r>
       <r>    -2.0605     0.0000    10.0000 </r>
       <r>    -1.8426     0.0000    10.0000 </r>
       <r>    -1.6248     0.0000    10.0000 </r>
       <r>    -1.4069     0.0000    10.0000 </r>
       <r>    -1.1890    10.3546    12.2559 </r>
       <r>    -0.9712     3.4154    13.0000 </r>
       <r>    -0.7533     0.0000    13.0000 </r>
       <r>    -0.5354     0.0000    13.0000 </r>
       <r>    -0.3176     0.0555    13.0121 </r>
       <r>    -0.0997     4.5343    14.0000 </r>
       <r>     0.1181     0.0002    14.0000 </r>
       <r>     0.3360     0.0000    14.0000 </r>
       <r>     0.5539     0.0014    14.0003 </r>
       <r>     0.7717     9.1294    15.9893 </r>
       <r>     0.9896     0.0492    16.0000 </r>
       <r>     1.2075     0.0000    16.0000 </r>
       <r>     1.4253     0.7705    16.1679 </r>
       <r>     1.6432    13.0327    19.0072 </r>
       <r>     1.8611    18.3121    22.9968 </r>
       <r>     2.0789     0.0148    23.0000 </r>
       <r>     2.2968    15.2001    26.3116 </r>
       <r>     2.5147     7.7498    28.0000 </r>
       <r>     2.7325     0.0000    28.0000 </r>
       <r>     2.9504     0.0000    28.0000 </r>
       <r>     3.1683     0.0000    28.0000 </r>
       <r>     3.3861     0.1695    28.0369 </r>
       <r>     3.6040    23.2976    33.1127 </r>
       <r>     3.8219     8.6628    35.0000 </r>
       <r>     4.0397     0.0000    35.0000 </r>
       <r>     4.2576     0.0575    35.0125 </r>
       <r>     4.4754     4.5323    36.0000 </r>
       <r>     4.6933     0.0002    36.0000 </r>
       <r>     4.9112     0.0000    36.0000 </r>
       <r>     5.1290     0.0000    36.0000 </r>
       <r>     5.3469     0.0000    36.0000 </r>
       <r>     5.5648     0.0000    36.0000 </r>
       <r>     5.7826     0.0000    36.0000 </r>
       <r>     6.0005     0.0000    36.0000 </r>
       <r>     6.2184     0.0000    36.0000 </r>
       <r>     6.4362     0.0000    36.0000 </r>
       <r>     6.6541     0.0000    36.0000 </r>
       <r>     6.8720     0.0000    36.0000 </r>
       <r>     7.0898     0.0000    36.0000 </r>
       <r>     7.3077     0.0000    36.0000 </r>
      </set>
      <set comment="spin 2">
       <r>   -58.0518     0.0000     0.0000 </r>
       <r>   -57.8340     0.0000     0.0000 </r>
       <r>   -57.6161     0.0000     0.0000 </r>
       <r>   -57.3982     0.0000     0.0000 </r>
       <r>   -57.1804     0.0000     0.0000 </r>
       <r>   -56.9625     0.0000     0.0000 </r>
       <r>   -56.7446     0.0000     0.0000 </r>
       <r>   -56.5268     0.0000     0.0000 </r>
       <r>   -56.3089     0.0000     0.0000 </r>
       <r>   -56.0910     0.0000     0.0000 </r>
       <r>   -55.8732     0.0000     0.0000 </r>
       <r>   -55.6553     0.0000     0.0000 </r>
       <r>   -55.4374     0.0000     0.0000 </r>
       <r>   -55.2196     0.0000     0.0000 </r>
       <r>   -55.0017     0.0000     0.0000 </r>
       <r>   -54.7839     0.0000     0.0000 </r>
       <r>   -54.5660     0.0000     0.0000 </r>
       <r>   -54.3481     0.7878     0.1716 </r>
       <r>   -54.1303     3.8022     1.0000 </r>
       <r>   -53.9124     0.0000     1.0000 </r>
       <r>   -53.6945     0.0000     1.0000 </r>
       <r>   -53.4767     0.0000     1.0000 </r>
       <r>   -53.2588     0.0000     1.0000 </r>
       <r>   -53.0409     0.0000     1.0000 </r>
       <r>   -52.8231     0.0000     1.0000 </r>
       <r>   -52.6052     0.0000     1.0000 </r>
       <r>   -52.3873     0.0000     1.0000 </r>
       <r>   -52.1695     0.0000     1.0000 </r>
       <r>   -51.9516     0.0000     1.0000 </r>
       <r>   -51.7337     0.0000     1.0000 </r>
       <r>   -51.5159     0.0000     1.0000 </r>
       <r>   -51.2980     0.0000     1.0000 </r>
       <r>   -51.0801     0.0000     1.0000 </r>
       <r>   -50.8623     0.0000     1.0000 </r>
       <r>   -50.6444     0.0000     1.0000 </r>
       <r>   -50.4266     0.0000     1.0000 </r>
       <r>   -50.2087     0.0000     1.0000 </r>
       <r>   -49.9908     0.0000     1.0000 </r>
       <r>   -49.7730     0.0000     1.0000 </r>
       <r>   -49.5551     0.0000     1.0000 </r>
       <r>   -49.3372     0.0000     1.0000 </r>
       <r>   -49.1194     0.0000     1.0000 </r>
       <r>   -48.9015     0.0000     1.0000 </r>
       <r>   -48.6836     0.0000     1.0000 </r>
       <r>   -48.4658     0.0000     1.0000 </r>
       <r>   -48.2479     0.0000     1.0000 </r>
       <r>   -48.0300     0.0000     1.0000 </r>
       <r>   -47.8122     0.0000     1.0000 </r>
       <r>   -47.5943     0.0000     1.0000 </r>
       <r>   -47.3764     0.0000     1.0000 </r>
       <r>   -47.1586     0.0000     1.0000 </r>
       <r>   -46.9407     0.0000     1.0000 </r>
       <r>   -46.7228     0.0000     1.0000 </r>
       <r>   -46.5050     0.0000     1.0000 </r>
       <r>   -46.2871     0.0000     1.0000 </r>
       <r>   -46.0693     0.0000     1.0000 </r>
       <r>   -45.8514     0.0000     1.0000 </r>
       <r>   -45.6335     0.0000     1.0000 </r>
       <r>   -45.4157     0.0000     1.0000 </r>
       <r>   -45.1978     0.0000     1.0000 </r>
       <r>   -44.9799     0.0000     1.0000 </r>
       <r>   -44.7621     0.0000     1.0000 </r>
       <r>   -44.5442     0.0000     1.0000 </r>
       <r>   -44.3263     0.0000     1.0000 </r>
       <r>   -44.1085     0.0000     1.0000 </r>
       <r>   -43.8906     0.0000     1.0000 </r>
       <r>   -43.6727     0.0000     1.0000 </r>
       <r>   -43.4549     0.0000     1.0000 </r>
       <r>   -43.2370     0.0000     1.0000 </r>
       <r>   -43.0191     0.0000     1.0000 </r>
       <r>   -42.8013     0.0000     1.0000 </r>
       <r>   -42.5834     0.0000     1.0000 </r>
       <r>   -42.3655     0.0000     1.0000 </r>
       <r>   -42.1477     0.0000     1.0000 </r>
       <r>   -41.9298     0.0000     1.0000 </r>
       <r>   -41.7119     0.0000     1.0000 </r>
       <r>   -41.4941     0.0000     1.0000 </r>
       <r>   -41.2762     0.0000     1.0000 </r>
       <r>   -41.0584     0.0000     1.0000 </r>
       <r>   -40.8405     0.0000     1.0000 </r>
       <r>   -40.6226     0.0000     1.0000 </r>
       <r>   -40.4048     0.0000     1.0000 </r>
       <r>   -40.1869     0.0000     1.0000 </r>
       <r>   -39.9690     0.0000     1.0000 </r>
       <r>   -39.7512     0.0000     1.0000 </r>
       <r>   -39.5333     0.0000     1.0000 </r>
       <r>   -39.3154     0.0000     1.0000 </r>
       <r>   -39.0976     0.0000     1.0000 </r>
       <r>   -38.8797     0.0000     1.0000 </r>
       <r>   -38.6618     0.0000     1.0000 </r>
       <r>   -38.4440     0.0000     1.0000 </r>
       <r>   -38.2261     0.0000     1.0000 </r>
       <r>   -38.0082     0.0000     1.0000 </r>
       <r>   -37.7904     0.0000     1.0000 </r>
       <r>   -37.5725     0.0000     1.0000 </r>
       <r>   -37.3546     0.0000     1.0000 </r>
       <r>   -37.1368     0.0000     1.0000 </r>
       <r>   -36.9189     0.0000     1.0000 </r>
       <r>   -36.7011     0.0000     1.0000 </r>
       <r>   -36.4832     0.0000     1.0000 </r>
       <r>   -36.2653     0.0000     1.0000 </r>
       <r>   -36.0475     0.0000     1.0000 </r>
       <r>   -35.8296     0.0000     1.0000 </r>
       <r>   -35.6117     0.0000     1.0000 </r>
       <r>   -35.3939     0.0000     1.0000 </r>
       <r>   -35.1760     0.0000     1.0000 </r>
       <r>   -34.9581     0.0000     1.0000 </r>
       <r>   -34.7403     0.0000     1.0000 </r>
       <r>   -34.5224     0.0000     1.0000 </r>
       <r>   -34.3045     0.0000     1.0000 </r>
       <r>   -34.0867     0.0000     1.0000 </r>
       <r>   -33.8688     0.0000     1.0000 </r>
       <r>   -33.6509     0.0000     1.0000 </r>
       <r>   -33.4331     0.0000     1.0000 </r>
       <r>   -33.2152     0.0000     1.0000 </r>
       <r>   -32.9973     0.0986     1.0215 </r>
       <r>   -32.7795    13.6700     3.9997 </r>
       <r>   -32.5616     0.0014     4.0000 </r>
       <r>   -32.3438     0.0000     4.0000 </r>
       <r>   -32.1259     0.0000     4.0000 </r>
       <r>   -31.9080     0.0000     4.0000 </r>
       <r>   -31.6902     0.0000     4.0000 </r>
       <r>   -31.4723     0.0000     4.0000 </r>
       <r>   -31.2544     0.0000     4.0000 </r>
       <r>   -31.0366     0.0000     4.0000 </r>
       <r>   -30.8187     0.0000     4.0000 </r>
       <r>   -30.6008     0.0000     4.0000 </r>
       <r>   -30.3830     0.0000     4.0000 </r>
       <r>   -30.1651     0.0000     4.0000 </r>
       <r>   -29.9472     0.0000     4.0000 </r>
       <r>   -29.7294     0.0000     4.0000 </r>
       <r>   -29.5115     0.0000     4.0000 </r>
       <r>   -29.2936     0.0000     4.0000 </r>
       <r>   -29.0758     0.0000     4.0000 </r>
       <r>   -28.8579     0.0000     4.0000 </r>
       <r>   -28.6400     0.0000     4.0000 </r>
       <r>   -28.4222     0.0000     4.0000 </r>
       <r>   -28.2043     0.0000     4.0000 </r>
       <r>   -27.9864     0.0000     4.0000 </r>
       <r>   -27.7686     0.0000     4.0000 </r>
       <r>   -27.5507     0.0000     4.0000 </r>
       <r>   -27.3329     0.0000     4.0000 </r>
       <r>   -27.1150     0.0000     4.0000 </r>
       <r>   -26.8971     0.0000     4.0000 </r>
       <r>   -26.6793     0.0000     4.0000 </r>
       <r>   -26.4614     0.0000     4.0000 </r>
       <r>   -26.2435     0.0000     4.0000 </r>
       <r>   -26.0257     0.0000     4.0000 </r>
       <r>   -25.8078     0.0000     4.0000 </r>
       <r>   -25.5899     0.0000     4.0000 </r>
       <r>   -25.3721     0.0000     4.0000 </r>
       <r>   -25.1542     0.0000     4.0000 </r>
       <r>   -24.9363     0.0000     4.0000 </r>
       <r>   -24.7185     0.0000     4.0000 </r>
       <r>   -24.5006     0.0000     4.0000 </r>
       <r>   -24.2827     0.0000     4.0000 </r>
       <r>   -24.0649     0.0000     4.0000 </r>
       <r>   -23.8470     0.0000     4.0000 </r>
       <r>   -23.6291     0.0000     4.0000 </r>
       <r>   -23.4113     0.0000     4.0000 </r>
       <r>   -23.1934     0.0000     4.0000 </r>
       <r>   -22.9756     0.0000     4.0000 </r>
       <r>   -22.7577     0.0000     4.0000 </r>
       <r>   -22.5398     0.0000     4.0000 </r>
       <r>   -22.3220     0.0000     4.0000 </r>
       <r>   -22.1041     0.0000     4.0000 </r>
       <r>   -21.8862     0.0000     4.0000 </r>
       <r>   -21.6684     0.0000     4.0000 </r>
       <r>   -21.4505     0.0000     4.0000 </r>
       <r>   -21.2326     0.0000     4.0000 </r>
       <r>   -21.0148     0.0000     4.0000 </r>
       <r>   -20.7969     0.0000     4.0000 </r>
       <r>   -20.5790     0.0000     4.0000 </r>
       <r>   -20.3612     0.0000     4.0000 </r>
       <r>   -20.1433     0.0000     4.0000 </r>
       <r>   -19.9254     0.0000     4.0000 </r>
       <r>   -19.7076     0.0000     4.0000 </r>
       <r>   -19.4897     0.0000     4.0000 </r>
       <r>   -19.2718     0.0000     4.0000 </r>
       <r>   -19.0540     0.0000     4.0000 </r>
       <r>   -18.8361     0.0000     4.0000 </r>
       <r>   -18.6183     0.0000     4.0000 </r>
       <r>   -18.4004     0.0000     4.0000 </r>
       <r>   -18.1825     0.0000     4.0000 </r>
       <r>   -17.9647     0.0000     4.0000 </r>
       <r>   -17.7468     0.0000     4.0000 </r>
       <r>   -17.5289     0.0000     4.0000 </r>
       <r>   -17.3111     0.0000     4.0000 </r>
       <r>   -17.0932     0.0000     4.0000 </r>
       <r>   -16.8753     0.0000     4.0000 </r>
       <r>   -16.6575     0.0000     4.0000 </r>
       <r>   -16.4396     0.0000     4.0000 </r>
       <r>   -16.2217     0.0000     4.0000 </r>
       <r>   -16.0039     0.0000     4.0000 </r>
       <r>   -15.7860     0.0000     4.0000 </r>
       <r>   -15.5681     0.0000     4.0000 </r>
       <r>   -15.3503     0.0000     4.0000 </r>
       <r>   -15.1324     0.0000     4.0000 </r>
       <r>   -14.9145     0.0000     4.0000 </r>
       <r>   -14.6967     0.0000     4.0000 </r>
       <r>   -14.4788     0.0000     4.0000 </r>
       <r>   -14.2609     0.0000     4.0000 </r>
       <r>   -14.0431     0.0000     4.0000 </r>
       <r>   -13.8252     0.0000     4.0000 </r>
       <r>   -13.6074     0.0000     4.0000 </r>
       <r>   -13.3895     0.0000     4.0000 </r>
       <r>   -13.1716     0.0000     4.0000 </r>
       <r>   -12.9538     0.0000     4.0000 </r>
       <r>   -12.7359     0.0000     4.0000 </r>
       <r>   -12.5180     0.0000     4.0000 </r>
       <r>   -12.3002     0.0000     4.0000 </r>
       <r>   -12.0823     0.0000     4.0000 </r>
       <r>   -11.8644     0.0000     4.0000 </r>
       <r>   -11.6466     0.0000     4.0000 </r>
       <r>   -11.4287     0.0000     4.0000 </r>
       <r>   -11.2108     0.0000     4.0000 </r>
       <r>   -10.9930     0.0000     4.0000 </r>
       <r>   -10.7751     0.0000     4.0000 </r>
       <r>   -10.5572     0.0000     4.0000 </r>
       <r>   -10.3394     0.0000     4.0000 </r>
       <r>   -10.1215     0.0000     4.0000 </r>
       <r>    -9.9036     0.0000     4.0000 </r>
       <r>    -9.6858     0.0000     4.0000 </r>
       <r>    -9.4679     0.0000     4.0000 </r>
       <r>    -9.2501     0.0000     4.0000 </r>
       <r>    -9.0322     0.0000     4.0000 </r>
       <r>    -8.8143     0.0000     4.0000 </r>
       <r>    -8.5965     0.0000     4.0000 </r>
       <r>    -8.3786     0.0000     4.0000 </r>
       <r>    -8.1607     0.0000     4.0000 </r>
       <r>    -7.9429     0.0000     4.0000 </r>
       <r>    -7.7250     0.0000     4.0000 </r>
       <r>    -7.5071     0.0000     4.0000 </r>
       <r>    -7.2893     0.0000     4.0000 </r>
       <r>    -7.0714     0.0000     4.0000 </r>
       <r>    -6.8535     0.0000     4.0000 </r>
       <r>    -6.6357     0.0000     4.0000 </r>
       <r>    -6.4178     0.0000     4.0000 </r>
       <r>    -6.1999     0.0000     4.0000 </r>
       <r>    -5.9821     0.0000     4.0000 </r>
       <r>    -5.7642     0.0000     4.0000 </r>
       <r>    -5.5463     0.0000     4.0000 </r>
       <r>    -5.3285     0.0000     4.0000 </r>
       <r>    -5.1106     0.0000     4.0000 </r>
       <r>    -4.8927     0.0000     4.0000 </r>
       <r>    -4.6749     0.0000     4.0000 </r>
       <r>    -4.4570     0.0000     4.0000 </r>
       <r>    -4.2392     0.0000     4.0000 </r>
       <r>    -4.0213     0.0000     4.0000 </r>
       <r>    -3.8034     1.6020     4.3490 </r>
       <r>    -3.5856     2.9880     5.0000 </r>
       <r>    -3.3677     0.0000     5.0000 </r>
       <r>    -3.1498     0.0000     5.0000 </r>
       <r>    -2.9320     0.0000     5.0000 </r>
       <r>    -2.7141     6.7260     6.4654 </r>
       <r>    -2.4962    11.1809     8.9013 </r>
       <r>    -2.2784     5.0431    10.0000 </r>
       <r>    -2.0605     0.0000    10.0000 </r>
       <r>    -1.8426     0.0000    10.0000 </r>
       <r>    -1.6248     0.0000    10.0000 </r>
       <r>    -1.4069     0.0000    10.0000 </r>
       <r>    -1.1890     0.0035    10.0008 </r>
       <r>    -0.9712    13.7170    12.9892 </r>
       <r>    -0.7533     0.0495    13.0000 </r>
       <r>    -0.5354     0.0000    13.0000 </r>
       <r>    -0.3176     0.0310    13.0068 </r>
       <r>    -0.0997     4.5585    13.9999 </r>
       <r>     0.1181     0.0005    14.0000 </r>
       <r>     0.3360     0.0000    14.0000 </r>
       <r>     0.5539     0.0029    14.0006 </r>
       <r>     0.7717     9.1490    15.9939 </r>
       <r>     0.9896     0.0281    16.0000 </r>
       <r>     1.2075     0.0000    16.0000 </r>
       <r>     1.4253     0.9780    16.2131 </r>
       <r>     1.6432    12.7928    19.0002 </r>
       <r>     1.8611    16.0616    22.4994 </r>
       <r>     2.0789     2.2981    23.0001 </r>
       <r>     2.2968    15.8645    26.4564 </r>
       <r>     2.5147     7.0849    28.0000 </r>
       <r>     2.7325     0.0000    28.0000 </r>
       <r>     2.9504     0.0000    28.0000 </r>
       <r>     3.1683     0.0000    28.0000 </r>
       <r>     3.3861     0.0064    28.0014 </r>
       <r>     3.6040    19.4280    32.2341 </r>
       <r>     3.8219    12.6926    34.9994 </r>
       <r>     4.0397     0.0029    35.0000 </r>
       <r>     4.2576     4.0202    35.8759 </r>
       <r>     4.4754     0.5698    36.0000 </r>
       <r>     4.6933     0.0000    36.0000 </r>
       <r>     4.9112     0.0000    36.0000 </r>
       <r>     5.1290     0.0000    36.0000 </r>
       <r>     5.3469     0.0000    36.0000 </r>
       <r>     5.5648     0.0000    36.0000 </r>
       <r>     5.7826     0.0000    36.0000 </r>
       <r>     6.0005     0.0000    36.0000 </r>
       <r>     6.2184     0.0000    36.0000 </r>
       <r>     6.4362     0.0000    36.0000 </r>
       <r>     6.6541     0.0000    36.0000 </r>
       <r>     6.8720     0.0000    36.0000 </r>
       <r>     7.0898     0.0000    36.0000 </r>
       <r>     7.3077     0.0000    36.0000 </r>
      </set>
     </set>
    </array>
   </total>
   <partial>
    <array>
     <dimension dim="1">gridpoints</dimension>
     <dimension dim="2">spin</dimension>
     <dimension dim="3">ion</dimension>
     <field>energy</field>
     <field>    s</field>
     <field>   py</field>
     <field>   pz</field>
     <field>   px</field>
     <field>  dxy</field>
     <field>  dyz</field>
     <field>  dz2</field>
     <field>  dxz</field>
     <field>x2-y2</field>
     <set>
      <set comment="ion 1">
       <set comment="spin 1">
        <r>   -58.0518     0.0000     0.0000     0.0000     0.0000     0.0000     0.0000     0.0000     0.0000     0.0000 </r>
        <r>   -57.8340     0.0000     0.0000     0.0000     0.0000     0.0000     0.0000     0.0000     0.0000     0.0000 </r>
        <r>   -57.6161     0.0000     0.0000     0.0000     0.0000     0.0000     0.0000     0.0000     0.0000     0.0000 </r>
        <r>   -57.3982     0.0000     0.0000     0.0000     0.0000     0.0000     0.0000     0.0000     0.0000     0.0000 </r>
        <r>   -57.1804     0.0000     0.0000     0.0000     0.0000     0.0000     0.0000     0.0000     0.0000     0.0000 </r>
        <r>   -56.9625     0.0000     0.0000     0.0000     0.0000     0.0000     0.0000     0.0000     0.0000     0.0000 </r>
        <r>   -56.7446     0.0000     0.0000     0.0000     0.0000     0.0000     0.0000     0.0000     0.0000     0.0000 </r>
        <r>   -56.5268     0.0000     0.0000     0.0000     0.0000     0.0000     0.0000     0.0000     0.0000     0.0000 </r>
        <r>   -56.3089     0.0000     0.0000     0.0000     0.0000     0.0000     0.0000     0.0000     0.0000     0.0000 </r>
        <r>   -56.0910     0.0000     0.0000     0.0000     0.0000     0.0000     0.0000     0.0000     0.0000     0.0000 </r>
        <r>   -55.8732     0.0000     0.0000     0.0000     0.0000     0.0000     0.0000     0.0000     0.0000     0.0000 </r>
        <r>   -55.6553     0.0000     0.0000     0.0000     0.0000     0.0000     0.0000     0.0000     0.0000     0.0000 </r>
        <r>   -55.4374     0.0000     0.0000     0.0000     0.0000     0.0000     0.0000     0.0000     0.0000     0.0000 </r>
        <r>   -55.2196     0.0002     0.0000     0.0000     0.0000     0.0000     0.0000     0.0000     0.0000     0.0000 </r>
        <r>   -55.0017     4.5170     0.0000     0.0000     0.0000     0.0000     0.0000     0.0000     0.0000     0.0000 </r>
        <r>   -54.7839     0.0573     0.0000     0.0000     0.0000     0.0000     0.0000     0.0000     0.0000     0.0000 </r>
        <r>   -54.5660     0.0000     0.0000     0.0000     0.0000     0.0000     0.0000     0.0000     0.0000     0.0000 </r>
        <r>   -54.3481     0.0000     0.0000     0.0000     0.0000     0.0000     0.0000     0.0000     0.0000     0.0000 </r>
        <r>   -54.1303     0.0000     0.0000     0.0000     0.0000     0.0000     0.0000     0.0000     0.0000     0.0000 </r>
        <r>   -53.9124     0.0000     0.0000     0.0000     0.0000     0.0000     0.0000     0.0000     0.0000     0.0000 </r>
        <r>   -53.6945     0.0000     0.0000     0.0000     0.0000     0.0000     0.0000     0.0000     0.0000     0.0000 </r>
        <r>   -53.4767     0.0000     0.0000     0.0000     0.0000     0.0000     0.0000     0.0000     0.0000     0.0000 </r>
        <r>   -53.2588     0.0000     0.0000     0.0000     0.0000     0.0000     0.0000     0.0000     0.0000     0.0000 </r>
        <r>   -53.0409     0.0000     0.0000     0.0000     0.0000     0.0000     0.0000     0.0000     0.0000     0.0000 </r>
        <r>   -52.8231     0.0000     0.0000     0.0000     0.0000     0.0000     0.0000     0.0000     0.0000     0.0000 </r>
        <r>   -52.6052     0.0000     0.0000     0.0000     0.0000     0.0000     0.0000     0.0000     0.0000     0.0000 </r>
        <r>   -52.3873     0.0000     0.0000     0.0000     0.0000     0.0000     0.0000     0.0000     0.0000     0.0000 </r>
        <r>   -52.1695     0.0000     0.0000     0.0000     0.0000     0.0000     0.0000     0.0000     0.0000     0.0000 </r>
        <r>   -51.9516     0.0000     0.0000     0.0000     0.0000     0.0000     0.0000     0.0000     0.0000     0.0000 </r>
        <r>   -51.7337     0.0000     0.0000     0.0000     0.0000     0.0000     0.0000     0.0000     0.0000     0.0000 </r>
        <r>   -51.5159     0.0000     0.0000     0.0000     0.0000     0.0000     0.0000     0.0000     0.0000     0.0000 </r>
        <r>   -51.2980     0.0000     0.0000     0.0000     0.0000     0.0000     0.0000     0.0000     0.0000     0.0000 </r>
        <r>   -51.0801     0.0000     0.0000     0.0000     0.0000     0.0000     0.0000     0.0000     0.0000     0.0000 </r>
        <r>   -50.8623     0.0000     0.0000     0.0000     0.0000     0.0000     0.0000     0.0000     0.0000     0.0000 </r>
        <r>   -50.6444     0.0000     0.0000     0.0000     0.0000     0.0000     0.0000     0.0000     0.0000     0.0000 </r>
        <r>   -50.4266     0.0000     0.0000     0.0000     0.0000     0.0000     0.0000     0.0000     0.0000     0.0000 </r>
        <r>   -50.2087     0.0000     0.0000     0.0000     0.0000     0.0000     0.0000     0.0000     0.0000     0.0000 </r>
        <r>   -49.9908     0.0000     0.0000     0.0000     0.0000     0.0000     0.0000     0.0000     0.0000     0.0000 </r>
        <r>   -49.7730     0.0000     0.0000     0.0000     0.0000     0.0000     0.0000     0.0000     0.0000     0.0000 </r>
        <r>   -49.5551     0.0000     0.0000     0.0000     0.0000     0.0000     0.0000     0.0000     0.0000     0.0000 </r>
        <r>   -49.3372     0.0000     0.0000     0.0000     0.0000     0.0000     0.0000     0.0000     0.0000     0.0000 </r>
        <r>   -49.1194     0.0000     0.0000     0.0000     0.0000     0.0000     0.0000     0.0000     0.0000     0.0000 </r>
        <r>   -48.9015     0.0000     0.0000     0.0000     0.0000     0.0000     0.0000     0.0000     0.0000     0.0000 </r>
        <r>   -48.6836     0.0000     0.0000     0.0000     0.0000     0.0000     0.0000     0.0000     0.0000     0.0000 </r>
        <r>   -48.4658     0.0000     0.0000     0.0000     0.0000     0.0000     0.0000     0.0000     0.0000     0.0000 </r>
        <r>   -48.2479     0.0000     0.0000     0.0000     0.0000     0.0000     0.0000     0.0000     0.0000     0.0000 </r>
        <r>   -48.0300     0.0000     0.0000     0.0000     0.0000     0.0000     0.0000     0.0000     0.0000     0.0000 </r>
        <r>   -47.8122     0.0000     0.0000     0.0000     0.0000     0.0000     0.0000     0.0000     0.0000     0.0000 </r>
        <r>   -47.5943     0.0000     0.0000     0.0000     0.0000     0.0000     0.0000     0.0000     0.0000     0.0000 </r>
        <r>   -47.3764     0.0000     0.0000     0.0000     0.0000     0.0000     0.0000     0.0000     0.0000     0.0000 </r>
        <r>   -47.1586     0.0000     0.0000     0.0000     0.0000     0.0000     0.0000     0.0000     0.0000     0.0000 </r>
        <r>   -46.9407     0.0000     0.0000     0.0000     0.0000     0.0000     0.0000     0.0000     0.0000     0.0000 </r>
        <r>   -46.7228     0.0000     0.0000     0.0000     0.0000     0.0000     0.0000     0.0000     0.0000     0.0000 </r>
        <r>   -46.5050     0.0000     0.0000     0.0000     0.0000     0.0000     0.0000     0.0000     0.0000     0.0000 </r>
        <r>   -46.2871     0.0000     0.0000     0.0000     0.0000     0.0000     0.0000     0.0000     0.0000     0.0000 </r>
        <r>   -46.0693     0.0000     0.0000     0.0000     0.0000     0.0000     0.0000     0.0000     0.0000     0.0000 </r>
        <r>   -45.8514     0.0000     0.0000     0.0000     0.0000     0.0000     0.0000     0.0000     0.0000     0.0000 </r>
        <r>   -45.6335     0.0000     0.0000     0.0000     0.0000     0.0000     0.0000     0.0000     0.0000     0.0000 </r>
        <r>   -45.4157     0.0000     0.0000     0.0000     0.0000     0.0000     0.0000     0.0000     0.0000     0.0000 </r>
        <r>   -45.1978     0.0000     0.0000     0.0000     0.0000     0.0000     0.0000     0.0000     0.0000     0.0000 </r>
        <r>   -44.9799     0.0000     0.0000     0.0000     0.0000     0.0000     0.0000     0.0000     0.0000     0.0000 </r>
        <r>   -44.7621     0.0000     0.0000     0.0000     0.0000     0.0000     0.0000     0.0000     0.0000     0.0000 </r>
        <r>   -44.5442     0.0000     0.0000     0.0000     0.0000     0.0000     0.0000     0.0000     0.0000     0.0000 </r>
        <r>   -44.3263     0.0000     0.0000     0.0000     0.0000     0.0000     0.0000     0.0000     0.0000     0.0000 </r>
        <r>   -44.1085     0.0000     0.0000     0.0000     0.0000     0.0000     0.0000     0.0000     0.0000     0.0000 </r>
        <r>   -43.8906     0.0000     0.0000     0.0000     0.0000     0.0000     0.0000     0.0000     0.0000     0.0000 </r>
        <r>   -43.6727     0.0000     0.0000     0.0000     0.0000     0.0000     0.0000     0.0000     0.0000     0.0000 </r>
        <r>   -43.4549     0.0000     0.0000     0.0000     0.0000     0.0000     0.0000     0.0000     0.0000     0.0000 </r>
        <r>   -43.2370     0.0000     0.0000     0.0000     0.0000     0.0000     0.0000     0.0000     0.0000     0.0000 </r>
        <r>   -43.0191     0.0000     0.0000     0.0000     0.0000     0.0000     0.0000     0.0000     0.0000     0.0000 </r>
        <r>   -42.8013     0.0000     0.0000     0.0000     0.0000     0.0000     0.0000     0.0000     0.0000     0.0000 </r>
        <r>   -42.5834     0.0000     0.0000     0.0000     0.0000     0.0000     0.0000     0.0000     0.0000     0.0000 </r>
        <r>   -42.3655     0.0000     0.0000     0.0000     0.0000     0.0000     0.0000     0.0000     0.0000     0.0000 </r>
        <r>   -42.1477     0.0000     0.0000     0.0000     0.0000     0.0000     0.0000     0.0000     0.0000     0.0000 </r>
        <r>   -41.9298     0.0000     0.0000     0.0000     0.0000     0.0000     0.0000     0.0000     0.0000     0.0000 </r>
        <r>   -41.7119     0.0000     0.0000     0.0000     0.0000     0.0000     0.0000     0.0000     0.0000     0.0000 </r>
        <r>   -41.4941     0.0000     0.0000     0.0000     0.0000     0.0000     0.0000     0.0000     0.0000     0.0000 </r>
        <r>   -41.2762     0.0000     0.0000     0.0000     0.0000     0.0000     0.0000     0.0000     0.0000     0.0000 </r>
        <r>   -41.0584     0.0000     0.0000     0.0000     0.0000     0.0000     0.0000     0.0000     0.0000     0.0000 </r>
        <r>   -40.8405     0.0000     0.0000     0.0000     0.0000     0.0000     0.0000     0.0000     0.0000     0.0000 </r>
        <r>   -40.6226     0.0000     0.0000     0.0000     0.0000     0.0000     0.0000     0.0000     0.0000     0.0000 </r>
        <r>   -40.4048     0.0000     0.0000     0.0000     0.0000     0.0000     0.0000     0.0000     0.0000     0.0000 </r>
        <r>   -40.1869     0.0000     0.0000     0.0000     0.0000     0.0000     0.0000     0.0000     0.0000     0.0000 </r>
        <r>   -39.9690     0.0000     0.0000     0.0000     0.0000     0.0000     0.0000     0.0000     0.0000     0.0000 </r>
        <r>   -39.7512     0.0000     0.0000     0.0000     0.0000     0.0000     0.0000     0.0000     0.0000     0.0000 </r>
        <r>   -39.5333     0.0000     0.0000     0.0000     0.0000     0.0000     0.0000     0.0000     0.0000     0.0000 </r>
        <r>   -39.3154     0.0000     0.0000     0.0000     0.0000     0.0000     0.0000     0.0000     0.0000     0.0000 </r>
        <r>   -39.0976     0.0000     0.0000     0.0000     0.0000     0.0000     0.0000     0.0000     0.0000     0.0000 </r>
        <r>   -38.8797     0.0000     0.0000     0.0000     0.0000     0.0000     0.0000     0.0000     0.0000     0.0000 </r>
        <r>   -38.6618     0.0000     0.0000     0.0000     0.0000     0.0000     0.0000     0.0000     0.0000     0.0000 </r>
        <r>   -38.4440     0.0000     0.0000     0.0000     0.0000     0.0000     0.0000     0.0000     0.0000     0.0000 </r>
        <r>   -38.2261     0.0000     0.0000     0.0000     0.0000     0.0000     0.0000     0.0000     0.0000     0.0000 </r>
        <r>   -38.0082     0.0000     0.0000     0.0000     0.0000     0.0000     0.0000     0.0000     0.0000     0.0000 </r>
        <r>   -37.7904     0.0000     0.0000     0.0000     0.0000     0.0000     0.0000     0.0000     0.0000     0.0000 </r>
        <r>   -37.5725     0.0000     0.0000     0.0000     0.0000     0.0000     0.0000     0.0000     0.0000     0.0000 </r>
        <r>   -37.3546     0.0000     0.0000     0.0000     0.0000     0.0000     0.0000     0.0000     0.0000     0.0000 </r>
        <r>   -37.1368     0.0000     0.0000     0.0000     0.0000     0.0000     0.0000     0.0000     0.0000     0.0000 </r>
        <r>   -36.9189     0.0000     0.0000     0.0000     0.0000     0.0000     0.0000     0.0000     0.0000     0.0000 </r>
        <r>   -36.7011     0.0000     0.0000     0.0000     0.0000     0.0000     0.0000     0.0000     0.0000     0.0000 </r>
        <r>   -36.4832     0.0000     0.0000     0.0000     0.0000     0.0000     0.0000     0.0000     0.0000     0.0000 </r>
        <r>   -36.2653     0.0000     0.0000     0.0000     0.0000     0.0000     0.0000     0.0000     0.0000     0.0000 </r>
        <r>   -36.0475     0.0000     0.0000     0.0000     0.0000     0.0000     0.0000     0.0000     0.0000     0.0000 </r>
        <r>   -35.8296     0.0000     0.0000     0.0000     0.0000     0.0000     0.0000     0.0000     0.0000     0.0000 </r>
        <r>   -35.6117     0.0000     0.0000     0.0000     0.0000     0.0000     0.0000     0.0000     0.0000     0.0000 </r>
        <r>   -35.3939     0.0000     0.0000     0.0000     0.0000     0.0000     0.0000     0.0000     0.0000     0.0000 </r>
        <r>   -35.1760     0.0000     0.0000     0.0000     0.0000     0.0000     0.0000     0.0000     0.0000     0.0000 </r>
        <r>   -34.9581     0.0000     0.0000     0.0000     0.0000     0.0000     0.0000     0.0000     0.0000     0.0000 </r>
        <r>   -34.7403     0.0000     0.0000     0.0000     0.0000     0.0000     0.0000     0.0000     0.0000     0.0000 </r>
        <r>   -34.5224     0.0000     0.0000     0.0000     0.0000     0.0000     0.0000     0.0000     0.0000     0.0000 </r>
        <r>   -34.3045     0.0000     0.0000     0.0000     0.0000     0.0000     0.0000     0.0000     0.0000     0.0000 </r>
        <r>   -34.0867     0.0000     0.0000     0.0000     0.0000     0.0000     0.0000     0.0000     0.0000     0.0000 </r>
        <r>   -33.8688     0.0000     0.0000     0.0000     0.0000     0.0000     0.0000     0.0000     0.0000     0.0000 </r>
        <r>   -33.6509     0.0000     3.5174     3.5173     3.5174     0.0000     0.0000     0.0000     0.0000     0.0000 </r>
        <r>   -33.4331     0.0000     1.0196     1.0197     1.0196     0.0000     0.0000     0.0000     0.0000     0.0000 </r>
        <r>   -33.2152     0.0000     0.0000     0.0000     0.0000     0.0000     0.0000     0.0000     0.0000     0.0000 </r>
        <r>   -32.9973     0.0000     0.0000     0.0000     0.0000     0.0000     0.0000     0.0000     0.0000     0.0000 </r>
        <r>   -32.7795     0.0000     0.0000     0.0000     0.0000     0.0000     0.0000     0.0000     0.0000     0.0000 </r>
        <r>   -32.5616     0.0000     0.0000     0.0000     0.0000     0.0000     0.0000     0.0000     0.0000     0.0000 </r>
        <r>   -32.3438     0.0000     0.0000     0.0000     0.0000     0.0000     0.0000     0.0000     0.0000     0.0000 </r>
        <r>   -32.1259     0.0000     0.0000     0.0000     0.0000     0.0000     0.0000     0.0000     0.0000     0.0000 </r>
        <r>   -31.9080     0.0000     0.0000     0.0000     0.0000     0.0000     0.0000     0.0000     0.0000     0.0000 </r>
        <r>   -31.6902     0.0000     0.0000     0.0000     0.0000     0.0000     0.0000     0.0000     0.0000     0.0000 </r>
        <r>   -31.4723     0.0000     0.0000     0.0000     0.0000     0.0000     0.0000     0.0000     0.0000     0.0000 </r>
        <r>   -31.2544     0.0000     0.0000     0.0000     0.0000     0.0000     0.0000     0.0000     0.0000     0.0000 </r>
        <r>   -31.0366     0.0000     0.0000     0.0000     0.0000     0.0000     0.0000     0.0000     0.0000     0.0000 </r>
        <r>   -30.8187     0.0000     0.0000     0.0000     0.0000     0.0000     0.0000     0.0000     0.0000     0.0000 </r>
        <r>   -30.6008     0.0000     0.0000     0.0000     0.0000     0.0000     0.0000     0.0000     0.0000     0.0000 </r>
        <r>   -30.3830     0.0000     0.0000     0.0000     0.0000     0.0000     0.0000     0.0000     0.0000     0.0000 </r>
        <r>   -30.1651     0.0000     0.0000     0.0000     0.0000     0.0000     0.0000     0.0000     0.0000     0.0000 </r>
        <r>   -29.9472     0.0000     0.0000     0.0000     0.0000     0.0000     0.0000     0.0000     0.0000     0.0000 </r>
        <r>   -29.7294     0.0000     0.0000     0.0000     0.0000     0.0000     0.0000     0.0000     0.0000     0.0000 </r>
        <r>   -29.5115     0.0000     0.0000     0.0000     0.0000     0.0000     0.0000     0.0000     0.0000     0.0000 </r>
        <r>   -29.2936     0.0000     0.0000     0.0000     0.0000     0.0000     0.0000     0.0000     0.0000     0.0000 </r>
        <r>   -29.0758     0.0000     0.0000     0.0000     0.0000     0.0000     0.0000     0.0000     0.0000     0.0000 </r>
        <r>   -28.8579     0.0000     0.0000     0.0000     0.0000     0.0000     0.0000     0.0000     0.0000     0.0000 </r>
        <r>   -28.6400     0.0000     0.0000     0.0000     0.0000     0.0000     0.0000     0.0000     0.0000     0.0000 </r>
        <r>   -28.4222     0.0000     0.0000     0.0000     0.0000     0.0000     0.0000     0.0000     0.0000     0.0000 </r>
        <r>   -28.2043     0.0000     0.0000     0.0000     0.0000     0.0000     0.0000     0.0000     0.0000     0.0000 </r>
        <r>   -27.9864     0.0000     0.0000     0.0000     0.0000     0.0000     0.0000     0.0000     0.0000     0.0000 </r>
        <r>   -27.7686     0.0000     0.0000     0.0000     0.0000     0.0000     0.0000     0.0000     0.0000     0.0000 </r>
        <r>   -27.5507     0.0000     0.0000     0.0000     0.0000     0.0000     0.0000     0.0000     0.0000     0.0000 </r>
        <r>   -27.3329     0.0000     0.0000     0.0000     0.0000     0.0000     0.0000     0.0000     0.0000     0.0000 </r>
        <r>   -27.1150     0.0000     0.0000     0.0000     0.0000     0.0000     0.0000     0.0000     0.0000     0.0000 </r>
        <r>   -26.8971     0.0000     0.0000     0.0000     0.0000     0.0000     0.0000     0.0000     0.0000     0.0000 </r>
        <r>   -26.6793     0.0000     0.0000     0.0000     0.0000     0.0000     0.0000     0.0000     0.0000     0.0000 </r>
        <r>   -26.4614     0.0000     0.0000     0.0000     0.0000     0.0000     0.0000     0.0000     0.0000     0.0000 </r>
        <r>   -26.2435     0.0000     0.0000     0.0000     0.0000     0.0000     0.0000     0.0000     0.0000     0.0000 </r>
        <r>   -26.0257     0.0000     0.0000     0.0000     0.0000     0.0000     0.0000     0.0000     0.0000     0.0000 </r>
        <r>   -25.8078     0.0000     0.0000     0.0000     0.0000     0.0000     0.0000     0.0000     0.0000     0.0000 </r>
        <r>   -25.5899     0.0000     0.0000     0.0000     0.0000     0.0000     0.0000     0.0000     0.0000     0.0000 </r>
        <r>   -25.3721     0.0000     0.0000     0.0000     0.0000     0.0000     0.0000     0.0000     0.0000     0.0000 </r>
        <r>   -25.1542     0.0000     0.0000     0.0000     0.0000     0.0000     0.0000     0.0000     0.0000     0.0000 </r>
        <r>   -24.9363     0.0000     0.0000     0.0000     0.0000     0.0000     0.0000     0.0000     0.0000     0.0000 </r>
        <r>   -24.7185     0.0000     0.0000     0.0000     0.0000     0.0000     0.0000     0.0000     0.0000     0.0000 </r>
        <r>   -24.5006     0.0000     0.0000     0.0000     0.0000     0.0000     0.0000     0.0000     0.0000     0.0000 </r>
        <r>   -24.2827     0.0000     0.0000     0.0000     0.0000     0.0000     0.0000     0.0000     0.0000     0.0000 </r>
        <r>   -24.0649     0.0000     0.0000     0.0000     0.0000     0.0000     0.0000     0.0000     0.0000     0.0000 </r>
        <r>   -23.8470     0.0000     0.0000     0.0000     0.0000     0.0000     0.0000     0.0000     0.0000     0.0000 </r>
        <r>   -23.6291     0.0000     0.0000     0.0000     0.0000     0.0000     0.0000     0.0000     0.0000     0.0000 </r>
        <r>   -23.4113     0.0000     0.0000     0.0000     0.0000     0.0000     0.0000     0.0000     0.0000     0.0000 </r>
        <r>   -23.1934     0.0000     0.0000     0.0000     0.0000     0.0000     0.0000     0.0000     0.0000     0.0000 </r>
        <r>   -22.9756     0.0000     0.0000     0.0000     0.0000     0.0000     0.0000     0.0000     0.0000     0.0000 </r>
        <r>   -22.7577     0.0000     0.0000     0.0000     0.0000     0.0000     0.0000     0.0000     0.0000     0.0000 </r>
        <r>   -22.5398     0.0000     0.0000     0.0000     0.0000     0.0000     0.0000     0.0000     0.0000     0.0000 </r>
        <r>   -22.3220     0.0000     0.0000     0.0000     0.0000     0.0000     0.0000     0.0000     0.0000     0.0000 </r>
        <r>   -22.1041     0.0000     0.0000     0.0000     0.0000     0.0000     0.0000     0.0000     0.0000     0.0000 </r>
        <r>   -21.8862     0.0000     0.0000     0.0000     0.0000     0.0000     0.0000     0.0000     0.0000     0.0000 </r>
        <r>   -21.6684     0.0000     0.0000     0.0000     0.0000     0.0000     0.0000     0.0000     0.0000     0.0000 </r>
        <r>   -21.4505     0.0000     0.0000     0.0000     0.0000     0.0000     0.0000     0.0000     0.0000     0.0000 </r>
        <r>   -21.2326     0.0000     0.0000     0.0000     0.0000     0.0000     0.0000     0.0000     0.0000     0.0000 </r>
        <r>   -21.0148     0.0000     0.0000     0.0000     0.0000     0.0000     0.0000     0.0000     0.0000     0.0000 </r>
        <r>   -20.7969     0.0000     0.0000     0.0000     0.0000     0.0000     0.0000     0.0000     0.0000     0.0000 </r>
        <r>   -20.5790     0.0000     0.0000     0.0000     0.0000     0.0000     0.0000     0.0000     0.0000     0.0000 </r>
[...]
        <r>    -2.4962     0.0000     0.0000     0.0000     0.0000     2.2513     2.2507     0.9551     2.2501     0.9545 </r>
        <r>    -2.2784     0.0000     0.0000     0.0000     0.0000     1.3006     1.3008     0.0002     1.3004     0.0002 </r>
        <r>    -2.0605     0.0000     0.0000     0.0000     0.0000     0.0000     0.0000     0.0000     0.0000     0.0000 </r>
        <r>    -1.8426     0.0000     0.0000     0.0000     0.0000     0.0000     0.0000     0.0000     0.0000     0.0000 </r>
        <r>    -1.6248     0.0000     0.0000     0.0000     0.0000     0.0000     0.0000     0.0000     0.0000     0.0000 </r>
        <r>    -1.4069     0.0000     0.0000     0.0000     0.0000     0.0000     0.0000     0.0000     0.0000     0.0000 </r>
        <r>    -1.1890     0.0000     0.0001     0.0001     0.0001     0.0000     0.0000     0.0000     0.0000     0.0000 </r>
        <r>    -0.9712     0.0000     0.3330     0.3349     0.3343     0.0000     0.0001     0.0000     0.0001     0.0001 </r>
        <r>    -0.7533     0.0000     0.0012     0.0012     0.0012     0.0000     0.0000     0.0000     0.0000     0.0000 </r>
        <r>    -0.5354     0.0000     0.0000     0.0000     0.0000     0.0000     0.0000     0.0000     0.0000     0.0000 </r>
        <r>    -0.3176     0.0011     0.0000     0.0000     0.0000     0.0000     0.0000     0.0000     0.0000     0.0000 </r>
        <r>    -0.0997     0.1678     0.0000     0.0000     0.0000     0.0000     0.0000     0.0000     0.0000     0.0000 </r>
        <r>     0.1181     0.0000     0.0000     0.0000     0.0000     0.0000     0.0000     0.0000     0.0000     0.0000 </r>
        <r>     0.3360     0.0000     0.0000     0.0000     0.0000     0.0000     0.0000     0.0000     0.0000     0.0000 </r>
        <r>     0.5539     0.0000     0.0000     0.0000     0.0000     0.0000     0.0000     0.0000     0.0000     0.0000 </r>
        <r>     0.7717     0.0000     0.0000     0.0000     0.0000     0.0000     0.0000     0.1501     0.0000     0.1498 </r>
        <r>     0.9896     0.0000     0.0000     0.0000     0.0000     0.0000     0.0000     0.0005     0.0000     0.0005 </r>
        <r>     1.2075     0.0000     0.0000     0.0000     0.0000     0.0000     0.0000     0.0000     0.0000     0.0000 </r>
        <r>     1.4253     0.0000     0.0076     0.0074     0.0071     0.0000     0.0000     0.0000     0.0000     0.0000 </r>
        <r>     1.6432     0.0002     0.0982     0.0957     0.0964     0.0002     0.0002     0.0000     0.0000     0.0000 </r>
        <r>     1.8611     0.1658     0.0001     0.0000     0.0002     0.2297     0.2306     0.0000     0.2314     0.0000 </r>
        <r>     2.0789     0.0008     0.0000     0.0000     0.0000     0.0458     0.0456     0.0000     0.0455     0.0000 </r>
        <r>     2.2968     0.0000     0.0002     0.0000     0.0001     0.0004     0.0002     0.0123     0.0002     0.0294 </r>
        <r>     2.5147     0.0000     0.0000     0.0000     0.0000     0.0000     0.0000     0.0527     0.0000     0.0355 </r>
        <r>     2.7325     0.0000     0.0000     0.0000     0.0000     0.0000     0.0000     0.0000     0.0000     0.0000 </r>
        <r>     2.9504     0.0000     0.0000     0.0000     0.0000     0.0000     0.0000     0.0000     0.0000     0.0000 </r>
        <r>     3.1683     0.0000     0.0000     0.0000     0.0000     0.0000     0.0000     0.0000     0.0000     0.0000 </r>
        <r>     3.3861     0.0000     0.0000     0.0000     0.0000     0.0000     0.0000     0.0000     0.0000     0.0000 </r>
        <r>     3.6040     0.0164     0.0240     0.0234     0.0949     0.0758     0.0555     0.0001     0.0420     0.0004 </r>
        <r>     3.8219     0.0928     0.0342     0.0080     0.0337     0.0090     0.0368     0.0001     0.0504     0.0005 </r>
        <r>     4.0397     0.0001     0.0000     0.0000     0.0000     0.0000     0.0000     0.0000     0.0000     0.0000 </r>
        <r>     4.2576     0.0018     0.0038     0.0164     0.0007     0.0018     0.0000     0.0238     0.0000     0.1525 </r>
        <r>     4.4754     0.0003     0.0005     0.0023     0.0001     0.0003     0.0000     0.0034     0.0000     0.0216 </r>
        <r>     4.6933     0.0000     0.0000     0.0000     0.0000     0.0000     0.0000     0.0000     0.0000     0.0000 </r>
        <r>     4.9112     0.0000     0.0000     0.0000     0.0000     0.0000     0.0000     0.0000     0.0000     0.0000 </r>
        <r>     5.1290     0.0000     0.0000     0.0000     0.0000     0.0000     0.0000     0.0000     0.0000     0.0000 </r>
        <r>     5.3469     0.0000     0.0000     0.0000     0.0000     0.0000     0.0000     0.0000     0.0000     0.0000 </r>
        <r>     5.5648     0.0000     0.0000     0.0000     0.0000     0.0000     0.0000     0.0000     0.0000     0.0000 </r>
        <r>     5.7826     0.0000     0.0000     0.0000     0.0000     0.0000     0.0000     0.0000     0.0000     0.0000 </r>
        <r>     6.0005     0.0000     0.0000     0.0000     0.0000     0.0000     0.0000     0.0000     0.0000     0.0000 </r>
        <r>     6.2184     0.0000     0.0000     0.0000     0.0000     0.0000     0.0000     0.0000     0.0000     0.0000 </r>
        <r>     6.4362     0.0000     0.0000     0.0000     0.0000     0.0000     0.0000     0.0000     0.0000     0.0000 </r>
        <r>     6.6541     0.0000     0.0000     0.0000     0.0000     0.0000     0.0000     0.0000     0.0000     0.0000 </r>
        <r>     6.8720     0.0000     0.0000     0.0000     0.0000     0.0000     0.0000     0.0000     0.0000     0.0000 </r>
        <r>     7.0898     0.0000     0.0000     0.0000     0.0000     0.0000     0.0000     0.0000     0.0000     0.0000 </r>
        <r>     7.3077     0.0000     0.0000     0.0000     0.0000     0.0000     0.0000     0.0000     0.0000     0.0000 </r>
       </set>
      </set>
     </set>
    </array>
   </partial>
  </dos>
  <projected>
   <eigenvalues>
    <array>
     <dimension dim="1">band</dimension>
     <dimension dim="2">kpoint</dimension>
     <dimension dim="3">spin</dimension>
     <field>eigene</field>
     <field>occ</field>
     <set>
      <set comment="spin 1">
       <set comment="kpoint 1">
        <r>  -55.0809    1.0000 </r>
        <r>  -33.6777    1.0000 </r>
        <r>  -33.6777    1.0000 </r>
        <r>  -33.6777    1.0000 </r>
        <r>   -4.0541    1.0000 </r>
        <r>   -3.3993    0.3336 </r>
        <r>   -3.3993    0.3333 </r>
        <r>   -3.3993    0.3332 </r>
        <r>   -3.0393    0.0000 </r>
        <r>   -3.0393    0.0000 </r>
        <r>   -1.2134    0.0000 </r>
        <r>   -1.2131    0.0000 </r>
        <r>   -1.2128    0.0000 </r>
        <r>   -0.2379    0.0000 </r>
        <r>    0.6815    0.0000 </r>
        <r>    0.6815    0.0000 </r>
        <r>    1.4783    0.0000 </r>
        <r>    1.4800    0.0000 </r>
        <r>    1.4873    0.0000 </r>
        <r>    1.7404    0.0000 </r>
        <r>    1.7426    0.0000 </r>
        <r>    1.7516    0.0000 </r>
        <r>    1.7562    0.0000 </r>
        <r>    2.2277    0.0000 </r>
        <r>    2.2573    0.0000 </r>
        <r>    2.2701    0.0000 </r>
        <r>    2.2834    0.0000 </r>
        <r>    2.3563    0.0000 </r>
        <r>    3.4494    0.0000 </r>
        <r>    3.5211    0.0000 </r>
        <r>    3.5356    0.0000 </r>
        <r>    3.5780    0.0000 </r>
        <r>    3.5884    0.0000 </r>
        <r>    3.5969    0.0000 </r>
        <r>    3.6437    0.0000 </r>
        <r>    4.3368    0.0000 </r>
       </set>
      </set>
      <set comment="spin 2">
       <set comment="kpoint 1">
        <r>  -54.3146    1.0000 </r>
        <r>  -32.9108    1.0000 </r>
        <r>  -32.9108    1.0000 </r>
        <r>  -32.9108    1.0000 </r>
        <r>   -3.7897    1.0000 </r>
        <r>   -2.7361    0.0000 </r>
        <r>   -2.7360    0.0000 </r>
        <r>   -2.5083    0.0000 </r>
        <r>   -2.5083    0.0000 </r>
        <r>   -2.5083    0.0000 </r>
        <r>   -1.0664    0.0000 </r>
        <r>   -1.0662    0.0000 </r>
        <r>   -1.0661    0.0000 </r>
        <r>   -0.2303    0.0000 </r>
        <r>    0.6748    0.0000 </r>
        <r>    0.6748    0.0000 </r>
        <r>    1.4766    0.0000 </r>
        <r>    1.4770    0.0000 </r>
        <r>    1.4782    0.0000 </r>
        <r>    1.7694    0.0000 </r>
        <r>    1.8265    0.0000 </r>
        <r>    1.8266    0.0000 </r>
        <r>    1.8269    0.0000 </r>
        <r>    2.2136    0.0000 </r>
        <r>    2.2194    0.0000 </r>
        <r>    2.2312    0.0000 </r>
        <r>    2.3118    0.0000 </r>
        <r>    2.3297    0.0000 </r>
        <r>    3.4990    0.0000 </r>
        <r>    3.4996    0.0000 </r>
        <r>    3.5319    0.0000 </r>
        <r>    3.6026    0.0000 </r>
        <r>    3.6113    0.0000 </r>
        <r>    3.6202    0.0000 </r>
        <r>    3.7079    0.0000 </r>
        <r>    4.2168    0.0000 </r>
       </set>
      </set>
     </set>
    </array>
   </eigenvalues>
   <array>
    <dimension dim="1">ion</dimension>
    <dimension dim="2">band</dimension>
    <dimension dim="3">kpoint</dimension>
    <dimension dim="4">spin</dimension>
    <field>    s</field>
    <field>   py</field>
    <field>   pz</field>
    <field>   px</field>
    <field>  dxy</field>
    <field>  dyz</field>
    <field>  dz2</field>
    <field>  dxz</field>
    <field>x2-y2</field>
    <set>
     <set comment="spin1">
      <set comment="kpoint 1">
       <set comment="band 1">
        <r>  0.9966  0.0000  0.0000  0.0000  0.0000  0.0000  0.0000  0.0000  0.0000 </r>
       </set>
       <set comment="band 2">
        <r>  0.0000  0.0000  0.0000  0.9885  0.0000  0.0000  0.0000  0.0000  0.0000 </r>
       </set>
       <set comment="band 3">
        <r>  0.0000  0.9885  0.0000  0.0000  0.0000  0.0000  0.0000  0.0000  0.0000 </r>
       </set>
       <set comment="band 4">
        <r>  0.0000  0.0000  0.9885  0.0000  0.0000  0.0000  0.0000  0.0000  0.0000 </r>
       </set>
       <set comment="band 5">
        <r>  0.2344  0.0000  0.0000  0.0000  0.0000  0.0000  0.0000  0.0000  0.0000 </r>
       </set>
       <set comment="band 6">
        <r>  0.0000  0.0000  0.0000  0.0000  0.0028  0.0022  0.0000  0.7992  0.0000 </r>
       </set>
       <set comment="band 7">
        <r>  0.0000  0.0000  0.0000  0.0000  0.4820  0.3221  0.0000  0.0001  0.0000 </r>
       </set>
       <set comment="band 8">
        <r>  0.0000  0.0000  0.0000  0.0000  0.3193  0.4799  0.0000  0.0049  0.0000 </r>
       </set>
       <set comment="band 9">
        <r>  0.0000  0.0000  0.0000  0.0000  0.0000  0.0000  0.0872  0.0000  0.7062 </r>
       </set>
       <set comment="band 10">
        <r>  0.0000  0.0000  0.0000  0.0000  0.0000  0.0000  0.7060  0.0000  0.0872 </r>
       </set>
       <set comment="band 11">
        <r>  0.0000  0.0571  0.0171  0.0074  0.0000  0.0000  0.0000  0.0000  0.0000 </r>
       </set>
       <set comment="band 12">
        <r>  0.0000  0.0002  0.0302  0.0507  0.0000  0.0000  0.0000  0.0000  0.0000 </r>
       </set>
       <set comment="band 13">
        <r>  0.0000  0.0239  0.0339  0.0230  0.0000  0.0000  0.0000  0.0000  0.0000 </r>
       </set>
       <set comment="band 14">
        <r>  0.0373  0.0000  0.0000  0.0000  0.0000  0.0000  0.0000  0.0000  0.0000 </r>
       </set>
       <set comment="band 15">
        <r>  0.0000  0.0000  0.0000  0.0000  0.0000  0.0000  0.0272  0.0000  0.0016 </r>
       </set>
       <set comment="band 16">
        <r>  0.0000  0.0000  0.0000  0.0000  0.0000  0.0000  0.0016  0.0000  0.0270 </r>
       </set>
       <set comment="band 17">
        <r>  0.0000  0.0001  0.0107  0.0131  0.0001  0.0001  0.0000  0.0000  0.0000 </r>
       </set>
       <set comment="band 18">
        <r>  0.0000  0.0119  0.0077  0.0044  0.0001  0.0002  0.0000  0.0000  0.0000 </r>
       </set>
       <set comment="band 19">
        <r>  0.0000  0.0122  0.0059  0.0059  0.0006  0.0001  0.0000  0.0001  0.0000 </r>
       </set>
       <set comment="band 20">
        <r>  0.0006  0.0002  0.0000  0.0001  0.0306  0.0092  0.0000  0.0086  0.0000 </r>
       </set>
       <set comment="band 21">
        <r>  0.0000  0.0000  0.0000  0.0000  0.0057  0.0034  0.0000  0.0412  0.0000 </r>
       </set>
       <set comment="band 22">
        <r>  0.0148  0.0000  0.0000  0.0001  0.0102  0.0198  0.0000  0.0000  0.0000 </r>
       </set>
       <set comment="band 23">
        <r>  0.0218  0.0001  0.0000  0.0000  0.0028  0.0172  0.0000  0.0003  0.0000 </r>
       </set>
       <set comment="band 24">
        <r>  0.0000  0.0000  0.0000  0.0001  0.0000  0.0000  0.0003  0.0000  0.0000 </r>
       </set>
       <set comment="band 25">
        <r>  0.0000  0.0000  0.0001  0.0000  0.0000  0.0000  0.0033  0.0000  0.0000 </r>
       </set>
       <set comment="band 26">
        <r>  0.0000  0.0000  0.0000  0.0001  0.0000  0.0000  0.0035  0.0000  0.0006 </r>
       </set>
       <set comment="band 27">
        <r>  0.0000  0.0000  0.0000  0.0000  0.0000  0.0000  0.0054  0.0000  0.0001 </r>
       </set>
       <set comment="band 28">
        <r>  0.0000  0.0000  0.0000  0.0000  0.0000  0.0000  0.0004  0.0000  0.0121 </r>
       </set>
       <set comment="band 29">
        <r>  0.0001  0.0001  0.0036  0.0009  0.0002  0.0039  0.0000  0.0016  0.0000 </r>
       </set>
       <set comment="band 30">
        <r>  0.0002  0.0005  0.0004  0.0206  0.0003  0.0006  0.0000  0.0046  0.0000 </r>
       </set>
       <set comment="band 31">
        <r>  0.0006  0.0005  0.0004  0.0000  0.0007  0.0085  0.0000  0.0030  0.0000 </r>
       </set>
       <set comment="band 32">
        <r>  0.0001  0.0001  0.0000  0.0075  0.0013  0.0043  0.0000  0.0077  0.0000 </r>
       </set>
       <set comment="band 33">
        <r>  0.0000  0.0003  0.0006  0.0018  0.0149  0.0000  0.0000  0.0005  0.0000 </r>
       </set>
       <set comment="band 34">
        <r>  0.0128  0.0003  0.0140  0.0007  0.0001  0.0000  0.0000  0.0001  0.0000 </r>
       </set>
       <set comment="band 35">
        <r>  0.0161  0.0005  0.0130  0.0000  0.0001  0.0005  0.0000  0.0000  0.0000 </r>
       </set>
       <set comment="band 36">
        <r>  0.0039  0.0000  0.0010  0.0015  0.0000  0.0000  0.0007  0.0000  0.0387 </r>
       </set>
      </set>
     </set>
     <set comment="spin2">
      <set comment="kpoint 1">
       <set comment="band 1">
        <r>  0.9965  0.0000  0.0000  0.0000  0.0000  0.0000  0.0000  0.0000  0.0000 </r>
       </set>
       <set comment="band 2">
        <r>  0.0000  0.9880  0.0000  0.0000  0.0000  0.0000  0.0000  0.0000  0.0000 </r>
       </set>
       <set comment="band 3">
        <r>  0.0000  0.0000  0.9880  0.0000  0.0000  0.0000  0.0000  0.0000  0.0000 </r>
       </set>
       <set comment="band 4">
        <r>  0.0000  0.0000  0.0000  0.9880  0.0000  0.0000  0.0000  0.0000  0.0000 </r>
       </set>
       <set comment="band 5">
        <r>  0.2160  0.0000  0.0000  0.0000  0.0000  0.0000  0.0000  0.0000  0.0000 </r>
       </set>
       <set comment="band 6">
        <r>  0.0000  0.0000  0.0000  0.0000  0.0000  0.0000  0.3413  0.0000  0.4368 </r>
       </set>
       <set comment="band 7">
        <r>  0.0000  0.0000  0.0000  0.0000  0.0000  0.0000  0.4367  0.0002  0.3410 </r>
       </set>
       <set comment="band 8">
        <r>  0.0000  0.0000  0.0000  0.0000  0.6170  0.1357  0.0000  0.0212  0.0000 </r>
       </set>
       <set comment="band 9">
        <r>  0.0000  0.0000  0.0000  0.0000  0.1311  0.2885  0.0001  0.3539  0.0001 </r>
       </set>
       <set comment="band 10">
        <r>  0.0000  0.0000  0.0000  0.0000  0.0257  0.3496  0.0000  0.3985  0.0000 </r>
       </set>
       <set comment="band 11">
        <r>  0.0000  0.0003  0.0725  0.0004  0.0000  0.0000  0.0000  0.0000  0.0000 </r>
       </set>
       <set comment="band 12">
        <r>  0.0000  0.0112  0.0001  0.0617  0.0000  0.0000  0.0000  0.0000  0.0000 </r>
       </set>
       <set comment="band 13">
        <r>  0.0000  0.0613  0.0006  0.0110  0.0000  0.0000  0.0000  0.0000  0.0000 </r>
       </set>
       <set comment="band 14">
        <r>  0.0368  0.0000  0.0000  0.0000  0.0000  0.0000  0.0000  0.0000  0.0000 </r>
       </set>
       <set comment="band 15">
        <r>  0.0000  0.0000  0.0000  0.0000  0.0000  0.0000  0.0089  0.0000  0.0239 </r>
       </set>
       <set comment="band 16">
        <r>  0.0000  0.0000  0.0000  0.0000  0.0000  0.0000  0.0239  0.0000  0.0088 </r>
       </set>
       <set comment="band 17">
        <r>  0.0000  0.0001  0.0170  0.0054  0.0000  0.0000  0.0000  0.0000  0.0000 </r>
       </set>
       <set comment="band 18">
        <r>  0.0000  0.0229  0.0002  0.0000  0.0000  0.0000  0.0000  0.0000  0.0000 </r>
       </set>
       <set comment="band 19">
        <r>  0.0000  0.0000  0.0053  0.0172  0.0000  0.0000  0.0000  0.0000  0.0000 </r>
       </set>
       <set comment="band 20">
        <r>  0.0362  0.0000  0.0000  0.0000  0.0001  0.0000  0.0000  0.0000  0.0000 </r>
       </set>
       <set comment="band 21">
        <r>  0.0000  0.0000  0.0000  0.0000  0.0047  0.0059  0.0000  0.0496  0.0000 </r>
       </set>
       <set comment="band 22">
        <r>  0.0000  0.0000  0.0000  0.0000  0.0049  0.0520  0.0000  0.0033  0.0000 </r>
       </set>
       <set comment="band 23">
        <r>  0.0001  0.0000  0.0000  0.0000  0.0503  0.0022  0.0000  0.0074  0.0000 </r>
       </set>
       <set comment="band 24">
        <r>  0.0000  0.0000  0.0000  0.0000  0.0000  0.0000  0.0000  0.0000  0.0000 </r>
       </set>
       <set comment="band 25">
        <r>  0.0000  0.0000  0.0000  0.0000  0.0001  0.0000  0.0002  0.0000  0.0005 </r>
       </set>
       <set comment="band 26">
        <r>  0.0000  0.0000  0.0000  0.0000  0.0000  0.0000  0.0000  0.0000  0.0021 </r>
       </set>
       <set comment="band 27">
        <r>  0.0000  0.0000  0.0000  0.0000  0.0000  0.0000  0.0001  0.0000  0.0115 </r>
       </set>
       <set comment="band 28">
        <r>  0.0000  0.0000  0.0000  0.0000  0.0000  0.0000  0.0138  0.0000  0.0000 </r>
       </set>
       <set comment="band 29">
        <r>  0.0002  0.0001  0.0034  0.0005  0.0054  0.0025  0.0000  0.0010  0.0000 </r>
       </set>
       <set comment="band 30">
        <r>  0.0000  0.0009  0.0002  0.0000  0.0094  0.0008  0.0000  0.0001  0.0000 </r>
       </set>
       <set comment="band 31">
        <r>  0.0033  0.0012  0.0004  0.0194  0.0001  0.0005  0.0000  0.0002  0.0000 </r>
       </set>
       <set comment="band 32">
        <r>  0.0000  0.0000  0.0012  0.0005  0.0028  0.0158  0.0000  0.0000  0.0000 </r>
       </set>
       <set comment="band 33">
        <r>  0.0001  0.0000  0.0005  0.0000  0.0005  0.0004  0.0000  0.0187  0.0000 </r>
       </set>
       <set comment="band 34">
        <r>  0.0000  0.0094  0.0008  0.0028  0.0003  0.0001  0.0000  0.0000  0.0001 </r>
       </set>
       <set comment="band 35">
        <r>  0.0201  0.0010  0.0004  0.0048  0.0001  0.0001  0.0000  0.0001  0.0000 </r>
       </set>
       <set comment="band 36">
        <r>  0.0004  0.0009  0.0041  0.0002  0.0005  0.0000  0.0059  0.0000  0.0379 </r>
       </set>
      </set>
     </set>
    </set>
   </array>
  </projected>
 </calculation>
 <structure name="finalpos" >
  <crystal>
   <varray name="basis" >
    <v>      10.00000000       0.00000000       0.00000000 </v>
    <v>       0.00000000      10.00000000       0.00000000 </v>
    <v>       0.00000000       0.00000000      10.00000000 </v>
   </varray>
   <i name="volume">   1000.00000000 </i>
   <varray name="rec_basis" >
    <v>       0.10000000       0.00000000       0.00000000 </v>
    <v>       0.00000000       0.10000000       0.00000000 </v>
    <v>       0.00000000       0.00000000       0.10000000 </v>
   </varray>
  </crystal>
  <varray name="positions" >
   <v>       0.50000000       0.50000000       0.50000000 </v>
  </varray>
 </structure>
</modeling>
