       N       E                     dE             d eps       ncg     rms          ort
DAV:   1     0.793322034516E+02    0.79332E+02   -0.23410E+03    36   0.150E+02
DAV:   2     0.979985459962E+01   -0.69532E+02   -0.69478E+02    36   0.580E+01
DAV:   3     0.598003227138E+00   -0.92019E+01   -0.92012E+01    36   0.231E+01
DAV:   4     0.520601157730E-01   -0.54594E+00   -0.54578E+00    36   0.842E+00
DAV:   5     0.306826076721E-01   -0.21378E-01   -0.21369E-01    36   0.119E+00
SDA:   6    -0.202115062081E+00   -0.23280E+00   -0.12027E+00    36   0.301E+00 0.000E+00
DMP:   7    -0.251080623018E+00   -0.48966E-01   -0.20531E-01    36   0.498E-01 0.402E-02
DMP:   8    -0.255860065864E+00   -0.47794E-02   -0.31889E-02    36   0.833E-02-0.930E-03
DMP:   9    -0.257616118206E+00   -0.17561E-02   -0.13504E-02    36   0.307E-02 0.808E-03
DMP:  10    -0.258449519869E+00   -0.83340E-03   -0.62952E-03    36   0.129E-02 0.745E-03
DMP:  11    -0.258874502203E+00   -0.42498E-03   -0.27351E-03    36   0.481E-03 0.531E-03
DMP:  12    -0.259057637950E+00   -0.18314E-03   -0.11455E-03    36   0.199E-03 0.229E-03
DMP:  13    -0.259137989407E+00   -0.80351E-04   -0.45021E-04    36   0.691E-04 0.114E-03
DMP:  14    -0.259169630034E+00   -0.31641E-04   -0.18307E-04    36   0.288E-04 0.444E-04
   1 F= -.25916963E+00 E0= -.25916963E+00  d E =-.259170E+00  mag=     1.0000
