<?xml version="1.0" encoding="ISO-8859-1"?>
<modeling>
 <generator>
  <i name="program" type="string">vasp </i>
  <i name="version" type="string">5.4.4.18Apr17-6-g9f103f2a35  </i>
  <i name="subversion" type="string">(build Nov 08 2019 15:19:53) gamma-only         parallel </i>
  <i name="platform" type="string">LinuxIFC </i>
  <i name="date" type="string">2020 11 30 </i>
  <i name="time" type="string">09:31:00 </i>
 </generator>
 <incar>
  <i type="string" name="PREC">accurate</i>
  <i type="string" name="ALGO"> D</i>
  <i type="int" name="ISPIN">     2</i>
  <i type="int" name="NELM">   300</i>
  <i type="int" name="IBRION">     2</i>
  <i name="EDIFF">      0.00005000</i>
  <i type="int" name="NSW">    99</i>
  <i type="int" name="ISIF">     2</i>
  <i name="ENCUT">    520.00000000</i>
  <v name="MAGMOM">      0.60000000</v>
  <i type="string" name="LREAL"> Auto</i>
  <i type="int" name="ISMEAR">     0</i>
  <i name="SIGMA">      0.05000000</i>
  <i type="logical" name="LWAVE"> F  </i>
  <i type="int" name="LORBIT">    11</i>
  <i type="logical" name="LASPH"> T  </i>
  <v type="int" name="KPOINT_BSE">    -1     0     0     0</v>
  <i type="int" name="NELM">   300</i>
  <i type="logical" name="LASPH"> T  </i>
 </incar>
 <structure name="primitive_cell" >
  <crystal>
   <varray name="basis" >
    <v>      10.00000000       0.00000000       0.00000000 </v>
    <v>       0.00000000      10.00000000       0.00000000 </v>
    <v>       0.00000000       0.00000000      10.00000000 </v>
   </varray>
   <i name="volume">   1000.00000000 </i>
   <varray name="rec_basis" >
    <v>       0.10000000       0.00000000       0.00000000 </v>
    <v>       0.00000000       0.10000000       0.00000000 </v>
    <v>       0.00000000       0.00000000       0.10000000 </v>
   </varray>
  </crystal>
  <varray name="positions" >
   <v>      -0.50000000      -0.50000000      -0.50000000 </v>
  </varray>
 </structure>
 <varray name="primitive_index" >
  <v type="int" >        1 </v>
 </varray>
 <kpoints>
  <generation param="Gamma">
   <v type="int" name="divisions">       1        1        1 </v>
   <v name="usershift">      0.00000000       0.00000000       0.00000000 </v>
   <v name="genvec1">      1.00000000       0.00000000       0.00000000 </v>
   <v name="genvec2">      0.00000000       1.00000000       0.00000000 </v>
   <v name="genvec3">      0.00000000       0.00000000       1.00000000 </v>
   <v name="shift">      0.00000000       0.00000000       0.00000000 </v>
  </generation>
  <varray name="kpointlist" >
   <v>       0.00000000       0.00000000       0.00000000 </v>
  </varray>
  <varray name="weights" >
   <v>       1.00000000 </v>
  </varray>
 </kpoints>
 <parameters>
  <separator name="general" >
   <i type="string" name="SYSTEM">unknown system</i>
   <i type="logical" name="LCOMPAT"> F  </i>
  </separator>
  <separator name="electronic" >
   <i type="string" name="PREC">accura</i>
   <i name="ENMAX">    520.00000000</i>
   <i name="ENAUG">    368.05600000</i>
   <i name="EDIFF">      0.00005000</i>
   <i type="int" name="IALGO">    53</i>
   <i type="int" name="IWAVPR">    11</i>
   <i type="int" name="NBANDS">    36</i>
   <i name="NELECT">      7.00000000</i>
   <i type="int" name="TURBO">     0</i>
   <i type="int" name="IRESTART">     0</i>
   <i type="int" name="NREBOOT">     0</i>
   <i type="int" name="NMIN">     0</i>
   <i name="EREF">      0.00000000</i>
   <separator name="electronic smearing" >
    <i type="int" name="ISMEAR">     0</i>
    <i name="SIGMA">      0.05000000</i>
    <i name="KSPACING">      0.50000000</i>
    <i type="logical" name="KGAMMA"> T  </i>
   </separator>
   <separator name="electronic projectors" >
    <i type="logical" name="LREAL"> T  </i>
    <v name="ROPT">     -0.00025000</v>
    <i type="int" name="LMAXPAW">  -100</i>
    <i type="int" name="LMAXMIX">     2</i>
    <i type="logical" name="NLSPLINE"> F  </i>
   </separator>
   <separator name="electronic startup" >
    <i type="int" name="ISTART">     0</i>
    <i type="int" name="ICHARG">     2</i>
    <i type="int" name="INIWAV">     1</i>
   </separator>
   <separator name="electronic spin" >
    <i type="int" name="ISPIN">     2</i>
    <i type="logical" name="LNONCOLLINEAR"> F  </i>
    <v name="MAGMOM">      0.60000000</v>
    <i name="NUPDOWN">     -1.00000000</i>
    <i type="logical" name="LSORBIT"> F  </i>
    <v name="SAXIS">      0.00000000      0.00000000      1.00000000</v>
    <i type="logical" name="LSPIRAL"> F  </i>
    <v name="QSPIRAL">      0.00000000      0.00000000      0.00000000</v>
    <i type="logical" name="LZEROZ"> F  </i>
   </separator>
   <separator name="electronic exchange-correlation" >
    <i type="logical" name="LASPH"> T  </i>
    <i type="logical" name="LMETAGGA"> F  </i>
   </separator>
   <separator name="electronic convergence" >
    <i type="int" name="NELM">   300</i>
    <i type="int" name="NELMDL">    -5</i>
    <i type="int" name="NELMIN">     2</i>
    <i name="ENINI">    520.00000000</i>
    <separator name="electronic convergence detail" >
     <i type="logical" name="LDIAG"> T  </i>
     <i type="logical" name="LSUBROT"> F  </i>
     <i name="WEIMIN">      0.00100000</i>
     <i name="EBREAK">      0.00000035</i>
     <i name="DEPER">      0.30000000</i>
     <i type="int" name="NRMM">     4</i>
     <i name="TIME">      0.40000000</i>
    </separator>
   </separator>
   <separator name="electronic mixer" >
    <i name="AMIX">      0.40000000</i>
    <i name="BMIX">      1.00000000</i>
    <i name="AMIN">      0.10000000</i>
    <i name="AMIX_MAG">      1.60000000</i>
    <i name="BMIX_MAG">      1.00000000</i>
    <separator name="electronic mixer details" >
     <i type="int" name="IMIX">     4</i>
     <i type="logical" name="MIXFIRST"> F  </i>
     <i type="int" name="MAXMIX">   -45</i>
     <i name="WC">    100.00000000</i>
     <i type="int" name="INIMIX">     1</i>
     <i type="int" name="MIXPRE">     1</i>
     <i type="int" name="MREMOVE">     5</i>
    </separator>
   </separator>
   <separator name="electronic dipolcorrection" >
    <i type="logical" name="LDIPOL"> F  </i>
    <i type="logical" name="LMONO"> F  </i>
    <i type="int" name="IDIPOL">     0</i>
    <i name="EPSILON">      1.00000000</i>
    <v name="DIPOL">   -100.00000000   -100.00000000   -100.00000000</v>
    <i name="EFIELD">      0.00000000</i>
   </separator>
  </separator>
  <separator name="grids" >
   <i type="int" name="NGX">    80</i>
   <i type="int" name="NGY">    80</i>
   <i type="int" name="NGZ">    80</i>
   <i type="int" name="NGXF">   160</i>
   <i type="int" name="NGYF">   160</i>
   <i type="int" name="NGZF">   160</i>
   <i type="logical" name="ADDGRID"> F  </i>
  </separator>
  <separator name="ionic" >
   <i type="int" name="NSW">    99</i>
   <i type="int" name="IBRION">     2</i>
   <i type="int" name="MDALGO">     0</i>
   <i type="int" name="ISIF">     2</i>
   <i name="PSTRESS">      0.00000000</i>
   <i name="EDIFFG">      0.00050000</i>
   <i type="int" name="NFREE">     1</i>
   <i name="POTIM">      0.50000000</i>
   <i name="SMASS">     -3.00000000</i>
   <i name="SCALEE">      1.00000000</i>
  </separator>
  <separator name="ionic md" >
   <i name="TEBEG">      0.00010000</i>
   <i name="TEEND">      0.00010000</i>
   <i type="int" name="NBLOCK">     1</i>
   <i type="int" name="KBLOCK">    99</i>
   <i type="int" name="NPACO">   256</i>
   <i name="APACO">     16.00000000</i>
  </separator>
  <separator name="symmetry" >
   <i type="int" name="ISYM">     2</i>
   <i name="SYMPREC">      0.00001000</i>
  </separator>
  <separator name="dos" >
   <i type="int" name="LORBIT">    11</i>
   <v name="RWIGS">     -1.00000000</v>
   <i type="int" name="NEDOS">   301</i>
   <i name="EMIN">     10.00000000</i>
   <i name="EMAX">    -10.00000000</i>
   <i name="EFERMI">      0.00000000</i>
  </separator>
  <separator name="writing" >
   <i type="int" name="NWRITE">     2</i>
   <i type="logical" name="LWAVE"> F  </i>
   <i type="logical" name="LDOWNSAMPLE"> F  </i>
   <i type="logical" name="LCHARG"> T  </i>
   <i type="logical" name="LPARD"> F  </i>
   <i type="logical" name="LVTOT"> F  </i>
   <i type="logical" name="LVHAR"> F  </i>
   <i type="logical" name="LELF"> F  </i>
   <i type="logical" name="LOPTICS"> F  </i>
   <v name="STM">      0.00000000      0.00000000      0.00000000      0.00000000      0.00000000      0.00000000      0.00000000</v>
  </separator>
  <separator name="performance" >
   <i type="int" name="NPAR">    36</i>
   <i type="int" name="NSIM">     4</i>
   <i type="int" name="NBLK">    -1</i>
   <i type="logical" name="LPLANE"> T  </i>
   <i type="logical" name="LSCALAPACK"> T  </i>
   <i type="logical" name="LSCAAWARE"> F  </i>
   <i type="logical" name="LSCALU"> F  </i>
   <i type="logical" name="LASYNC"> F  </i>
   <i type="logical" name="LORBITALREAL"> F  </i>
  </separator>
  <separator name="miscellaneous" >
   <i type="int" name="IDIOT">     3</i>
   <i type="int" name="ISPECIAL">     0</i>
   <i type="logical" name="LMUSIC"> F  </i>
   <v name="POMASS">     22.99000000</v>
   <v name="DARWINR">      0.00000000</v>
   <v name="DARWINV">      1.00000000</v>
   <i type="logical" name="LCORR"> T  </i>
  </separator>
  <i type="logical" name="GGA_COMPAT"> T  </i>
  <i type="logical" name="LBERRY"> F  </i>
  <i type="int" name="ICORELEVEL">     0</i>
  <i type="logical" name="LDAU"> F  </i>
  <i type="int" name="I_CONSTRAINED_M">     0</i>
  <separator name="electronic exchange-correlation" >
   <i type="string" name="GGA">--</i>
   <i type="int" name="VOSKOWN">     0</i>
   <i type="logical" name="LHFCALC"> F  </i>
   <i type="string" name="PRECFOCK"></i>
   <i type="logical" name="LSYMGRAD"> F  </i>
   <i type="logical" name="LHFONE"> F  </i>
   <i type="logical" name="LRHFCALC"> F  </i>
   <i type="logical" name="LTHOMAS"> F  </i>
   <i type="logical" name="LMODELHF"> F  </i>
   <i name="ENCUT4O">     -1.00000000</i>
   <i type="int" name="EXXOEP">     0</i>
   <i type="int" name="FOURORBIT">     0</i>
   <i name="AEXX">      0.00000000</i>
   <i name="HFALPHA">      0.00000000</i>
   <i name="MCALPHA">      0.00000000</i>
   <i name="ALDAX">      1.00000000</i>
   <i name="AGGAX">      1.00000000</i>
   <i name="ALDAC">      1.00000000</i>
   <i name="AGGAC">      1.00000000</i>
   <i type="int" name="NKREDX">     1</i>
   <i type="int" name="NKREDY">     1</i>
   <i type="int" name="NKREDZ">     1</i>
   <i type="logical" name="SHIFTRED"> F  </i>
   <i type="logical" name="ODDONLY"> F  </i>
   <i type="logical" name="EVENONLY"> F  </i>
   <i type="int" name="LMAXFOCK">     0</i>
   <i type="int" name="NMAXFOCKAE">     0</i>
   <i type="logical" name="LFOCKAEDFT"> F  </i>
   <i name="HFSCREEN">      0.00000000</i>
   <i name="HFSCREENC">      0.00000000</i>
   <i type="int" name="NBANDSGWLOW">     0</i>
  </separator>
  <separator name="vdW DFT" >
   <i type="logical" name="LUSE_VDW"> F  </i>
   <i name="Zab_VDW">     -0.84910000</i>
   <i name="PARAM1">      0.12340000</i>
   <i name="PARAM2">      1.00000000</i>
   <i name="PARAM3">      0.00000000</i>
  </separator>
  <separator name="model GW" >
   <i type="int" name="MODEL_GW">     0</i>
   <i name="MODEL_EPS0">    600.00000000</i>
   <i name="MODEL_ALPHA">      1.00000000</i>
  </separator>
  <separator name="linear response parameters" >
   <i type="logical" name="LEPSILON"> F  </i>
   <i type="logical" name="LRPA"> F  </i>
   <i type="logical" name="LNABLA"> F  </i>
   <i type="logical" name="LVEL"> F  </i>
   <i type="int" name="KINTER">     0</i>
   <i name="CSHIFT">      0.10000000</i>
   <i name="OMEGAMAX">     -1.00000000</i>
   <i name="DEG_THRESHOLD">      0.00200000</i>
   <i name="RTIME">     -0.10000000</i>
   <i name="WPLASMAI">      0.00000000</i>
   <v name="DFIELD">      0.00000000      0.00000000      0.00000000</v>
   <v name="WPLASMA">      0.00000000      0.00000000      0.00000000      0.00000000      0.00000000      0.00000000      0.00000000      0.00000000      0.00000000</v>
  </separator>
  <separator name="orbital magnetization" >
   <i type="logical" name="NUCIND"> F  </i>
   <v name="MAGPOS">      0.00000000      0.00000000      0.00000000</v>
   <i type="logical" name="LNICSALL"> T  </i>
   <i type="logical" name="ORBITALMAG"> F  </i>
   <i type="logical" name="LMAGBLOCH"> F  </i>
   <i type="logical" name="LCHIMAG"> F  </i>
   <i type="logical" name="LGAUGE"> T  </i>
   <i type="int" name="MAGATOM">     0</i>
   <v name="MAGDIPOL">      0.00000000      0.00000000      0.00000000</v>
   <v name="AVECCONST">      0.00000000      0.00000000      0.00000000</v>
  </separator>
  <separator name="response functions" >
   <i type="logical" name="LADDER"> F  </i>
   <i type="logical" name="LRPAFORCE"> F  </i>
   <i type="logical" name="LFXC"> F  </i>
   <i type="logical" name="LHARTREE"> T  </i>
   <i type="int" name="IBSE">     0</i>
   <v type="int" name="KPOINT">    -1     0     0     0</v>
   <i type="logical" name="LTCTE"> F  </i>
   <i type="logical" name="LTETE"> F  </i>
   <i type="logical" name="LTRIPLET"> F  </i>
   <i type="logical" name="LFXCEPS"> F  </i>
   <i type="logical" name="LFXHEG"> F  </i>
   <i type="int" name="NATURALO">     2</i>
   <i type="logical" name="L2ORDER"> F  </i>
   <i type="logical" name="LMP2LT"> F  </i>
   <i type="logical" name="LUSEW"> F  </i>
   <i name="ENCUTGW">     -2.00000000</i>
   <i name="ENCUTGWSOFT">     -2.00000000</i>
   <i name="ENCUTLF">     -1.00000000</i>
   <i type="int" name="LMAXMP2">    -1</i>
   <i name="SCISSOR">      0.00000000</i>
   <i type="int" name="NOMEGA">     0</i>
   <i type="int" name="NOMEGAR">     0</i>
   <i type="int" name="NBANDSGW">    -1</i>
   <i type="int" name="NBANDSO">    -1</i>
   <i type="int" name="NBANDSV">    -1</i>
   <i type="int" name="NELM">   300</i>
   <i type="int" name="NELMHF">     1</i>
   <i type="int" name="DIM">     3</i>
   <i type="int" name="ANTIRES">     0</i>
   <i name="OMEGAMAX">    -30.00000000</i>
   <i name="OMEGAMIN">    -30.00000000</i>
   <i name="OMEGATL">   -200.00000000</i>
   <i type="int" name="OMEGAGRID">   140</i>
   <i name="CSHIFT">     -0.10000000</i>
   <i type="logical" name="SELFENERGY"> F  </i>
   <i type="logical" name="LSPECTRAL"> F  </i>
   <i type="logical" name="LSPECTRALGW"> F  </i>
   <i type="logical" name="LSINGLES"> F  </i>
   <i type="logical" name="LFERMIGW"> F  </i>
   <i type="logical" name="ODDONLYGW"> F  </i>
   <i type="logical" name="EVENONLYGW"> F  </i>
   <i type="int" name="NKREDLFX">     1</i>
   <i type="int" name="NKREDLFY">     1</i>
   <i type="int" name="NKREDLFZ">     1</i>
   <i type="int" name="MAXMEM">  2800</i>
   <i type="int" name="TELESCOPE">     0</i>
   <i type="int" name="TAUPAR">     1</i>
   <i type="int" name="OMEGAPAR">    -1</i>
   <i name="LAMBDA">      1.00000000</i>
  </separator>
  <separator name="External order field" >
   <i name="OFIELD_KAPPA">      0.00000000</i>
   <v name="OFIELD_K">      0.00000000      0.00000000      0.00000000</v>
   <i name="OFIELD_Q6_NEAR">      0.00000000</i>
   <i name="OFIELD_Q6_FAR">      0.00000000</i>
   <i name="OFIELD_A">      0.00000000</i>
  </separator>
 </parameters>
 <atominfo>
  <atoms>       1 </atoms>
  <types>       1 </types>
  <array name="atoms" >
   <dimension dim="1">ion</dimension>
   <field type="string">element</field>
   <field type="int">atomtype</field>
   <set>
    <rc><c>Na</c><c>   1</c></rc>
   </set>
  </array>
  <array name="atomtypes" >
   <dimension dim="1">type</dimension>
   <field type="int">atomspertype</field>
   <field type="string">element</field>
   <field>mass</field>
   <field>valence</field>
   <field type="string">pseudopotential</field>
   <set>
    <rc><c>   1</c><c>Na</c><c>     22.99000000</c><c>      7.00000000</c><c>  PAW_PBE Na_pv 19Sep2006               </c></rc>
   </set>
  </array>
 </atominfo>
 <structure name="initialpos" >
  <crystal>
   <varray name="basis" >
    <v>      10.00000000       0.00000000       0.00000000 </v>
    <v>       0.00000000      10.00000000       0.00000000 </v>
    <v>       0.00000000       0.00000000      10.00000000 </v>
   </varray>
   <i name="volume">   1000.00000000 </i>
   <varray name="rec_basis" >
    <v>       0.10000000       0.00000000       0.00000000 </v>
    <v>       0.00000000       0.10000000       0.00000000 </v>
    <v>       0.00000000       0.00000000       0.10000000 </v>
   </varray>
  </crystal>
  <varray name="positions" >
   <v>       0.50000000       0.50000000       0.50000000 </v>
  </varray>
 </structure>
 <calculation>
  <scstep>
   <time name="total">    0.62    0.63</time>
   <energy>
    <i name="alphaZ">      0.30490038 </i>
    <i name="ewald">   -100.09837603 </i>
    <i name="hartreedc">   -428.12689751 </i>
    <i name="XCdc">     24.01917026 </i>
    <i name="pawpsdc">    502.29302511 </i>
    <i name="pawaedc">   -590.84624831 </i>
    <i name="eentropy">     -0.02594078 </i>
    <i name="bandstr">    -94.22943403 </i>
    <i name="atom">    766.04200436 </i>
    <i name="e_fr_energy">     79.33220345 </i>
    <i name="e_wo_entrp">     79.35814423 </i>
    <i name="e_0_energy">     79.34517384 </i>
   </energy>
  </scstep>
  <scstep>
   <time name="total">    0.29    0.29</time>
   <energy>
    <i name="e_fr_energy">      9.79985460 </i>
    <i name="e_wo_entrp">      9.79996888 </i>
    <i name="e_0_energy">      9.79991174 </i>
   </energy>
  </scstep>
  <scstep>
   <time name="total">    0.32    0.32</time>
   <energy>
    <i name="e_fr_energy">      0.59800323 </i>
    <i name="e_wo_entrp">      0.60240953 </i>
    <i name="e_0_energy">      0.60020638 </i>
   </energy>
  </scstep>
  <scstep>
   <time name="total">    0.33    0.33</time>
   <energy>
    <i name="e_fr_energy">      0.05206012 </i>
    <i name="e_wo_entrp">      0.05894582 </i>
    <i name="e_0_energy">      0.05550297 </i>
   </energy>
  </scstep>
  <scstep>
   <time name="total">    0.53    0.53</time>
   <energy>
    <i name="e_fr_energy">      0.03068261 </i>
    <i name="e_wo_entrp">      0.03814090 </i>
    <i name="e_0_energy">      0.03441175 </i>
   </energy>
  </scstep>
  <scstep>
   <time name="total">    0.68    0.69</time>
   <energy>
    <i name="e_fr_energy">     -0.20211506 </i>
    <i name="e_wo_entrp">     -0.20187051 </i>
    <i name="e_0_energy">     -0.20199279 </i>
   </energy>
  </scstep>
  <scstep>
   <time name="total">    0.65    0.65</time>
   <energy>
    <i name="e_fr_energy">     -0.25108062 </i>
    <i name="e_wo_entrp">     -0.25108062 </i>
    <i name="e_0_energy">     -0.25108062 </i>
   </energy>
  </scstep>
  <scstep>
   <time name="total">    0.65    0.65</time>
   <energy>
    <i name="e_fr_energy">     -0.25586007 </i>
    <i name="e_wo_entrp">     -0.25586007 </i>
    <i name="e_0_energy">     -0.25586007 </i>
   </energy>
  </scstep>
  <scstep>
   <time name="total">    0.64    0.64</time>
   <energy>
    <i name="e_fr_energy">     -0.25761612 </i>
    <i name="e_wo_entrp">     -0.25761612 </i>
    <i name="e_0_energy">     -0.25761612 </i>
   </energy>
  </scstep>
  <scstep>
   <time name="total">    0.64    0.64</time>
   <energy>
    <i name="e_fr_energy">     -0.25844952 </i>
    <i name="e_wo_entrp">     -0.25844952 </i>
    <i name="e_0_energy">     -0.25844952 </i>
   </energy>
  </scstep>
  <scstep>
   <time name="total">    0.65    0.65</time>
   <energy>
    <i name="e_fr_energy">     -0.25887450 </i>
    <i name="e_wo_entrp">     -0.25887450 </i>
    <i name="e_0_energy">     -0.25887450 </i>
   </energy>
  </scstep>
  <scstep>
   <time name="total">    0.63    0.63</time>
   <energy>
    <i name="e_fr_energy">     -0.25905764 </i>
    <i name="e_wo_entrp">     -0.25905764 </i>
    <i name="e_0_energy">     -0.25905764 </i>
   </energy>
  </scstep>
  <scstep>
   <time name="total">    0.63    0.63</time>
   <energy>
    <i name="e_fr_energy">     -0.25913799 </i>
    <i name="e_wo_entrp">     -0.25913799 </i>
    <i name="e_0_energy">     -0.25913799 </i>
   </energy>
  </scstep>
  <scstep>
   <time name="total">    0.69    0.69</time>
   <energy>
    <i name="alphaZ">      0.30490038 </i>
    <i name="ewald">   -100.09837603 </i>
    <i name="hartreedc">   -428.08991295 </i>
    <i name="XCdc">     24.05895975 </i>
    <i name="pawpsdc">    501.26930710 </i>
    <i name="pawaedc">   -589.86977355 </i>
    <i name="eentropy">     -0.00000000 </i>
    <i name="bandstr">   -173.87627870 </i>
    <i name="atom">    766.04200436 </i>
    <i name="e_fr_energy">     -0.25916963 </i>
    <i name="e_wo_entrp">     -0.25916963 </i>
    <i name="e_0_energy">     -0.25916963 </i>
   </energy>
  </scstep>
  <structure>
   <crystal>
    <varray name="basis" >
     <v>      10.00000000       0.00000000       0.00000000 </v>
     <v>       0.00000000      10.00000000       0.00000000 </v>
     <v>       0.00000000       0.00000000      10.00000000 </v>
    </varray>
    <i name="volume">   1000.00000000 </i>
    <varray name="rec_basis" >
     <v>       0.10000000       0.00000000       0.00000000 </v>
     <v>       0.00000000       0.10000000       0.00000000 </v>
     <v>       0.00000000       0.00000000       0.10000000 </v>
    </varray>
   </crystal>
   <varray name="positions" >
    <v>       0.50000000       0.50000000       0.50000000 </v>
   </varray>
  </structure>
  <varray name="forces" >
   <v>       0.00000000       0.00000000       0.00000000 </v>
  </varray>
  <varray name="stress" >
   <v>      -0.14229556       0.00000000       0.00000000 </v>
   <v>      -0.00000000      -0.14229556       0.00000000 </v>
   <v>       0.00000000      -0.00000000      -0.14229556 </v>
  </varray>
  <energy>
   <i name="e_fr_energy">     -0.25916963 </i>
   <i name="e_wo_entrp">     -0.25916963 </i>
   <i name="e_0_energy">     -0.00000000 </i>
  </energy>
  <time name="totalsc">   14.95   15.09</time>
  <eigenvalues>
   <array>
    <dimension dim="1">band</dimension>
    <dimension dim="2">kpoint</dimension>
    <dimension dim="3">spin</dimension>
    <field>eigene</field>
    <field>occ</field>
    <set>
     <set comment="spin 1">
      <set comment="kpoint 1">
       <r>  -28.5308    1.0000 </r>
       <r>  -28.5308    1.0000 </r>
       <r>  -28.5308    1.0000 </r>
       <r>   -2.9433    1.0000 </r>
       <r>   -0.6662    0.0000 </r>
       <r>   -0.6591    0.0000 </r>
       <r>   -0.6475    0.0000 </r>
       <r>   -0.3437    0.0000 </r>
       <r>    0.4120    0.0000 </r>
       <r>    0.4121    0.0000 </r>
       <r>    1.3823    0.0000 </r>
       <r>    1.4020    0.0000 </r>
       <r>    1.4390    0.0000 </r>
       <r>    1.4393    0.0000 </r>
       <r>    1.4395    0.0000 </r>
       <r>    1.4819    0.0000 </r>
       <r>    1.6088    0.0000 </r>
       <r>    2.0211    0.0000 </r>
       <r>    2.0569    0.0000 </r>
       <r>    2.0667    0.0000 </r>
       <r>    2.0703    0.0000 </r>
       <r>    2.0709    0.0000 </r>
       <r>    3.2700    0.0000 </r>
       <r>    3.2777    0.0000 </r>
       <r>    3.2872    0.0000 </r>
       <r>    3.4315    0.0000 </r>
       <r>    3.5590    0.0000 </r>
       <r>    3.6854    0.0000 </r>
       <r>    3.7021    0.0000 </r>
       <r>    3.7733    0.0000 </r>
       <r>    4.1077    0.0000 </r>
       <r>    4.2079    0.0000 </r>
       <r>    4.2616    0.0000 </r>
       <r>    4.4686    0.0000 </r>
       <r>    5.1056    0.0000 </r>
       <r>    5.7240    0.0000 </r>
      </set>
     </set>
     <set comment="spin 2">
      <set comment="kpoint 1">
       <r>  -28.4469    1.0000 </r>
       <r>  -28.4469    1.0000 </r>
       <r>  -28.4469    1.0000 </r>
       <r>   -1.3067    0.0000 </r>
       <r>    0.6471    0.0000 </r>
       <r>    1.2460    0.0000 </r>
       <r>    1.2472    0.0000 </r>
       <r>    1.2493    0.0000 </r>
       <r>    1.8849    0.0000 </r>
       <r>    1.8858    0.0000 </r>
       <r>    2.4619    0.0000 </r>
       <r>    2.4754    0.0000 </r>
       <r>    2.6387    0.0000 </r>
       <r>    2.6396    0.0000 </r>
       <r>    3.0360    0.0000 </r>
       <r>    3.1647    0.0000 </r>
       <r>    3.1658    0.0000 </r>
       <r>    3.3645    0.0000 </r>
       <r>    3.3646    0.0000 </r>
       <r>    3.3697    0.0000 </r>
       <r>    3.3768    0.0000 </r>
       <r>    3.4388    0.0000 </r>
       <r>    4.4142    0.0000 </r>
       <r>    4.4502    0.0000 </r>
       <r>    4.5325    0.0000 </r>
       <r>    4.5351    0.0000 </r>
       <r>    4.5364    0.0000 </r>
       <r>    4.5575    0.0000 </r>
       <r>    4.5729    0.0000 </r>
       <r>    5.2159    0.0000 </r>
       <r>    5.4310    0.0000 </r>
       <r>    5.6005    0.0000 </r>
       <r>    6.0840    0.0000 </r>
       <r>    6.5712    0.0000 </r>
       <r>    6.8205    0.0000 </r>
       <r>    7.5332    0.0000 </r>
      </set>
     </set>
    </set>
   </array>
  </eigenvalues>
  <separator name="orbital magnetization" >
   <v name="MAGDIPOLOUT">      0.00000000      0.00000000      0.00000000</v>
  </separator>
  <dos>
   <i name="efermi">     -2.68045678 </i>
   <total>
    <array>
     <dimension dim="1">gridpoints</dimension>
     <dimension dim="2">spin</dimension>
     <field>energy</field>
     <field>total</field>
     <field>integrated</field>
     <set>
      <set comment="spin 1">
       <r>   -30.3340     0.0000     0.0000 </r>
       <r>   -30.2018     0.0000     0.0000 </r>
       <r>   -30.0695     0.0000     0.0000 </r>
       <r>   -29.9373     0.0000     0.0000 </r>
       <r>   -29.8051     0.0000     0.0000 </r>
       <r>   -29.6728     0.0000     0.0000 </r>
       <r>   -29.5406     0.0000     0.0000 </r>
       <r>   -29.4084     0.0000     0.0000 </r>
       <r>   -29.2761     0.0000     0.0000 </r>
       <r>   -29.1439     0.0000     0.0000 </r>
       <r>   -29.0117     0.0000     0.0000 </r>
       <r>   -28.8794     0.0000     0.0000 </r>
       <r>   -28.7472     0.0000     0.0000 </r>
       <r>   -28.6150     0.1963     0.0260 </r>
       <r>   -28.4827    20.5190     2.7393 </r>
       <r>   -28.3505     1.9716     3.0000 </r>
       <r>   -28.2183     0.0000     3.0000 </r>
       <r>   -28.0860     0.0000     3.0000 </r>
       <r>   -27.9538     0.0000     3.0000 </r>
       <r>   -27.8216     0.0000     3.0000 </r>
       <r>   -27.6893     0.0000     3.0000 </r>
       <r>   -27.5571     0.0000     3.0000 </r>
       <r>   -27.4249     0.0000     3.0000 </r>
       <r>   -27.2926     0.0000     3.0000 </r>
       <r>   -27.1604     0.0000     3.0000 </r>
       <r>   -27.0281     0.0000     3.0000 </r>
       <r>   -26.8959     0.0000     3.0000 </r>
       <r>   -26.7637     0.0000     3.0000 </r>
       <r>   -26.6314     0.0000     3.0000 </r>
       <r>   -26.4992     0.0000     3.0000 </r>
       <r>   -26.3670     0.0000     3.0000 </r>
       <r>   -26.2347     0.0000     3.0000 </r>
       <r>   -26.1025     0.0000     3.0000 </r>
       <r>   -25.9703     0.0000     3.0000 </r>
       <r>   -25.8380     0.0000     3.0000 </r>
       <r>   -25.7058     0.0000     3.0000 </r>
       <r>   -25.5736     0.0000     3.0000 </r>
       <r>   -25.4413     0.0000     3.0000 </r>
       <r>   -25.3091     0.0000     3.0000 </r>
       <r>   -25.1769     0.0000     3.0000 </r>
       <r>   -25.0446     0.0000     3.0000 </r>
       <r>   -24.9124     0.0000     3.0000 </r>
       <r>   -24.7802     0.0000     3.0000 </r>
       <r>   -24.6479     0.0000     3.0000 </r>
       <r>   -24.5157     0.0000     3.0000 </r>
       <r>   -24.3835     0.0000     3.0000 </r>
       <r>   -24.2512     0.0000     3.0000 </r>
       <r>   -24.1190     0.0000     3.0000 </r>
       <r>   -23.9868     0.0000     3.0000 </r>
       <r>   -23.8545     0.0000     3.0000 </r>
       <r>   -23.7223     0.0000     3.0000 </r>
       <r>   -23.5901     0.0000     3.0000 </r>
       <r>   -23.4578     0.0000     3.0000 </r>
       <r>   -23.3256     0.0000     3.0000 </r>
       <r>   -23.1933     0.0000     3.0000 </r>
       <r>   -23.0611     0.0000     3.0000 </r>
       <r>   -22.9289     0.0000     3.0000 </r>
       <r>   -22.7966     0.0000     3.0000 </r>
       <r>   -22.6644     0.0000     3.0000 </r>
       <r>   -22.5322     0.0000     3.0000 </r>
       <r>   -22.3999     0.0000     3.0000 </r>
       <r>   -22.2677     0.0000     3.0000 </r>
       <r>   -22.1355     0.0000     3.0000 </r>
       <r>   -22.0032     0.0000     3.0000 </r>
       <r>   -21.8710     0.0000     3.0000 </r>
       <r>   -21.7388     0.0000     3.0000 </r>
       <r>   -21.6065     0.0000     3.0000 </r>
       <r>   -21.4743     0.0000     3.0000 </r>
       <r>   -21.3421     0.0000     3.0000 </r>
       <r>   -21.2098     0.0000     3.0000 </r>
       <r>   -21.0776     0.0000     3.0000 </r>
       <r>   -20.9454     0.0000     3.0000 </r>
       <r>   -20.8131     0.0000     3.0000 </r>
       <r>   -20.6809     0.0000     3.0000 </r>
       <r>   -20.5487     0.0000     3.0000 </r>
       <r>   -20.4164     0.0000     3.0000 </r>
       <r>   -20.2842     0.0000     3.0000 </r>
       <r>   -20.1520     0.0000     3.0000 </r>
       <r>   -20.0197     0.0000     3.0000 </r>
       <r>   -19.8875     0.0000     3.0000 </r>
       <r>   -19.7552     0.0000     3.0000 </r>
       <r>   -19.6230     0.0000     3.0000 </r>
       <r>   -19.4908     0.0000     3.0000 </r>
       <r>   -19.3585     0.0000     3.0000 </r>
       <r>   -19.2263     0.0000     3.0000 </r>
       <r>   -19.0941     0.0000     3.0000 </r>
       <r>   -18.9618     0.0000     3.0000 </r>
       <r>   -18.8296     0.0000     3.0000 </r>
       <r>   -18.6974     0.0000     3.0000 </r>
       <r>   -18.5651     0.0000     3.0000 </r>
       <r>   -18.4329     0.0000     3.0000 </r>
       <r>   -18.3007     0.0000     3.0000 </r>
       <r>   -18.1684     0.0000     3.0000 </r>
       <r>   -18.0362     0.0000     3.0000 </r>
       <r>   -17.9040     0.0000     3.0000 </r>
       <r>   -17.7717     0.0000     3.0000 </r>
       <r>   -17.6395     0.0000     3.0000 </r>
       <r>   -17.5073     0.0000     3.0000 </r>
       <r>   -17.3750     0.0000     3.0000 </r>
       <r>   -17.2428     0.0000     3.0000 </r>
       <r>   -17.1106     0.0000     3.0000 </r>
       <r>   -16.9783     0.0000     3.0000 </r>
       <r>   -16.8461     0.0000     3.0000 </r>
       <r>   -16.7139     0.0000     3.0000 </r>
       <r>   -16.5816     0.0000     3.0000 </r>
       <r>   -16.4494     0.0000     3.0000 </r>
       <r>   -16.3171     0.0000     3.0000 </r>
       <r>   -16.1849     0.0000     3.0000 </r>
       <r>   -16.0527     0.0000     3.0000 </r>
       <r>   -15.9204     0.0000     3.0000 </r>
       <r>   -15.7882     0.0000     3.0000 </r>
       <r>   -15.6560     0.0000     3.0000 </r>
       <r>   -15.5237     0.0000     3.0000 </r>
       <r>   -15.3915     0.0000     3.0000 </r>
       <r>   -15.2593     0.0000     3.0000 </r>
       <r>   -15.1270     0.0000     3.0000 </r>
       <r>   -14.9948     0.0000     3.0000 </r>
       <r>   -14.8626     0.0000     3.0000 </r>
       <r>   -14.7303     0.0000     3.0000 </r>
       <r>   -14.5981     0.0000     3.0000 </r>
       <r>   -14.4659     0.0000     3.0000 </r>
       <r>   -14.3336     0.0000     3.0000 </r>
       <r>   -14.2014     0.0000     3.0000 </r>
       <r>   -14.0692     0.0000     3.0000 </r>
       <r>   -13.9369     0.0000     3.0000 </r>
       <r>   -13.8047     0.0000     3.0000 </r>
       <r>   -13.6725     0.0000     3.0000 </r>
       <r>   -13.5402     0.0000     3.0000 </r>
       <r>   -13.4080     0.0000     3.0000 </r>
       <r>   -13.2758     0.0000     3.0000 </r>
       <r>   -13.1435     0.0000     3.0000 </r>
       <r>   -13.0113     0.0000     3.0000 </r>
       <r>   -12.8790     0.0000     3.0000 </r>
       <r>   -12.7468     0.0000     3.0000 </r>
       <r>   -12.6146     0.0000     3.0000 </r>
       <r>   -12.4823     0.0000     3.0000 </r>
       <r>   -12.3501     0.0000     3.0000 </r>
       <r>   -12.2179     0.0000     3.0000 </r>
       <r>   -12.0856     0.0000     3.0000 </r>
       <r>   -11.9534     0.0000     3.0000 </r>
       <r>   -11.8212     0.0000     3.0000 </r>
       <r>   -11.6889     0.0000     3.0000 </r>
       <r>   -11.5567     0.0000     3.0000 </r>
       <r>   -11.4245     0.0000     3.0000 </r>
       <r>   -11.2922     0.0000     3.0000 </r>
       <r>   -11.1600     0.0000     3.0000 </r>
       <r>   -11.0278     0.0000     3.0000 </r>
       <r>   -10.8955     0.0000     3.0000 </r>
       <r>   -10.7633     0.0000     3.0000 </r>
       <r>   -10.6311     0.0000     3.0000 </r>
       <r>   -10.4988     0.0000     3.0000 </r>
       <r>   -10.3666     0.0000     3.0000 </r>
       <r>   -10.2344     0.0000     3.0000 </r>
       <r>   -10.1021     0.0000     3.0000 </r>
       <r>    -9.9699     0.0000     3.0000 </r>
       <r>    -9.8377     0.0000     3.0000 </r>
       <r>    -9.7054     0.0000     3.0000 </r>
       <r>    -9.5732     0.0000     3.0000 </r>
       <r>    -9.4410     0.0000     3.0000 </r>
       <r>    -9.3087     0.0000     3.0000 </r>
       <r>    -9.1765     0.0000     3.0000 </r>
       <r>    -9.0442     0.0000     3.0000 </r>
       <r>    -8.9120     0.0000     3.0000 </r>
       <r>    -8.7798     0.0000     3.0000 </r>
       <r>    -8.6475     0.0000     3.0000 </r>
       <r>    -8.5153     0.0000     3.0000 </r>
       <r>    -8.3831     0.0000     3.0000 </r>
       <r>    -8.2508     0.0000     3.0000 </r>
       <r>    -8.1186     0.0000     3.0000 </r>
       <r>    -7.9864     0.0000     3.0000 </r>
       <r>    -7.8541     0.0000     3.0000 </r>
       <r>    -7.7219     0.0000     3.0000 </r>
       <r>    -7.5897     0.0000     3.0000 </r>
       <r>    -7.4574     0.0000     3.0000 </r>
       <r>    -7.3252     0.0000     3.0000 </r>
       <r>    -7.1930     0.0000     3.0000 </r>
       <r>    -7.0607     0.0000     3.0000 </r>
       <r>    -6.9285     0.0000     3.0000 </r>
       <r>    -6.7963     0.0000     3.0000 </r>
       <r>    -6.6640     0.0000     3.0000 </r>
       <r>    -6.5318     0.0000     3.0000 </r>
       <r>    -6.3996     0.0000     3.0000 </r>
       <r>    -6.2673     0.0000     3.0000 </r>
       <r>    -6.1351     0.0000     3.0000 </r>
       <r>    -6.0029     0.0000     3.0000 </r>
       <r>    -5.8706     0.0000     3.0000 </r>
       <r>    -5.7384     0.0000     3.0000 </r>
       <r>    -5.6061     0.0000     3.0000 </r>
       <r>    -5.4739     0.0000     3.0000 </r>
       <r>    -5.3417     0.0000     3.0000 </r>
       <r>    -5.2094     0.0000     3.0000 </r>
       <r>    -5.0772     0.0000     3.0000 </r>
       <r>    -4.9450     0.0000     3.0000 </r>
       <r>    -4.8127     0.0000     3.0000 </r>
       <r>    -4.6805     0.0000     3.0000 </r>
       <r>    -4.5483     0.0000     3.0000 </r>
       <r>    -4.4160     0.0000     3.0000 </r>
       <r>    -4.2838     0.0000     3.0000 </r>
       <r>    -4.1516     0.0000     3.0000 </r>
       <r>    -4.0193     0.0000     3.0000 </r>
       <r>    -3.8871     0.0000     3.0000 </r>
       <r>    -3.7549     0.0000     3.0000 </r>
       <r>    -3.6226     0.0000     3.0000 </r>
       <r>    -3.4904     0.0000     3.0000 </r>
       <r>    -3.3582     0.0000     3.0000 </r>
       <r>    -3.2259     0.0000     3.0000 </r>
       <r>    -3.0937     0.0001     3.0000 </r>
       <r>    -2.9615     2.2950     3.3035 </r>
       <r>    -2.8292     5.2625     3.9994 </r>
       <r>    -2.6970     0.0048     4.0000 </r>
       <r>    -2.5648     0.0000     4.0000 </r>
       <r>    -2.4325     0.0000     4.0000 </r>
       <r>    -2.3003     0.0000     4.0000 </r>
       <r>    -2.1680     0.0000     4.0000 </r>
       <r>    -2.0358     0.0000     4.0000 </r>
       <r>    -1.9036     0.0000     4.0000 </r>
       <r>    -1.7713     0.0000     4.0000 </r>
       <r>    -1.6391     0.0000     4.0000 </r>
       <r>    -1.5069     0.0000     4.0000 </r>
       <r>    -1.3746     0.0000     4.0000 </r>
       <r>    -1.2424     0.0000     4.0000 </r>
       <r>    -1.1102     0.0000     4.0000 </r>
       <r>    -0.9779     0.0000     4.0000 </r>
       <r>    -0.8457     0.0000     4.0000 </r>
       <r>    -0.7135     1.3901     4.1838 </r>
       <r>    -0.5812    20.9014     6.9477 </r>
       <r>    -0.4490     0.4064     7.0014 </r>
       <r>    -0.3168     5.8619     7.7766 </r>
       <r>    -0.1845     1.6895     8.0000 </r>
       <r>    -0.0523     0.0000     8.0000 </r>
       <r>     0.0799     0.0000     8.0000 </r>
       <r>     0.2122     0.0000     8.0000 </r>
       <r>     0.3444     0.4210     8.0557 </r>
       <r>     0.4766    14.1912     9.9322 </r>
       <r>     0.6089     0.5125    10.0000 </r>
       <r>     0.7411     0.0000    10.0000 </r>
       <r>     0.8733     0.0000    10.0000 </r>
       <r>     1.0056     0.0000    10.0000 </r>
       <r>     1.1378     0.0000    10.0000 </r>
       <r>     1.2701     0.0064    10.0008 </r>
       <r>     1.4023    12.6460    11.6731 </r>
       <r>     1.5345    32.2597    15.9389 </r>
       <r>     1.6668     7.6421    16.9495 </r>
       <r>     1.7990     0.3820    17.0000 </r>
       <r>     1.9312     0.0441    17.0058 </r>
       <r>     2.0635    20.8394    19.7615 </r>
       <r>     2.1957    16.9236    21.9994 </r>
       <r>     2.3279     0.0044    22.0000 </r>
       <r>     2.4602     0.0000    22.0000 </r>
       <r>     2.5924     0.0000    22.0000 </r>
       <r>     2.7246     0.0000    22.0000 </r>
       <r>     2.8569     0.0000    22.0000 </r>
       <r>     2.9891     0.0000    22.0000 </r>
       <r>     3.1213     0.0001    22.0000 </r>
       <r>     3.2536     5.5909    22.7393 </r>
       <r>     3.3858    17.8061    25.0939 </r>
       <r>     3.5180     7.7304    26.1161 </r>
       <r>     3.6503     8.3995    27.2268 </r>
       <r>     3.7825    17.8569    29.5881 </r>
       <r>     3.9147     3.1144    30.0000 </r>
       <r>     4.0470     0.3255    30.0430 </r>
       <r>     4.1792     8.7270    31.1970 </r>
       <r>     4.3114    13.0215    32.9189 </r>
       <r>     4.4437     2.4308    33.2403 </r>
       <r>     4.5759     5.7357    33.9988 </r>
       <r>     4.7082     0.0091    34.0000 </r>
       <r>     4.8404     0.0000    34.0000 </r>
       <r>     4.9726     0.0006    34.0001 </r>
       <r>     5.1049     3.7136    34.4911 </r>
       <r>     5.2371     3.8473    34.9999 </r>
       <r>     5.3693     0.0008    35.0000 </r>
       <r>     5.5016     0.0000    35.0000 </r>
       <r>     5.6338     0.0405    35.0054 </r>
       <r>     5.7660     6.6343    35.8826 </r>
       <r>     5.8983     0.8875    36.0000 </r>
       <r>     6.0305     0.0000    36.0000 </r>
       <r>     6.1627     0.0000    36.0000 </r>
       <r>     6.2950     0.0000    36.0000 </r>
       <r>     6.4272     0.0000    36.0000 </r>
       <r>     6.5594     0.0000    36.0000 </r>
       <r>     6.6917     0.0000    36.0000 </r>
       <r>     6.8239     0.0000    36.0000 </r>
       <r>     6.9561     0.0000    36.0000 </r>
       <r>     7.0884     0.0000    36.0000 </r>
       <r>     7.2206     0.0000    36.0000 </r>
       <r>     7.3528     0.0000    36.0000 </r>
       <r>     7.4851     0.0000    36.0000 </r>
       <r>     7.6173     0.0000    36.0000 </r>
       <r>     7.7495     0.0000    36.0000 </r>
       <r>     7.8818     0.0000    36.0000 </r>
       <r>     8.0140     0.0000    36.0000 </r>
       <r>     8.1462     0.0000    36.0000 </r>
       <r>     8.2785     0.0000    36.0000 </r>
       <r>     8.4107     0.0000    36.0000 </r>
       <r>     8.5430     0.0000    36.0000 </r>
       <r>     8.6752     0.0000    36.0000 </r>
       <r>     8.8074     0.0000    36.0000 </r>
       <r>     8.9397     0.0000    36.0000 </r>
       <r>     9.0719     0.0000    36.0000 </r>
       <r>     9.2041     0.0000    36.0000 </r>
       <r>     9.3364     0.0000    36.0000 </r>
      </set>
      <set comment="spin 2">
       <r>   -30.3340     0.0000     0.0000 </r>
       <r>   -30.2018     0.0000     0.0000 </r>
       <r>   -30.0695     0.0000     0.0000 </r>
       <r>   -29.9373     0.0000     0.0000 </r>
       <r>   -29.8051     0.0000     0.0000 </r>
       <r>   -29.6728     0.0000     0.0000 </r>
       <r>   -29.5406     0.0000     0.0000 </r>
       <r>   -29.4084     0.0000     0.0000 </r>
       <r>   -29.2761     0.0000     0.0000 </r>
       <r>   -29.1439     0.0000     0.0000 </r>
       <r>   -29.0117     0.0000     0.0000 </r>
       <r>   -28.8794     0.0000     0.0000 </r>
       <r>   -28.7472     0.0000     0.0000 </r>
       <r>   -28.6150     0.0000     0.0000 </r>
       <r>   -28.4827     3.5198     0.4654 </r>
       <r>   -28.3505    19.0943     2.9904 </r>
       <r>   -28.2183     0.0728     3.0000 </r>
       <r>   -28.0860     0.0000     3.0000 </r>
       <r>   -27.9538     0.0000     3.0000 </r>
       <r>   -27.8216     0.0000     3.0000 </r>
       <r>   -27.6893     0.0000     3.0000 </r>
       <r>   -27.5571     0.0000     3.0000 </r>
       <r>   -27.4249     0.0000     3.0000 </r>
       <r>   -27.2926     0.0000     3.0000 </r>
       <r>   -27.1604     0.0000     3.0000 </r>
       <r>   -27.0281     0.0000     3.0000 </r>
       <r>   -26.8959     0.0000     3.0000 </r>
       <r>   -26.7637     0.0000     3.0000 </r>
       <r>   -26.6314     0.0000     3.0000 </r>
       <r>   -26.4992     0.0000     3.0000 </r>
       <r>   -26.3670     0.0000     3.0000 </r>
       <r>   -26.2347     0.0000     3.0000 </r>
       <r>   -26.1025     0.0000     3.0000 </r>
       <r>   -25.9703     0.0000     3.0000 </r>
       <r>   -25.8380     0.0000     3.0000 </r>
       <r>   -25.7058     0.0000     3.0000 </r>
       <r>   -25.5736     0.0000     3.0000 </r>
       <r>   -25.4413     0.0000     3.0000 </r>
       <r>   -25.3091     0.0000     3.0000 </r>
       <r>   -25.1769     0.0000     3.0000 </r>
       <r>   -25.0446     0.0000     3.0000 </r>
       <r>   -24.9124     0.0000     3.0000 </r>
       <r>   -24.7802     0.0000     3.0000 </r>
       <r>   -24.6479     0.0000     3.0000 </r>
       <r>   -24.5157     0.0000     3.0000 </r>
       <r>   -24.3835     0.0000     3.0000 </r>
       <r>   -24.2512     0.0000     3.0000 </r>
       <r>   -24.1190     0.0000     3.0000 </r>
       <r>   -23.9868     0.0000     3.0000 </r>
       <r>   -23.8545     0.0000     3.0000 </r>
       <r>   -23.7223     0.0000     3.0000 </r>
       <r>   -23.5901     0.0000     3.0000 </r>
       <r>   -23.4578     0.0000     3.0000 </r>
       <r>   -23.3256     0.0000     3.0000 </r>
       <r>   -23.1933     0.0000     3.0000 </r>
       <r>   -23.0611     0.0000     3.0000 </r>
       <r>   -22.9289     0.0000     3.0000 </r>
       <r>   -22.7966     0.0000     3.0000 </r>
       <r>   -22.6644     0.0000     3.0000 </r>
       <r>   -22.5322     0.0000     3.0000 </r>
       <r>   -22.3999     0.0000     3.0000 </r>
       <r>   -22.2677     0.0000     3.0000 </r>
       <r>   -22.1355     0.0000     3.0000 </r>
       <r>   -22.0032     0.0000     3.0000 </r>
       <r>   -21.8710     0.0000     3.0000 </r>
       <r>   -21.7388     0.0000     3.0000 </r>
       <r>   -21.6065     0.0000     3.0000 </r>
       <r>   -21.4743     0.0000     3.0000 </r>
       <r>   -21.3421     0.0000     3.0000 </r>
       <r>   -21.2098     0.0000     3.0000 </r>
       <r>   -21.0776     0.0000     3.0000 </r>
       <r>   -20.9454     0.0000     3.0000 </r>
       <r>   -20.8131     0.0000     3.0000 </r>
       <r>   -20.6809     0.0000     3.0000 </r>
       <r>   -20.5487     0.0000     3.0000 </r>
       <r>   -20.4164     0.0000     3.0000 </r>
       <r>   -20.2842     0.0000     3.0000 </r>
       <r>   -20.1520     0.0000     3.0000 </r>
       <r>   -20.0197     0.0000     3.0000 </r>
       <r>   -19.8875     0.0000     3.0000 </r>
       <r>   -19.7552     0.0000     3.0000 </r>
       <r>   -19.6230     0.0000     3.0000 </r>
       <r>   -19.4908     0.0000     3.0000 </r>
       <r>   -19.3585     0.0000     3.0000 </r>
       <r>   -19.2263     0.0000     3.0000 </r>
       <r>   -19.0941     0.0000     3.0000 </r>
       <r>   -18.9618     0.0000     3.0000 </r>
       <r>   -18.8296     0.0000     3.0000 </r>
       <r>   -18.6974     0.0000     3.0000 </r>
       <r>   -18.5651     0.0000     3.0000 </r>
       <r>   -18.4329     0.0000     3.0000 </r>
       <r>   -18.3007     0.0000     3.0000 </r>
       <r>   -18.1684     0.0000     3.0000 </r>
       <r>   -18.0362     0.0000     3.0000 </r>
       <r>   -17.9040     0.0000     3.0000 </r>
       <r>   -17.7717     0.0000     3.0000 </r>
       <r>   -17.6395     0.0000     3.0000 </r>
       <r>   -17.5073     0.0000     3.0000 </r>
       <r>   -17.3750     0.0000     3.0000 </r>
       <r>   -17.2428     0.0000     3.0000 </r>
       <r>   -17.1106     0.0000     3.0000 </r>
       <r>   -16.9783     0.0000     3.0000 </r>
       <r>   -16.8461     0.0000     3.0000 </r>
       <r>   -16.7139     0.0000     3.0000 </r>
       <r>   -16.5816     0.0000     3.0000 </r>
       <r>   -16.4494     0.0000     3.0000 </r>
       <r>   -16.3171     0.0000     3.0000 </r>
       <r>   -16.1849     0.0000     3.0000 </r>
       <r>   -16.0527     0.0000     3.0000 </r>
       <r>   -15.9204     0.0000     3.0000 </r>
       <r>   -15.7882     0.0000     3.0000 </r>
       <r>   -15.6560     0.0000     3.0000 </r>
       <r>   -15.5237     0.0000     3.0000 </r>
       <r>   -15.3915     0.0000     3.0000 </r>
       <r>   -15.2593     0.0000     3.0000 </r>
       <r>   -15.1270     0.0000     3.0000 </r>
       <r>   -14.9948     0.0000     3.0000 </r>
       <r>   -14.8626     0.0000     3.0000 </r>
       <r>   -14.7303     0.0000     3.0000 </r>
       <r>   -14.5981     0.0000     3.0000 </r>
       <r>   -14.4659     0.0000     3.0000 </r>
       <r>   -14.3336     0.0000     3.0000 </r>
       <r>   -14.2014     0.0000     3.0000 </r>
       <r>   -14.0692     0.0000     3.0000 </r>
       <r>   -13.9369     0.0000     3.0000 </r>
       <r>   -13.8047     0.0000     3.0000 </r>
       <r>   -13.6725     0.0000     3.0000 </r>
       <r>   -13.5402     0.0000     3.0000 </r>
       <r>   -13.4080     0.0000     3.0000 </r>
       <r>   -13.2758     0.0000     3.0000 </r>
       <r>   -13.1435     0.0000     3.0000 </r>
       <r>   -13.0113     0.0000     3.0000 </r>
       <r>   -12.8790     0.0000     3.0000 </r>
       <r>   -12.7468     0.0000     3.0000 </r>
       <r>   -12.6146     0.0000     3.0000 </r>
       <r>   -12.4823     0.0000     3.0000 </r>
       <r>   -12.3501     0.0000     3.0000 </r>
       <r>   -12.2179     0.0000     3.0000 </r>
       <r>   -12.0856     0.0000     3.0000 </r>
       <r>   -11.9534     0.0000     3.0000 </r>
       <r>   -11.8212     0.0000     3.0000 </r>
       <r>   -11.6889     0.0000     3.0000 </r>
       <r>   -11.5567     0.0000     3.0000 </r>
       <r>   -11.4245     0.0000     3.0000 </r>
       <r>   -11.2922     0.0000     3.0000 </r>
       <r>   -11.1600     0.0000     3.0000 </r>
       <r>   -11.0278     0.0000     3.0000 </r>
       <r>   -10.8955     0.0000     3.0000 </r>
       <r>   -10.7633     0.0000     3.0000 </r>
       <r>   -10.6311     0.0000     3.0000 </r>
       <r>   -10.4988     0.0000     3.0000 </r>
       <r>   -10.3666     0.0000     3.0000 </r>
       <r>   -10.2344     0.0000     3.0000 </r>
       <r>   -10.1021     0.0000     3.0000 </r>
       <r>    -9.9699     0.0000     3.0000 </r>
       <r>    -9.8377     0.0000     3.0000 </r>
       <r>    -9.7054     0.0000     3.0000 </r>
       <r>    -9.5732     0.0000     3.0000 </r>
       <r>    -9.4410     0.0000     3.0000 </r>
       <r>    -9.3087     0.0000     3.0000 </r>
       <r>    -9.1765     0.0000     3.0000 </r>
       <r>    -9.0442     0.0000     3.0000 </r>
       <r>    -8.9120     0.0000     3.0000 </r>
       <r>    -8.7798     0.0000     3.0000 </r>
       <r>    -8.6475     0.0000     3.0000 </r>
       <r>    -8.5153     0.0000     3.0000 </r>
       <r>    -8.3831     0.0000     3.0000 </r>
       <r>    -8.2508     0.0000     3.0000 </r>
       <r>    -8.1186     0.0000     3.0000 </r>
       <r>    -7.9864     0.0000     3.0000 </r>
       <r>    -7.8541     0.0000     3.0000 </r>
       <r>    -7.7219     0.0000     3.0000 </r>
       <r>    -7.5897     0.0000     3.0000 </r>
       <r>    -7.4574     0.0000     3.0000 </r>
       <r>    -7.3252     0.0000     3.0000 </r>
       <r>    -7.1930     0.0000     3.0000 </r>
       <r>    -7.0607     0.0000     3.0000 </r>
       <r>    -6.9285     0.0000     3.0000 </r>
       <r>    -6.7963     0.0000     3.0000 </r>
       <r>    -6.6640     0.0000     3.0000 </r>
       <r>    -6.5318     0.0000     3.0000 </r>
       <r>    -6.3996     0.0000     3.0000 </r>
       <r>    -6.2673     0.0000     3.0000 </r>
       <r>    -6.1351     0.0000     3.0000 </r>
       <r>    -6.0029     0.0000     3.0000 </r>
       <r>    -5.8706     0.0000     3.0000 </r>
       <r>    -5.7384     0.0000     3.0000 </r>
       <r>    -5.6061     0.0000     3.0000 </r>
       <r>    -5.4739     0.0000     3.0000 </r>
       <r>    -5.3417     0.0000     3.0000 </r>
       <r>    -5.2094     0.0000     3.0000 </r>
       <r>    -5.0772     0.0000     3.0000 </r>
       <r>    -4.9450     0.0000     3.0000 </r>
       <r>    -4.8127     0.0000     3.0000 </r>
       <r>    -4.6805     0.0000     3.0000 </r>
       <r>    -4.5483     0.0000     3.0000 </r>
       <r>    -4.4160     0.0000     3.0000 </r>
       <r>    -4.2838     0.0000     3.0000 </r>
       <r>    -4.1516     0.0000     3.0000 </r>
       <r>    -4.0193     0.0000     3.0000 </r>
       <r>    -3.8871     0.0000     3.0000 </r>
       <r>    -3.7549     0.0000     3.0000 </r>
       <r>    -3.6226     0.0000     3.0000 </r>
       <r>    -3.4904     0.0000     3.0000 </r>
       <r>    -3.3582     0.0000     3.0000 </r>
       <r>    -3.2259     0.0000     3.0000 </r>
       <r>    -3.0937     0.0000     3.0000 </r>
       <r>    -2.9615     0.0000     3.0000 </r>
       <r>    -2.8292     0.0000     3.0000 </r>
       <r>    -2.6970     0.0000     3.0000 </r>
       <r>    -2.5648     0.0000     3.0000 </r>
       <r>    -2.4325     0.0000     3.0000 </r>
       <r>    -2.3003     0.0000     3.0000 </r>
       <r>    -2.1680     0.0000     3.0000 </r>
       <r>    -2.0358     0.0000     3.0000 </r>
       <r>    -1.9036     0.0000     3.0000 </r>
       <r>    -1.7713     0.0000     3.0000 </r>
       <r>    -1.6391     0.0000     3.0000 </r>
       <r>    -1.5069     0.0000     3.0000 </r>
       <r>    -1.3746     0.2062     3.0273 </r>
       <r>    -1.2424     7.0947     3.9654 </r>
       <r>    -1.1102     0.2614     4.0000 </r>
       <r>    -0.9779     0.0000     4.0000 </r>
       <r>    -0.8457     0.0000     4.0000 </r>
       <r>    -0.7135     0.0000     4.0000 </r>
       <r>    -0.5812     0.0000     4.0000 </r>
       <r>    -0.4490     0.0000     4.0000 </r>
       <r>    -0.3168     0.0000     4.0000 </r>
       <r>    -0.1845     0.0000     4.0000 </r>
       <r>    -0.0523     0.0000     4.0000 </r>
       <r>     0.0799     0.0000     4.0000 </r>
       <r>     0.2122     0.0000     4.0000 </r>
       <r>     0.3444     0.0000     4.0000 </r>
       <r>     0.4766     0.0000     4.0000 </r>
       <r>     0.6089     1.0591     4.1400 </r>
       <r>     0.7411     6.4737     4.9961 </r>
       <r>     0.8733     0.0295     5.0000 </r>
       <r>     1.0056     0.0000     5.0000 </r>
       <r>     1.1378     0.0220     5.0029 </r>
       <r>     1.2701    16.7245     7.2145 </r>
       <r>     1.4023     5.9404     8.0000 </r>
       <r>     1.5345     0.0001     8.0000 </r>
       <r>     1.6668     0.0000     8.0000 </r>
       <r>     1.7990     0.1104     8.0146 </r>
       <r>     1.9312    13.5441     9.8056 </r>
       <r>     2.0635     1.4702    10.0000 </r>
       <r>     2.1957     0.0000    10.0000 </r>
       <r>     2.3279     0.0007    10.0001 </r>
       <r>     2.4602     6.1517    10.8136 </r>
       <r>     2.5924    10.3772    12.1858 </r>
       <r>     2.7246    13.6018    13.9844 </r>
       <r>     2.8569     0.1179    14.0000 </r>
       <r>     2.9891     0.6972    14.0922 </r>
       <r>     3.1213     8.4250    15.2063 </r>
       <r>     3.2536    13.4888    16.9899 </r>
       <r>     3.3858    21.2202    19.7960 </r>
       <r>     3.5180    16.5725    21.9875 </r>
       <r>     3.6503     0.0948    22.0000 </r>
       <r>     3.7825     0.0000    22.0000 </r>
       <r>     3.9147     0.0000    22.0000 </r>
       <r>     4.0470     0.0000    22.0000 </r>
       <r>     4.1792     0.0000    22.0000 </r>
       <r>     4.3114     0.0141    22.0019 </r>
       <r>     4.4437     9.3693    23.2408 </r>
       <r>     4.5759    34.9827    27.8667 </r>
       <r>     4.7082     8.5695    28.9999 </r>
       <r>     4.8404     0.0006    29.0000 </r>
       <r>     4.9726     0.0000    29.0000 </r>
       <r>     5.1049     0.0064    29.0008 </r>
       <r>     5.2371     5.4832    29.7259 </r>
       <r>     5.3693     2.3783    30.0404 </r>
       <r>     5.5016     7.1017    30.9795 </r>
       <r>     5.6338     6.4058    31.8266 </r>
       <r>     5.7660     1.3116    32.0000 </r>
       <r>     5.8983     0.0000    32.0000 </r>
       <r>     6.0305     0.4931    32.0652 </r>
       <r>     6.1627     6.9713    32.9870 </r>
       <r>     6.2950     0.0979    33.0000 </r>
       <r>     6.4272     0.0002    33.0000 </r>
       <r>     6.5594     2.7928    33.3693 </r>
       <r>     6.6917     4.7679    33.9998 </r>
       <r>     6.8239     4.0764    34.5389 </r>
       <r>     6.9561     3.4869    34.9999 </r>
       <r>     7.0884     0.0005    35.0000 </r>
       <r>     7.2206     0.0000    35.0000 </r>
       <r>     7.3528     0.0000    35.0000 </r>
       <r>     7.4851     0.6572    35.0869 </r>
       <r>     7.6173     6.8397    35.9913 </r>
       <r>     7.7495     0.0654    36.0000 </r>
       <r>     7.8818     0.0000    36.0000 </r>
       <r>     8.0140     0.0000    36.0000 </r>
       <r>     8.1462     0.0000    36.0000 </r>
       <r>     8.2785     0.0000    36.0000 </r>
       <r>     8.4107     0.0000    36.0000 </r>
       <r>     8.5430     0.0000    36.0000 </r>
       <r>     8.6752     0.0000    36.0000 </r>
       <r>     8.8074     0.0000    36.0000 </r>
       <r>     8.9397     0.0000    36.0000 </r>
       <r>     9.0719     0.0000    36.0000 </r>
       <r>     9.2041     0.0000    36.0000 </r>
       <r>     9.3364     0.0000    36.0000 </r>
      </set>
     </set>
    </array>
   </total>
   <partial>
    <array>
     <dimension dim="1">gridpoints</dimension>
     <dimension dim="2">spin</dimension>
     <dimension dim="3">ion</dimension>
     <field>energy</field>
     <field>    s</field>
     <field>   py</field>
     <field>   pz</field>
     <field>   px</field>
     <field>  dxy</field>
     <field>  dyz</field>
     <field>  dz2</field>
     <field>  dxz</field>
     <field>x2-y2</field>
     <set>
      <set comment="ion 1">
       <set comment="spin 1">
        <r>   -30.3340     0.0000     0.0000     0.0000     0.0000     0.0000     0.0000     0.0000     0.0000     0.0000 </r>
        <r>   -30.2018     0.0000     0.0000     0.0000     0.0000     0.0000     0.0000     0.0000     0.0000     0.0000 </r>
        <r>   -30.0695     0.0000     0.0000     0.0000     0.0000     0.0000     0.0000     0.0000     0.0000     0.0000 </r>
        <r>   -29.9373     0.0000     0.0000     0.0000     0.0000     0.0000     0.0000     0.0000     0.0000     0.0000 </r>
        <r>   -29.8051     0.0000     0.0000     0.0000     0.0000     0.0000     0.0000     0.0000     0.0000     0.0000 </r>
        <r>   -29.6728     0.0000     0.0000     0.0000     0.0000     0.0000     0.0000     0.0000     0.0000     0.0000 </r>
        <r>   -29.5406     0.0000     0.0000     0.0000     0.0000     0.0000     0.0000     0.0000     0.0000     0.0000 </r>
        <r>   -29.4084     0.0000     0.0000     0.0000     0.0000     0.0000     0.0000     0.0000     0.0000     0.0000 </r>
        <r>   -29.2761     0.0000     0.0000     0.0000     0.0000     0.0000     0.0000     0.0000     0.0000     0.0000 </r>
        <r>   -29.1439     0.0000     0.0000     0.0000     0.0000     0.0000     0.0000     0.0000     0.0000     0.0000 </r>
        <r>   -29.0117     0.0000     0.0000     0.0000     0.0000     0.0000     0.0000     0.0000     0.0000     0.0000 </r>
        <r>   -28.8794     0.0000     0.0000     0.0000     0.0000     0.0000     0.0000     0.0000     0.0000     0.0000 </r>
        <r>   -28.7472     0.0000     0.0000     0.0000     0.0000     0.0000     0.0000     0.0000     0.0000     0.0000 </r>
        <r>   -28.6150     0.0000     0.0648     0.0648     0.0648     0.0000     0.0000     0.0000     0.0000     0.0000 </r>
        <r>   -28.4827     0.0000     6.7703     6.7703     6.7703     0.0000     0.0000     0.0000     0.0000     0.0000 </r>
        <r>   -28.3505     0.0000     0.6506     0.6505     0.6505     0.0000     0.0000     0.0000     0.0000     0.0000 </r>
        <r>   -28.2183     0.0000     0.0000     0.0000     0.0000     0.0000     0.0000     0.0000     0.0000     0.0000 </r>
        <r>   -28.0860     0.0000     0.0000     0.0000     0.0000     0.0000     0.0000     0.0000     0.0000     0.0000 </r>
        <r>   -27.9538     0.0000     0.0000     0.0000     0.0000     0.0000     0.0000     0.0000     0.0000     0.0000 </r>
        <r>   -27.8216     0.0000     0.0000     0.0000     0.0000     0.0000     0.0000     0.0000     0.0000     0.0000 </r>
        <r>   -27.6893     0.0000     0.0000     0.0000     0.0000     0.0000     0.0000     0.0000     0.0000     0.0000 </r>
        <r>   -27.5571     0.0000     0.0000     0.0000     0.0000     0.0000     0.0000     0.0000     0.0000     0.0000 </r>
        <r>   -27.4249     0.0000     0.0000     0.0000     0.0000     0.0000     0.0000     0.0000     0.0000     0.0000 </r>
        <r>   -27.2926     0.0000     0.0000     0.0000     0.0000     0.0000     0.0000     0.0000     0.0000     0.0000 </r>
        <r>   -27.1604     0.0000     0.0000     0.0000     0.0000     0.0000     0.0000     0.0000     0.0000     0.0000 </r>
        <r>   -27.0281     0.0000     0.0000     0.0000     0.0000     0.0000     0.0000     0.0000     0.0000     0.0000 </r>
        <r>   -26.8959     0.0000     0.0000     0.0000     0.0000     0.0000     0.0000     0.0000     0.0000     0.0000 </r>
        <r>   -26.7637     0.0000     0.0000     0.0000     0.0000     0.0000     0.0000     0.0000     0.0000     0.0000 </r>
        <r>   -26.6314     0.0000     0.0000     0.0000     0.0000     0.0000     0.0000     0.0000     0.0000     0.0000 </r>
        <r>   -26.4992     0.0000     0.0000     0.0000     0.0000     0.0000     0.0000     0.0000     0.0000     0.0000 </r>
        <r>   -26.3670     0.0000     0.0000     0.0000     0.0000     0.0000     0.0000     0.0000     0.0000     0.0000 </r>
        <r>   -26.2347     0.0000     0.0000     0.0000     0.0000     0.0000     0.0000     0.0000     0.0000     0.0000 </r>
        <r>   -26.1025     0.0000     0.0000     0.0000     0.0000     0.0000     0.0000     0.0000     0.0000     0.0000 </r>
        <r>   -25.9703     0.0000     0.0000     0.0000     0.0000     0.0000     0.0000     0.0000     0.0000     0.0000 </r>
        <r>   -25.8380     0.0000     0.0000     0.0000     0.0000     0.0000     0.0000     0.0000     0.0000     0.0000 </r>
        <r>   -25.7058     0.0000     0.0000     0.0000     0.0000     0.0000     0.0000     0.0000     0.0000     0.0000 </r>
        <r>   -25.5736     0.0000     0.0000     0.0000     0.0000     0.0000     0.0000     0.0000     0.0000     0.0000 </r>
        <r>   -25.4413     0.0000     0.0000     0.0000     0.0000     0.0000     0.0000     0.0000     0.0000     0.0000 </r>
        <r>   -25.3091     0.0000     0.0000     0.0000     0.0000     0.0000     0.0000     0.0000     0.0000     0.0000 </r>
        <r>   -25.1769     0.0000     0.0000     0.0000     0.0000     0.0000     0.0000     0.0000     0.0000     0.0000 </r>
        <r>   -25.0446     0.0000     0.0000     0.0000     0.0000     0.0000     0.0000     0.0000     0.0000     0.0000 </r>
        <r>   -24.9124     0.0000     0.0000     0.0000     0.0000     0.0000     0.0000     0.0000     0.0000     0.0000 </r>
        <r>   -24.7802     0.0000     0.0000     0.0000     0.0000     0.0000     0.0000     0.0000     0.0000     0.0000 </r>
        <r>   -24.6479     0.0000     0.0000     0.0000     0.0000     0.0000     0.0000     0.0000     0.0000     0.0000 </r>
        <r>   -24.5157     0.0000     0.0000     0.0000     0.0000     0.0000     0.0000     0.0000     0.0000     0.0000 </r>
        <r>   -24.3835     0.0000     0.0000     0.0000     0.0000     0.0000     0.0000     0.0000     0.0000     0.0000 </r>
        <r>   -24.2512     0.0000     0.0000     0.0000     0.0000     0.0000     0.0000     0.0000     0.0000     0.0000 </r>
        <r>   -24.1190     0.0000     0.0000     0.0000     0.0000     0.0000     0.0000     0.0000     0.0000     0.0000 </r>
        <r>   -23.9868     0.0000     0.0000     0.0000     0.0000     0.0000     0.0000     0.0000     0.0000     0.0000 </r>
        <r>   -23.8545     0.0000     0.0000     0.0000     0.0000     0.0000     0.0000     0.0000     0.0000     0.0000 </r>
        <r>   -23.7223     0.0000     0.0000     0.0000     0.0000     0.0000     0.0000     0.0000     0.0000     0.0000 </r>
        <r>   -23.5901     0.0000     0.0000     0.0000     0.0000     0.0000     0.0000     0.0000     0.0000     0.0000 </r>
        <r>   -23.4578     0.0000     0.0000     0.0000     0.0000     0.0000     0.0000     0.0000     0.0000     0.0000 </r>
        <r>   -23.3256     0.0000     0.0000     0.0000     0.0000     0.0000     0.0000     0.0000     0.0000     0.0000 </r>
        <r>   -23.1933     0.0000     0.0000     0.0000     0.0000     0.0000     0.0000     0.0000     0.0000     0.0000 </r>
        <r>   -23.0611     0.0000     0.0000     0.0000     0.0000     0.0000     0.0000     0.0000     0.0000     0.0000 </r>
        <r>   -22.9289     0.0000     0.0000     0.0000     0.0000     0.0000     0.0000     0.0000     0.0000     0.0000 </r>
        <r>   -22.7966     0.0000     0.0000     0.0000     0.0000     0.0000     0.0000     0.0000     0.0000     0.0000 </r>
        <r>   -22.6644     0.0000     0.0000     0.0000     0.0000     0.0000     0.0000     0.0000     0.0000     0.0000 </r>
        <r>   -22.5322     0.0000     0.0000     0.0000     0.0000     0.0000     0.0000     0.0000     0.0000     0.0000 </r>
        <r>   -22.3999     0.0000     0.0000     0.0000     0.0000     0.0000     0.0000     0.0000     0.0000     0.0000 </r>
        <r>   -22.2677     0.0000     0.0000     0.0000     0.0000     0.0000     0.0000     0.0000     0.0000     0.0000 </r>
        <r>   -22.1355     0.0000     0.0000     0.0000     0.0000     0.0000     0.0000     0.0000     0.0000     0.0000 </r>
        <r>   -22.0032     0.0000     0.0000     0.0000     0.0000     0.0000     0.0000     0.0000     0.0000     0.0000 </r>
        <r>   -21.8710     0.0000     0.0000     0.0000     0.0000     0.0000     0.0000     0.0000     0.0000     0.0000 </r>
        <r>   -21.7388     0.0000     0.0000     0.0000     0.0000     0.0000     0.0000     0.0000     0.0000     0.0000 </r>
        <r>   -21.6065     0.0000     0.0000     0.0000     0.0000     0.0000     0.0000     0.0000     0.0000     0.0000 </r>
        <r>   -21.4743     0.0000     0.0000     0.0000     0.0000     0.0000     0.0000     0.0000     0.0000     0.0000 </r>
        <r>   -21.3421     0.0000     0.0000     0.0000     0.0000     0.0000     0.0000     0.0000     0.0000     0.0000 </r>
        <r>   -21.2098     0.0000     0.0000     0.0000     0.0000     0.0000     0.0000     0.0000     0.0000     0.0000 </r>
        <r>   -21.0776     0.0000     0.0000     0.0000     0.0000     0.0000     0.0000     0.0000     0.0000     0.0000 </r>
        <r>   -20.9454     0.0000     0.0000     0.0000     0.0000     0.0000     0.0000     0.0000     0.0000     0.0000 </r>
        <r>   -20.8131     0.0000     0.0000     0.0000     0.0000     0.0000     0.0000     0.0000     0.0000     0.0000 </r>
        <r>   -20.6809     0.0000     0.0000     0.0000     0.0000     0.0000     0.0000     0.0000     0.0000     0.0000 </r>
        <r>   -20.5487     0.0000     0.0000     0.0000     0.0000     0.0000     0.0000     0.0000     0.0000     0.0000 </r>
        <r>   -20.4164     0.0000     0.0000     0.0000     0.0000     0.0000     0.0000     0.0000     0.0000     0.0000 </r>
        <r>   -20.2842     0.0000     0.0000     0.0000     0.0000     0.0000     0.0000     0.0000     0.0000     0.0000 </r>
        <r>   -20.1520     0.0000     0.0000     0.0000     0.0000     0.0000     0.0000     0.0000     0.0000     0.0000 </r>
        <r>   -20.0197     0.0000     0.0000     0.0000     0.0000     0.0000     0.0000     0.0000     0.0000     0.0000 </r>
        <r>   -19.8875     0.0000     0.0000     0.0000     0.0000     0.0000     0.0000     0.0000     0.0000     0.0000 </r>
        <r>   -19.7552     0.0000     0.0000     0.0000     0.0000     0.0000     0.0000     0.0000     0.0000     0.0000 </r>
        <r>   -19.6230     0.0000     0.0000     0.0000     0.0000     0.0000     0.0000     0.0000     0.0000     0.0000 </r>
        <r>   -19.4908     0.0000     0.0000     0.0000     0.0000     0.0000     0.0000     0.0000     0.0000     0.0000 </r>
        <r>   -19.3585     0.0000     0.0000     0.0000     0.0000     0.0000     0.0000     0.0000     0.0000     0.0000 </r>
        <r>   -19.2263     0.0000     0.0000     0.0000     0.0000     0.0000     0.0000     0.0000     0.0000     0.0000 </r>
        <r>   -19.0941     0.0000     0.0000     0.0000     0.0000     0.0000     0.0000     0.0000     0.0000     0.0000 </r>
        <r>   -18.9618     0.0000     0.0000     0.0000     0.0000     0.0000     0.0000     0.0000     0.0000     0.0000 </r>
        <r>   -18.8296     0.0000     0.0000     0.0000     0.0000     0.0000     0.0000     0.0000     0.0000     0.0000 </r>
        <r>   -18.6974     0.0000     0.0000     0.0000     0.0000     0.0000     0.0000     0.0000     0.0000     0.0000 </r>
        <r>   -18.5651     0.0000     0.0000     0.0000     0.0000     0.0000     0.0000     0.0000     0.0000     0.0000 </r>
        <r>   -18.4329     0.0000     0.0000     0.0000     0.0000     0.0000     0.0000     0.0000     0.0000     0.0000 </r>
        <r>   -18.3007     0.0000     0.0000     0.0000     0.0000     0.0000     0.0000     0.0000     0.0000     0.0000 </r>
        <r>   -18.1684     0.0000     0.0000     0.0000     0.0000     0.0000     0.0000     0.0000     0.0000     0.0000 </r>
        <r>   -18.0362     0.0000     0.0000     0.0000     0.0000     0.0000     0.0000     0.0000     0.0000     0.0000 </r>
        <r>   -17.9040     0.0000     0.0000     0.0000     0.0000     0.0000     0.0000     0.0000     0.0000     0.0000 </r>
        <r>   -17.7717     0.0000     0.0000     0.0000     0.0000     0.0000     0.0000     0.0000     0.0000     0.0000 </r>
        <r>   -17.6395     0.0000     0.0000     0.0000     0.0000     0.0000     0.0000     0.0000     0.0000     0.0000 </r>
        <r>   -17.5073     0.0000     0.0000     0.0000     0.0000     0.0000     0.0000     0.0000     0.0000     0.0000 </r>
        <r>   -17.3750     0.0000     0.0000     0.0000     0.0000     0.0000     0.0000     0.0000     0.0000     0.0000 </r>
        <r>   -17.2428     0.0000     0.0000     0.0000     0.0000     0.0000     0.0000     0.0000     0.0000     0.0000 </r>
        <r>   -17.1106     0.0000     0.0000     0.0000     0.0000     0.0000     0.0000     0.0000     0.0000     0.0000 </r>
        <r>   -16.9783     0.0000     0.0000     0.0000     0.0000     0.0000     0.0000     0.0000     0.0000     0.0000 </r>
        <r>   -16.8461     0.0000     0.0000     0.0000     0.0000     0.0000     0.0000     0.0000     0.0000     0.0000 </r>
        <r>   -16.7139     0.0000     0.0000     0.0000     0.0000     0.0000     0.0000     0.0000     0.0000     0.0000 </r>
        <r>   -16.5816     0.0000     0.0000     0.0000     0.0000     0.0000     0.0000     0.0000     0.0000     0.0000 </r>
        <r>   -16.4494     0.0000     0.0000     0.0000     0.0000     0.0000     0.0000     0.0000     0.0000     0.0000 </r>
        <r>   -16.3171     0.0000     0.0000     0.0000     0.0000     0.0000     0.0000     0.0000     0.0000     0.0000 </r>
        <r>   -16.1849     0.0000     0.0000     0.0000     0.0000     0.0000     0.0000     0.0000     0.0000     0.0000 </r>
        <r>   -16.0527     0.0000     0.0000     0.0000     0.0000     0.0000     0.0000     0.0000     0.0000     0.0000 </r>
        <r>   -15.9204     0.0000     0.0000     0.0000     0.0000     0.0000     0.0000     0.0000     0.0000     0.0000 </r>
        <r>   -15.7882     0.0000     0.0000     0.0000     0.0000     0.0000     0.0000     0.0000     0.0000     0.0000 </r>
        <r>   -15.6560     0.0000     0.0000     0.0000     0.0000     0.0000     0.0000     0.0000     0.0000     0.0000 </r>
        <r>   -15.5237     0.0000     0.0000     0.0000     0.0000     0.0000     0.0000     0.0000     0.0000     0.0000 </r>
        <r>   -15.3915     0.0000     0.0000     0.0000     0.0000     0.0000     0.0000     0.0000     0.0000     0.0000 </r>
        <r>   -15.2593     0.0000     0.0000     0.0000     0.0000     0.0000     0.0000     0.0000     0.0000     0.0000 </r>
        <r>   -15.1270     0.0000     0.0000     0.0000     0.0000     0.0000     0.0000     0.0000     0.0000     0.0000 </r>
        <r>   -14.9948     0.0000     0.0000     0.0000     0.0000     0.0000     0.0000     0.0000     0.0000     0.0000 </r>
        <r>   -14.8626     0.0000     0.0000     0.0000     0.0000     0.0000     0.0000     0.0000     0.0000     0.0000 </r>
        <r>   -14.7303     0.0000     0.0000     0.0000     0.0000     0.0000     0.0000     0.0000     0.0000     0.0000 </r>
        <r>   -14.5981     0.0000     0.0000     0.0000     0.0000     0.0000     0.0000     0.0000     0.0000     0.0000 </r>
        <r>   -14.4659     0.0000     0.0000     0.0000     0.0000     0.0000     0.0000     0.0000     0.0000     0.0000 </r>
        <r>   -14.3336     0.0000     0.0000     0.0000     0.0000     0.0000     0.0000     0.0000     0.0000     0.0000 </r>
        <r>   -14.2014     0.0000     0.0000     0.0000     0.0000     0.0000     0.0000     0.0000     0.0000     0.0000 </r>
        <r>   -14.0692     0.0000     0.0000     0.0000     0.0000     0.0000     0.0000     0.0000     0.0000     0.0000 </r>
        <r>   -13.9369     0.0000     0.0000     0.0000     0.0000     0.0000     0.0000     0.0000     0.0000     0.0000 </r>
        <r>   -13.8047     0.0000     0.0000     0.0000     0.0000     0.0000     0.0000     0.0000     0.0000     0.0000 </r>
        <r>   -13.6725     0.0000     0.0000     0.0000     0.0000     0.0000     0.0000     0.0000     0.0000     0.0000 </r>
        <r>   -13.5402     0.0000     0.0000     0.0000     0.0000     0.0000     0.0000     0.0000     0.0000     0.0000 </r>
        <r>   -13.4080     0.0000     0.0000     0.0000     0.0000     0.0000     0.0000     0.0000     0.0000     0.0000 </r>
        <r>   -13.2758     0.0000     0.0000     0.0000     0.0000     0.0000     0.0000     0.0000     0.0000     0.0000 </r>
        <r>   -13.1435     0.0000     0.0000     0.0000     0.0000     0.0000     0.0000     0.0000     0.0000     0.0000 </r>
        <r>   -13.0113     0.0000     0.0000     0.0000     0.0000     0.0000     0.0000     0.0000     0.0000     0.0000 </r>
        <r>   -12.8790     0.0000     0.0000     0.0000     0.0000     0.0000     0.0000     0.0000     0.0000     0.0000 </r>
        <r>   -12.7468     0.0000     0.0000     0.0000     0.0000     0.0000     0.0000     0.0000     0.0000     0.0000 </r>
        <r>   -12.6146     0.0000     0.0000     0.0000     0.0000     0.0000     0.0000     0.0000     0.0000     0.0000 </r>
        <r>   -12.4823     0.0000     0.0000     0.0000     0.0000     0.0000     0.0000     0.0000     0.0000     0.0000 </r>
        <r>   -12.3501     0.0000     0.0000     0.0000     0.0000     0.0000     0.0000     0.0000     0.0000     0.0000 </r>
        <r>   -12.2179     0.0000     0.0000     0.0000     0.0000     0.0000     0.0000     0.0000     0.0000     0.0000 </r>
        <r>   -12.0856     0.0000     0.0000     0.0000     0.0000     0.0000     0.0000     0.0000     0.0000     0.0000 </r>
        <r>   -11.9534     0.0000     0.0000     0.0000     0.0000     0.0000     0.0000     0.0000     0.0000     0.0000 </r>
        <r>   -11.8212     0.0000     0.0000     0.0000     0.0000     0.0000     0.0000     0.0000     0.0000     0.0000 </r>
        <r>   -11.6889     0.0000     0.0000     0.0000     0.0000     0.0000     0.0000     0.0000     0.0000     0.0000 </r>
        <r>   -11.5567     0.0000     0.0000     0.0000     0.0000     0.0000     0.0000     0.0000     0.0000     0.0000 </r>
        <r>   -11.4245     0.0000     0.0000     0.0000     0.0000     0.0000     0.0000     0.0000     0.0000     0.0000 </r>
        <r>   -11.2922     0.0000     0.0000     0.0000     0.0000     0.0000     0.0000     0.0000     0.0000     0.0000 </r>
        <r>   -11.1600     0.0000     0.0000     0.0000     0.0000     0.0000     0.0000     0.0000     0.0000     0.0000 </r>
        <r>   -11.0278     0.0000     0.0000     0.0000     0.0000     0.0000     0.0000     0.0000     0.0000     0.0000 </r>
        <r>   -10.8955     0.0000     0.0000     0.0000     0.0000     0.0000     0.0000     0.0000     0.0000     0.0000 </r>
        <r>   -10.7633     0.0000     0.0000     0.0000     0.0000     0.0000     0.0000     0.0000     0.0000     0.0000 </r>
        <r>   -10.6311     0.0000     0.0000     0.0000     0.0000     0.0000     0.0000     0.0000     0.0000     0.0000 </r>
        <r>   -10.4988     0.0000     0.0000     0.0000     0.0000     0.0000     0.0000     0.0000     0.0000     0.0000 </r>
        <r>   -10.3666     0.0000     0.0000     0.0000     0.0000     0.0000     0.0000     0.0000     0.0000     0.0000 </r>
        <r>   -10.2344     0.0000     0.0000     0.0000     0.0000     0.0000     0.0000     0.0000     0.0000     0.0000 </r>
        <r>   -10.1021     0.0000     0.0000     0.0000     0.0000     0.0000     0.0000     0.0000     0.0000     0.0000 </r>
        <r>    -9.9699     0.0000     0.0000     0.0000     0.0000     0.0000     0.0000     0.0000     0.0000     0.0000 </r>
        <r>    -9.8377     0.0000     0.0000     0.0000     0.0000     0.0000     0.0000     0.0000     0.0000     0.0000 </r>
        <r>    -9.7054     0.0000     0.0000     0.0000     0.0000     0.0000     0.0000     0.0000     0.0000     0.0000 </r>
        <r>    -9.5732     0.0000     0.0000     0.0000     0.0000     0.0000     0.0000     0.0000     0.0000     0.0000 </r>
        <r>    -9.4410     0.0000     0.0000     0.0000     0.0000     0.0000     0.0000     0.0000     0.0000     0.0000 </r>
        <r>    -9.3087     0.0000     0.0000     0.0000     0.0000     0.0000     0.0000     0.0000     0.0000     0.0000 </r>
        <r>    -9.1765     0.0000     0.0000     0.0000     0.0000     0.0000     0.0000     0.0000     0.0000     0.0000 </r>
        <r>    -9.0442     0.0000     0.0000     0.0000     0.0000     0.0000     0.0000     0.0000     0.0000     0.0000 </r>
        <r>    -8.9120     0.0000     0.0000     0.0000     0.0000     0.0000     0.0000     0.0000     0.0000     0.0000 </r>
        <r>    -8.7798     0.0000     0.0000     0.0000     0.0000     0.0000     0.0000     0.0000     0.0000     0.0000 </r>
        <r>    -8.6475     0.0000     0.0000     0.0000     0.0000     0.0000     0.0000     0.0000     0.0000     0.0000 </r>
        <r>    -8.5153     0.0000     0.0000     0.0000     0.0000     0.0000     0.0000     0.0000     0.0000     0.0000 </r>
        <r>    -8.3831     0.0000     0.0000     0.0000     0.0000     0.0000     0.0000     0.0000     0.0000     0.0000 </r>
        <r>    -8.2508     0.0000     0.0000     0.0000     0.0000     0.0000     0.0000     0.0000     0.0000     0.0000 </r>
        <r>    -8.1186     0.0000     0.0000     0.0000     0.0000     0.0000     0.0000     0.0000     0.0000     0.0000 </r>
        <r>    -7.9864     0.0000     0.0000     0.0000     0.0000     0.0000     0.0000     0.0000     0.0000     0.0000 </r>
        <r>    -7.8541     0.0000     0.0000     0.0000     0.0000     0.0000     0.0000     0.0000     0.0000     0.0000 </r>
        <r>    -7.7219     0.0000     0.0000     0.0000     0.0000     0.0000     0.0000     0.0000     0.0000     0.0000 </r>
        <r>    -7.5897     0.0000     0.0000     0.0000     0.0000     0.0000     0.0000     0.0000     0.0000     0.0000 </r>
        <r>    -7.4574     0.0000     0.0000     0.0000     0.0000     0.0000     0.0000     0.0000     0.0000     0.0000 </r>
        <r>    -7.3252     0.0000     0.0000     0.0000     0.0000     0.0000     0.0000     0.0000     0.0000     0.0000 </r>
        <r>    -7.1930     0.0000     0.0000     0.0000     0.0000     0.0000     0.0000     0.0000     0.0000     0.0000 </r>
        <r>    -7.0607     0.0000     0.0000     0.0000     0.0000     0.0000     0.0000     0.0000     0.0000     0.0000 </r>
        <r>    -6.9285     0.0000     0.0000     0.0000     0.0000     0.0000     0.0000     0.0000     0.0000     0.0000 </r>
        <r>    -6.7963     0.0000     0.0000     0.0000     0.0000     0.0000     0.0000     0.0000     0.0000     0.0000 </r>
        <r>    -6.6640     0.0000     0.0000     0.0000     0.0000     0.0000     0.0000     0.0000     0.0000     0.0000 </r>
        <r>    -6.5318     0.0000     0.0000     0.0000     0.0000     0.0000     0.0000     0.0000     0.0000     0.0000 </r>
        <r>    -6.3996     0.0000     0.0000     0.0000     0.0000     0.0000     0.0000     0.0000     0.0000     0.0000 </r>
        <r>    -6.2673     0.0000     0.0000     0.0000     0.0000     0.0000     0.0000     0.0000     0.0000     0.0000 </r>
        <r>    -6.1351     0.0000     0.0000     0.0000     0.0000     0.0000     0.0000     0.0000     0.0000     0.0000 </r>
        <r>    -6.0029     0.0000     0.0000     0.0000     0.0000     0.0000     0.0000     0.0000     0.0000     0.0000 </r>
        <r>    -5.8706     0.0000     0.0000     0.0000     0.0000     0.0000     0.0000     0.0000     0.0000     0.0000 </r>
        <r>    -5.7384     0.0000     0.0000     0.0000     0.0000     0.0000     0.0000     0.0000     0.0000     0.0000 </r>
        <r>    -5.6061     0.0000     0.0000     0.0000     0.0000     0.0000     0.0000     0.0000     0.0000     0.0000 </r>
        <r>    -5.4739     0.0000     0.0000     0.0000     0.0000     0.0000     0.0000     0.0000     0.0000     0.0000 </r>
        <r>    -5.3417     0.0000     0.0000     0.0000     0.0000     0.0000     0.0000     0.0000     0.0000     0.0000 </r>
        <r>    -5.2094     0.0000     0.0000     0.0000     0.0000     0.0000     0.0000     0.0000     0.0000     0.0000 </r>
        <r>    -5.0772     0.0000     0.0000     0.0000     0.0000     0.0000     0.0000     0.0000     0.0000     0.0000 </r>
        <r>    -4.9450     0.0000     0.0000     0.0000     0.0000     0.0000     0.0000     0.0000     0.0000     0.0000 </r>
[...]
        <r>     3.3858     0.0001     0.0035     0.0008     0.0013     0.0000     0.0000     0.0000     0.0000     0.0000 </r>
        <r>     3.5180     0.0012     0.0024     0.0021     0.0006     0.0000     0.0000     0.0000     0.0000     0.0000 </r>
        <r>     3.6503     0.0000     0.0000     0.0000     0.0000     0.0000     0.0000     0.0000     0.0000     0.0000 </r>
        <r>     3.7825     0.0000     0.0000     0.0000     0.0000     0.0000     0.0000     0.0000     0.0000     0.0000 </r>
        <r>     3.9147     0.0000     0.0000     0.0000     0.0000     0.0000     0.0000     0.0000     0.0000     0.0000 </r>
        <r>     4.0470     0.0000     0.0000     0.0000     0.0000     0.0000     0.0000     0.0000     0.0000     0.0000 </r>
        <r>     4.1792     0.0000     0.0000     0.0000     0.0000     0.0000     0.0000     0.0000     0.0000     0.0000 </r>
        <r>     4.3114     0.0000     0.0000     0.0002     0.0000     0.0000     0.0000     0.0000     0.0000     0.0000 </r>
        <r>     4.4437     0.0033     0.0371     0.0699     0.0177     0.0000     0.0000     0.0000     0.0000     0.0000 </r>
        <r>     4.5759     0.1443     0.0491     0.0309     0.0558     0.0000     0.0000     0.0000     0.0000     0.0000 </r>
        <r>     4.7082     0.0309     0.0020     0.0067     0.0422     0.0000     0.0000     0.0000     0.0000     0.0000 </r>
        <r>     4.8404     0.0000     0.0000     0.0000     0.0000     0.0000     0.0000     0.0000     0.0000     0.0000 </r>
        <r>     4.9726     0.0000     0.0000     0.0000     0.0000     0.0000     0.0000     0.0000     0.0000     0.0000 </r>
        <r>     5.1049     0.0000     0.0000     0.0000     0.0000     0.0000     0.0000     0.0000     0.0000     0.0000 </r>
        <r>     5.2371     0.0292     0.0007     0.0003     0.0067     0.0000     0.0000     0.0000     0.0000     0.0000 </r>
        <r>     5.3693     0.0110     0.0006     0.0001     0.0025     0.0000     0.0000     0.0000     0.0000     0.0000 </r>
        <r>     5.5016     0.0001     0.0068     0.0003     0.0004     0.0000     0.0000     0.0000     0.0000     0.0000 </r>
        <r>     5.6338     0.0102     0.0004     0.0027     0.0080     0.0000     0.0000     0.0000     0.0000     0.0000 </r>
        <r>     5.7660     0.0021     0.0001     0.0006     0.0017     0.0000     0.0000     0.0000     0.0000     0.0000 </r>
        <r>     5.8983     0.0000     0.0000     0.0000     0.0000     0.0000     0.0000     0.0000     0.0000     0.0000 </r>
        <r>     6.0305     0.0041     0.0000     0.0000     0.0003     0.0000     0.0000     0.0000     0.0000     0.0000 </r>
        <r>     6.1627     0.0583     0.0001     0.0006     0.0045     0.0000     0.0000     0.0000     0.0000     0.0000 </r>
        <r>     6.2950     0.0008     0.0000     0.0000     0.0001     0.0000     0.0000     0.0000     0.0000     0.0000 </r>
        <r>     6.4272     0.0000     0.0000     0.0000     0.0000     0.0000     0.0000     0.0000     0.0000     0.0000 </r>
        <r>     6.5594     0.0040     0.0194     0.0060     0.0029     0.0000     0.0000     0.0000     0.0000     0.0000 </r>
        <r>     6.6917     0.0069     0.0330     0.0103     0.0050     0.0000     0.0000     0.0000     0.0000     0.0000 </r>
        <r>     6.8239     0.0315     0.0000     0.0007     0.0228     0.0000     0.0000     0.0000     0.0000     0.0000 </r>
        <r>     6.9561     0.0270     0.0000     0.0006     0.0195     0.0000     0.0000     0.0000     0.0000     0.0000 </r>
        <r>     7.0884     0.0000     0.0000     0.0000     0.0000     0.0000     0.0000     0.0000     0.0000     0.0000 </r>
        <r>     7.2206     0.0000     0.0000     0.0000     0.0000     0.0000     0.0000     0.0000     0.0000     0.0000 </r>
        <r>     7.3528     0.0000     0.0000     0.0000     0.0000     0.0000     0.0000     0.0000     0.0000     0.0000 </r>
        <r>     7.4851     0.0004     0.0009     0.0000     0.0010     0.0000     0.0000     0.0000     0.0000     0.0000 </r>
        <r>     7.6173     0.0044     0.0098     0.0005     0.0107     0.0000     0.0000     0.0000     0.0000     0.0000 </r>
        <r>     7.7495     0.0000     0.0001     0.0000     0.0001     0.0000     0.0000     0.0000     0.0000     0.0000 </r>
        <r>     7.8818     0.0000     0.0000     0.0000     0.0000     0.0000     0.0000     0.0000     0.0000     0.0000 </r>
        <r>     8.0140     0.0000     0.0000     0.0000     0.0000     0.0000     0.0000     0.0000     0.0000     0.0000 </r>
        <r>     8.1462     0.0000     0.0000     0.0000     0.0000     0.0000     0.0000     0.0000     0.0000     0.0000 </r>
        <r>     8.2785     0.0000     0.0000     0.0000     0.0000     0.0000     0.0000     0.0000     0.0000     0.0000 </r>
        <r>     8.4107     0.0000     0.0000     0.0000     0.0000     0.0000     0.0000     0.0000     0.0000     0.0000 </r>
        <r>     8.5430     0.0000     0.0000     0.0000     0.0000     0.0000     0.0000     0.0000     0.0000     0.0000 </r>
        <r>     8.6752     0.0000     0.0000     0.0000     0.0000     0.0000     0.0000     0.0000     0.0000     0.0000 </r>
        <r>     8.8074     0.0000     0.0000     0.0000     0.0000     0.0000     0.0000     0.0000     0.0000     0.0000 </r>
        <r>     8.9397     0.0000     0.0000     0.0000     0.0000     0.0000     0.0000     0.0000     0.0000     0.0000 </r>
        <r>     9.0719     0.0000     0.0000     0.0000     0.0000     0.0000     0.0000     0.0000     0.0000     0.0000 </r>
        <r>     9.2041     0.0000     0.0000     0.0000     0.0000     0.0000     0.0000     0.0000     0.0000     0.0000 </r>
        <r>     9.3364     0.0000     0.0000     0.0000     0.0000     0.0000     0.0000     0.0000     0.0000     0.0000 </r>
       </set>
      </set>
     </set>
    </array>
   </partial>
  </dos>
  <projected>
   <eigenvalues>
    <array>
     <dimension dim="1">band</dimension>
     <dimension dim="2">kpoint</dimension>
     <dimension dim="3">spin</dimension>
     <field>eigene</field>
     <field>occ</field>
     <set>
      <set comment="spin 1">
       <set comment="kpoint 1">
        <r>  -28.5308    1.0000 </r>
        <r>  -28.5308    1.0000 </r>
        <r>  -28.5308    1.0000 </r>
        <r>   -2.9433    1.0000 </r>
        <r>   -0.6662    0.0000 </r>
        <r>   -0.6591    0.0000 </r>
        <r>   -0.6475    0.0000 </r>
        <r>   -0.3437    0.0000 </r>
        <r>    0.4120    0.0000 </r>
        <r>    0.4121    0.0000 </r>
        <r>    1.3823    0.0000 </r>
        <r>    1.4020    0.0000 </r>
        <r>    1.4390    0.0000 </r>
        <r>    1.4393    0.0000 </r>
        <r>    1.4395    0.0000 </r>
        <r>    1.4819    0.0000 </r>
        <r>    1.6088    0.0000 </r>
        <r>    2.0211    0.0000 </r>
        <r>    2.0569    0.0000 </r>
        <r>    2.0667    0.0000 </r>
        <r>    2.0703    0.0000 </r>
        <r>    2.0709    0.0000 </r>
        <r>    3.2700    0.0000 </r>
        <r>    3.2777    0.0000 </r>
        <r>    3.2872    0.0000 </r>
        <r>    3.4315    0.0000 </r>
        <r>    3.5590    0.0000 </r>
        <r>    3.6854    0.0000 </r>
        <r>    3.7021    0.0000 </r>
        <r>    3.7733    0.0000 </r>
        <r>    4.1077    0.0000 </r>
        <r>    4.2079    0.0000 </r>
        <r>    4.2616    0.0000 </r>
        <r>    4.4686    0.0000 </r>
        <r>    5.1056    0.0000 </r>
        <r>    5.7240    0.0000 </r>
       </set>
      </set>
      <set comment="spin 2">
       <set comment="kpoint 1">
        <r>  -28.4469    1.0000 </r>
        <r>  -28.4469    1.0000 </r>
        <r>  -28.4469    1.0000 </r>
        <r>   -1.3067    0.0000 </r>
        <r>    0.6471    0.0000 </r>
        <r>    1.2460    0.0000 </r>
        <r>    1.2472    0.0000 </r>
        <r>    1.2493    0.0000 </r>
        <r>    1.8849    0.0000 </r>
        <r>    1.8858    0.0000 </r>
        <r>    2.4619    0.0000 </r>
        <r>    2.4754    0.0000 </r>
        <r>    2.6387    0.0000 </r>
        <r>    2.6396    0.0000 </r>
        <r>    3.0360    0.0000 </r>
        <r>    3.1647    0.0000 </r>
        <r>    3.1658    0.0000 </r>
        <r>    3.3645    0.0000 </r>
        <r>    3.3646    0.0000 </r>
        <r>    3.3697    0.0000 </r>
        <r>    3.3768    0.0000 </r>
        <r>    3.4388    0.0000 </r>
        <r>    4.4142    0.0000 </r>
        <r>    4.4502    0.0000 </r>
        <r>    4.5325    0.0000 </r>
        <r>    4.5351    0.0000 </r>
        <r>    4.5364    0.0000 </r>
        <r>    4.5575    0.0000 </r>
        <r>    4.5729    0.0000 </r>
        <r>    5.2159    0.0000 </r>
        <r>    5.4310    0.0000 </r>
        <r>    5.6005    0.0000 </r>
        <r>    6.0840    0.0000 </r>
        <r>    6.5712    0.0000 </r>
        <r>    6.8205    0.0000 </r>
        <r>    7.5332    0.0000 </r>
       </set>
      </set>
     </set>
    </array>
   </eigenvalues>
   <array>
    <dimension dim="1">ion</dimension>
    <dimension dim="2">band</dimension>
    <dimension dim="3">kpoint</dimension>
    <dimension dim="4">spin</dimension>
    <field>    s</field>
    <field>   py</field>
    <field>   pz</field>
    <field>   px</field>
    <field>  dxy</field>
    <field>  dyz</field>
    <field>  dz2</field>
    <field>  dxz</field>
    <field>x2-y2</field>
    <set>
     <set comment="spin1">
      <set comment="kpoint 1">
       <set comment="band 1">
        <r>  0.0000  0.0000  0.0066  0.9832  0.0000  0.0000  0.0000  0.0000  0.0000 </r>
       </set>
       <set comment="band 2">
        <r>  0.0000  0.4178  0.5683  0.0038  0.0000  0.0000  0.0000  0.0000  0.0000 </r>
       </set>
       <set comment="band 3">
        <r>  0.0000  0.5721  0.4150  0.0028  0.0000  0.0000  0.0000  0.0000  0.0000 </r>
       </set>
       <set comment="band 4">
        <r>  0.1107  0.0000  0.0000  0.0000  0.0000  0.0000  0.0000  0.0000  0.0000 </r>
       </set>
       <set comment="band 5">
        <r>  0.0000  0.0206  0.0067  0.0007  0.0000  0.0000  0.0000  0.0000  0.0000 </r>
       </set>
       <set comment="band 6">
        <r>  0.0000  0.0026  0.0145  0.0093  0.0000  0.0000  0.0000  0.0000  0.0000 </r>
       </set>
       <set comment="band 7">
        <r>  0.0000  0.0038  0.0051  0.0161  0.0000  0.0000  0.0000  0.0000  0.0000 </r>
       </set>
       <set comment="band 8">
        <r>  0.0292  0.0000  0.0000  0.0000  0.0000  0.0000  0.0000  0.0000  0.0000 </r>
       </set>
       <set comment="band 9">
        <r>  0.0000  0.0000  0.0000  0.0000  0.0000  0.0000  0.0000  0.0000  0.0000 </r>
       </set>
       <set comment="band 10">
        <r>  0.0000  0.0000  0.0000  0.0000  0.0000  0.0000  0.0000  0.0000  0.0000 </r>
       </set>
       <set comment="band 11">
        <r>  0.0001  0.0013  0.0106  0.0024  0.0000  0.0000  0.0000  0.0000  0.0000 </r>
       </set>
       <set comment="band 12">
        <r>  0.0022  0.0110  0.0016  0.0000  0.0000  0.0000  0.0000  0.0000  0.0000 </r>
       </set>
       <set comment="band 13">
        <r>  0.0000  0.0000  0.0000  0.0003  0.0000  0.0000  0.0000  0.0000  0.0000 </r>
       </set>
       <set comment="band 14">
        <r>  0.0000  0.0000  0.0001  0.0004  0.0000  0.0000  0.0000  0.0000  0.0000 </r>
       </set>
       <set comment="band 15">
        <r>  0.0001  0.0002  0.0002  0.0008  0.0000  0.0000  0.0000  0.0000  0.0000 </r>
       </set>
       <set comment="band 16">
        <r>  0.0000  0.0007  0.0026  0.0092  0.0000  0.0000  0.0000  0.0000  0.0000 </r>
       </set>
       <set comment="band 17">
        <r>  0.0251  0.0011  0.0000  0.0001  0.0000  0.0000  0.0000  0.0000  0.0000 </r>
       </set>
       <set comment="band 18">
        <r>  0.0000  0.0000  0.0000  0.0010  0.0000  0.0000  0.0000  0.0000  0.0000 </r>
       </set>
       <set comment="band 19">
        <r>  0.0000  0.0001  0.0003  0.0002  0.0000  0.0000  0.0000  0.0000  0.0000 </r>
       </set>
       <set comment="band 20">
        <r>  0.0000  0.0000  0.0000  0.0001  0.0000  0.0000  0.0000  0.0000  0.0000 </r>
       </set>
       <set comment="band 21">
        <r>  0.0000  0.0000  0.0001  0.0000  0.0000  0.0000  0.0000  0.0000  0.0000 </r>
       </set>
       <set comment="band 22">
        <r>  0.0001  0.0001  0.0011  0.0008  0.0000  0.0000  0.0000  0.0000  0.0000 </r>
       </set>
       <set comment="band 23">
        <r>  0.0000  0.0000  0.0000  0.0000  0.0000  0.0000  0.0000  0.0000  0.0000 </r>
       </set>
       <set comment="band 24">
        <r>  0.0002  0.0000  0.0000  0.0001  0.0000  0.0000  0.0000  0.0000  0.0000 </r>
       </set>
       <set comment="band 25">
        <r>  0.0001  0.0000  0.0000  0.0000  0.0000  0.0000  0.0000  0.0000  0.0000 </r>
       </set>
       <set comment="band 26">
        <r>  0.0017  0.0000  0.0002  0.0044  0.0000  0.0000  0.0000  0.0000  0.0000 </r>
       </set>
       <set comment="band 27">
        <r>  0.0171  0.0000  0.0000  0.0007  0.0000  0.0000  0.0000  0.0000  0.0000 </r>
       </set>
       <set comment="band 28">
        <r>  0.0003  0.0010  0.0044  0.0000  0.0000  0.0000  0.0000  0.0000  0.0000 </r>
       </set>
       <set comment="band 29">
        <r>  0.0005  0.0000  0.0004  0.0070  0.0000  0.0000  0.0000  0.0000  0.0000 </r>
       </set>
       <set comment="band 30">
        <r>  0.0033  0.0041  0.0034  0.0000  0.0000  0.0000  0.0000  0.0000  0.0000 </r>
       </set>
       <set comment="band 31">
        <r>  0.0026  0.0010  0.0002  0.0006  0.0000  0.0000  0.0000  0.0000  0.0000 </r>
       </set>
       <set comment="band 32">
        <r>  0.0211  0.0012  0.0021  0.0054  0.0000  0.0000  0.0000  0.0000  0.0000 </r>
       </set>
       <set comment="band 33">
        <r>  0.0053  0.0021  0.0103  0.0016  0.0000  0.0000  0.0000  0.0000  0.0000 </r>
       </set>
       <set comment="band 34">
        <r>  0.0000  0.0212  0.0010  0.0010  0.0000  0.0000  0.0000  0.0000  0.0000 </r>
       </set>
       <set comment="band 35">
        <r>  0.0002  0.0005  0.0006  0.0018  0.0000  0.0000  0.0000  0.0000  0.0000 </r>
       </set>
       <set comment="band 36">
        <r>  0.0036  0.0004  0.0005  0.0023  0.0000  0.0000  0.0000  0.0000  0.0000 </r>
       </set>
      </set>
     </set>
     <set comment="spin2">
      <set comment="kpoint 1">
       <set comment="band 1">
        <r>  0.0000  0.0085  0.8328  0.1488  0.0000  0.0000  0.0000  0.0000  0.0000 </r>
       </set>
       <set comment="band 2">
        <r>  0.0000  0.1840  0.0976  0.7084  0.0000  0.0000  0.0000  0.0000  0.0000 </r>
       </set>
       <set comment="band 3">
        <r>  0.0000  0.7975  0.0596  0.1329  0.0000  0.0000  0.0000  0.0000  0.0000 </r>
       </set>
       <set comment="band 4">
        <r>  0.1456  0.0000  0.0000  0.0000  0.0000  0.0000  0.0000  0.0000  0.0000 </r>
       </set>
       <set comment="band 5">
        <r>  0.0233  0.0000  0.0000  0.0000  0.0000  0.0000  0.0000  0.0000  0.0000 </r>
       </set>
       <set comment="band 6">
        <r>  0.0000  0.0002  0.0339  0.0000  0.0000  0.0000  0.0000  0.0000  0.0000 </r>
       </set>
       <set comment="band 7">
        <r>  0.0000  0.0003  0.0000  0.0330  0.0000  0.0000  0.0000  0.0000  0.0000 </r>
       </set>
       <set comment="band 8">
        <r>  0.0000  0.0300  0.0001  0.0003  0.0000  0.0000  0.0000  0.0000  0.0000 </r>
       </set>
       <set comment="band 9">
        <r>  0.0000  0.0000  0.0000  0.0000  0.0000  0.0000  0.0000  0.0000  0.0000 </r>
       </set>
       <set comment="band 10">
        <r>  0.0000  0.0000  0.0000  0.0000  0.0000  0.0000  0.0000  0.0000  0.0000 </r>
       </set>
       <set comment="band 11">
        <r>  0.0008  0.0002  0.0172  0.0046  0.0000  0.0000  0.0000  0.0000  0.0000 </r>
       </set>
       <set comment="band 12">
        <r>  0.0010  0.0017  0.0031  0.0162  0.0000  0.0000  0.0000  0.0000  0.0000 </r>
       </set>
       <set comment="band 13">
        <r>  0.0236  0.0001  0.0015  0.0003  0.0000  0.0000  0.0000  0.0000  0.0000 </r>
       </set>
       <set comment="band 14">
        <r>  0.0000  0.0198  0.0007  0.0007  0.0000  0.0000  0.0000  0.0000  0.0000 </r>
       </set>
       <set comment="band 15">
        <r>  0.0000  0.0048  0.0002  0.0001  0.0000  0.0000  0.0000  0.0000  0.0000 </r>
       </set>
       <set comment="band 16">
        <r>  0.0000  0.0001  0.0000  0.0001  0.0000  0.0000  0.0000  0.0000  0.0000 </r>
       </set>
       <set comment="band 17">
        <r>  0.0000  0.0002  0.0001  0.0000  0.0000  0.0000  0.0000  0.0000  0.0000 </r>
       </set>
       <set comment="band 18">
        <r>  0.0000  0.0005  0.0000  0.0000  0.0000  0.0000  0.0000  0.0000  0.0000 </r>
       </set>
       <set comment="band 19">
        <r>  0.0000  0.0000  0.0001  0.0001  0.0000  0.0000  0.0000  0.0000  0.0000 </r>
       </set>
       <set comment="band 20">
        <r>  0.0000  0.0001  0.0000  0.0001  0.0000  0.0000  0.0000  0.0000  0.0000 </r>
       </set>
       <set comment="band 21">
        <r>  0.0000  0.0001  0.0000  0.0000  0.0000  0.0000  0.0000  0.0000  0.0000 </r>
       </set>
       <set comment="band 22">
        <r>  0.0002  0.0001  0.0003  0.0000  0.0000  0.0000  0.0000  0.0000  0.0000 </r>
       </set>
       <set comment="band 23">
        <r>  0.0002  0.0013  0.0109  0.0029  0.0000  0.0000  0.0000  0.0000  0.0000 </r>
       </set>
       <set comment="band 24">
        <r>  0.0005  0.0090  0.0014  0.0000  0.0000  0.0000  0.0000  0.0000  0.0000 </r>
       </set>
       <set comment="band 25">
        <r>  0.0003  0.0000  0.0000  0.0000  0.0000  0.0000  0.0000  0.0000  0.0000 </r>
       </set>
       <set comment="band 26">
        <r>  0.0013  0.0009  0.0001  0.0004  0.0000  0.0000  0.0000  0.0000  0.0000 </r>
       </set>
       <set comment="band 27">
        <r>  0.0154  0.0001  0.0000  0.0001  0.0000  0.0000  0.0000  0.0000  0.0000 </r>
       </set>
       <set comment="band 28">
        <r>  0.0056  0.0001  0.0001  0.0000  0.0000  0.0000  0.0000  0.0000  0.0000 </r>
       </set>
       <set comment="band 29">
        <r>  0.0004  0.0002  0.0018  0.0118  0.0000  0.0000  0.0000  0.0000  0.0000 </r>
       </set>
       <set comment="band 30">
        <r>  0.0053  0.0001  0.0001  0.0012  0.0000  0.0000  0.0000  0.0000  0.0000 </r>
       </set>
       <set comment="band 31">
        <r>  0.0000  0.0010  0.0000  0.0000  0.0000  0.0000  0.0000  0.0000  0.0000 </r>
       </set>
       <set comment="band 32">
        <r>  0.0016  0.0000  0.0004  0.0013  0.0000  0.0000  0.0000  0.0000  0.0000 </r>
       </set>
       <set comment="band 33">
        <r>  0.0084  0.0000  0.0001  0.0006  0.0000  0.0000  0.0000  0.0000  0.0000 </r>
       </set>
       <set comment="band 34">
        <r>  0.0014  0.0069  0.0022  0.0011  0.0000  0.0000  0.0000  0.0000  0.0000 </r>
       </set>
       <set comment="band 35">
        <r>  0.0077  0.0000  0.0002  0.0056  0.0000  0.0000  0.0000  0.0000  0.0000 </r>
       </set>
       <set comment="band 36">
        <r>  0.0006  0.0014  0.0001  0.0016  0.0000  0.0000  0.0000  0.0000  0.0000 </r>
       </set>
      </set>
     </set>
    </set>
   </array>
  </projected>
 </calculation>
 <structure name="finalpos" >
  <crystal>
   <varray name="basis" >
    <v>      10.00000000       0.00000000       0.00000000 </v>
    <v>       0.00000000      10.00000000       0.00000000 </v>
    <v>       0.00000000       0.00000000      10.00000000 </v>
   </varray>
   <i name="volume">   1000.00000000 </i>
   <varray name="rec_basis" >
    <v>       0.10000000       0.00000000       0.00000000 </v>
    <v>       0.00000000       0.10000000       0.00000000 </v>
    <v>       0.00000000       0.00000000       0.10000000 </v>
   </varray>
  </crystal>
  <varray name="positions" >
   <v>       0.50000000       0.50000000       0.50000000 </v>
  </varray>
 </structure>
</modeling>
