       N       E                     dE             d eps       ncg     rms          ort
DAV:   1     0.226476159356E+03    0.22648E+03   -0.32818E+03    36   0.237E+02
DAV:   2     0.485864845110E+02   -0.17789E+03   -0.17695E+03    36   0.698E+01
DAV:   3     0.607390305925E+01   -0.42513E+02   -0.42465E+02    36   0.487E+01
DAV:   4    -0.204040585352E+00   -0.62779E+01   -0.62769E+01    36   0.192E+01
DAV:   5    -0.179836241515E+01   -0.15943E+01   -0.15608E+01    36   0.837E+00
SDA:   6    -0.126093284346E+01    0.53743E+00   -0.33554E+01    36   0.839E+01 0.000E+00
DMP:   7    -0.281531666615E+01   -0.15544E+01   -0.11321E+01    36   0.296E+01-0.345E+00
DMP:   8    -0.301031786540E+01   -0.19500E+00   -0.74651E+00    36   0.260E+01-0.191E+01
DMP:   9    -0.321032093540E+01   -0.20000E+00   -0.45567E+00    36   0.158E+01-0.116E+01
DMP:  10    -0.340259934930E+01   -0.19228E+00   -0.15617E+00    36   0.471E+00-0.212E+00
DMP:  11    -0.350755499687E+01   -0.10496E+00   -0.11617E+00    36   0.245E+00 0.119E+00
DMP:  12    -0.359308378545E+01   -0.85529E-01   -0.93985E-01    36   0.186E+00 0.129E+00
DMP:  13    -0.364963326627E+01   -0.56549E-01   -0.34479E-01    36   0.580E-01 0.739E-01
DMP:  14    -0.367533440900E+01   -0.25701E-01   -0.18152E-01    36   0.274E-01 0.471E-01
DMP:  15    -0.368961771447E+01   -0.14283E-01   -0.97194E-02    36   0.142E-01 0.264E-01
DMP:  16    -0.369755027803E+01   -0.79326E-02   -0.50624E-02    36   0.673E-02 0.155E-01
DMP:  17    -0.370163495488E+01   -0.40847E-02   -0.24551E-02    36   0.314E-02 0.784E-02
DMP:  18    -0.370364291913E+01   -0.20080E-02   -0.11723E-02    36   0.143E-02 0.393E-02
DMP:  19    -0.370460055622E+01   -0.95764E-03   -0.54226E-03    36   0.643E-03 0.187E-02
DMP:  20    -0.370504962622E+01   -0.44907E-03   -0.24859E-03    36   0.282E-03 0.888E-03
DMP:  21    -0.370525236486E+01   -0.20274E-03   -0.10706E-03    36   0.117E-03 0.393E-03
DMP:  22    -0.370533958812E+01   -0.87223E-04   -0.45414E-04    36   0.490E-04 0.169E-03
DMP:  23    -0.370537622782E+01   -0.36640E-04   -0.18483E-04    36   0.195E-04 0.700E-04
   1 F= -.37053762E+01 E0= -.37053762E+01  d E =-.370538E+01  mag=     3.0000
