<?xml version="1.0" encoding="ISO-8859-1"?>
<modeling>
 <generator>
  <i name="program" type="string">vasp </i>
  <i name="version" type="string">5.4.4.18Apr17-6-g9f103f2a35  </i>
  <i name="subversion" type="string">(build Nov 08 2019 15:19:53) gamma-only         parallel </i>
  <i name="platform" type="string">LinuxIFC </i>
  <i name="date" type="string">2020 11 30 </i>
  <i name="time" type="string">09:31:05 </i>
 </generator>
 <incar>
  <i type="string" name="PREC">accurate</i>
  <i type="string" name="ALGO"> D</i>
  <i type="int" name="ISPIN">     2</i>
  <i type="int" name="NELM">   300</i>
  <i type="int" name="IBRION">     2</i>
  <i name="EDIFF">      0.00005000</i>
  <i type="int" name="NSW">    99</i>
  <i type="int" name="ISIF">     2</i>
  <i name="ENCUT">    520.00000000</i>
  <v name="MAGMOM">      0.60000000</v>
  <i type="string" name="LREAL"> Auto</i>
  <i type="int" name="ISMEAR">     0</i>
  <i name="SIGMA">      0.05000000</i>
  <i type="logical" name="LWAVE"> F  </i>
  <i type="int" name="LORBIT">    11</i>
  <i type="logical" name="LASPH"> T  </i>
  <v type="int" name="KPOINT_BSE">    -1     0     0     0</v>
  <i type="int" name="NELM">   300</i>
  <i type="logical" name="LASPH"> T  </i>
 </incar>
 <structure name="primitive_cell" >
  <crystal>
   <varray name="basis" >
    <v>      10.00000000       0.00000000       0.00000000 </v>
    <v>       0.00000000      10.00000000       0.00000000 </v>
    <v>       0.00000000       0.00000000      10.00000000 </v>
   </varray>
   <i name="volume">   1000.00000000 </i>
   <varray name="rec_basis" >
    <v>       0.10000000       0.00000000       0.00000000 </v>
    <v>       0.00000000       0.10000000       0.00000000 </v>
    <v>       0.00000000       0.00000000       0.10000000 </v>
   </varray>
  </crystal>
  <varray name="positions" >
   <v>      -0.50000000      -0.50000000      -0.50000000 </v>
  </varray>
 </structure>
 <varray name="primitive_index" >
  <v type="int" >        1 </v>
 </varray>
 <kpoints>
  <generation param="Gamma">
   <v type="int" name="divisions">       1        1        1 </v>
   <v name="usershift">      0.00000000       0.00000000       0.00000000 </v>
   <v name="genvec1">      1.00000000       0.00000000       0.00000000 </v>
   <v name="genvec2">      0.00000000       1.00000000       0.00000000 </v>
   <v name="genvec3">      0.00000000       0.00000000       1.00000000 </v>
   <v name="shift">      0.00000000       0.00000000       0.00000000 </v>
  </generation>
  <varray name="kpointlist" >
   <v>       0.00000000       0.00000000       0.00000000 </v>
  </varray>
  <varray name="weights" >
   <v>       1.00000000 </v>
  </varray>
 </kpoints>
 <parameters>
  <separator name="general" >
   <i type="string" name="SYSTEM">unknown system</i>
   <i type="logical" name="LCOMPAT"> F  </i>
  </separator>
  <separator name="electronic" >
   <i type="string" name="PREC">accura</i>
   <i name="ENMAX">    520.00000000</i>
   <i name="ENAUG">    377.42100000</i>
   <i name="EDIFF">      0.00005000</i>
   <i type="int" name="IALGO">    53</i>
   <i type="int" name="IWAVPR">    11</i>
   <i type="int" name="NBANDS">    36</i>
   <i name="NELECT">     11.00000000</i>
   <i type="int" name="TURBO">     0</i>
   <i type="int" name="IRESTART">     0</i>
   <i type="int" name="NREBOOT">     0</i>
   <i type="int" name="NMIN">     0</i>
   <i name="EREF">      0.00000000</i>
   <separator name="electronic smearing" >
    <i type="int" name="ISMEAR">     0</i>
    <i name="SIGMA">      0.05000000</i>
    <i name="KSPACING">      0.50000000</i>
    <i type="logical" name="KGAMMA"> T  </i>
   </separator>
   <separator name="electronic projectors" >
    <i type="logical" name="LREAL"> T  </i>
    <v name="ROPT">     -0.00025000</v>
    <i type="int" name="LMAXPAW">  -100</i>
    <i type="int" name="LMAXMIX">     2</i>
    <i type="logical" name="NLSPLINE"> F  </i>
   </separator>
   <separator name="electronic startup" >
    <i type="int" name="ISTART">     0</i>
    <i type="int" name="ICHARG">     2</i>
    <i type="int" name="INIWAV">     1</i>
   </separator>
   <separator name="electronic spin" >
    <i type="int" name="ISPIN">     2</i>
    <i type="logical" name="LNONCOLLINEAR"> F  </i>
    <v name="MAGMOM">      0.60000000</v>
    <i name="NUPDOWN">     -1.00000000</i>
    <i type="logical" name="LSORBIT"> F  </i>
    <v name="SAXIS">      0.00000000      0.00000000      1.00000000</v>
    <i type="logical" name="LSPIRAL"> F  </i>
    <v name="QSPIRAL">      0.00000000      0.00000000      0.00000000</v>
    <i type="logical" name="LZEROZ"> F  </i>
   </separator>
   <separator name="electronic exchange-correlation" >
    <i type="logical" name="LASPH"> T  </i>
    <i type="logical" name="LMETAGGA"> F  </i>
   </separator>
   <separator name="electronic convergence" >
    <i type="int" name="NELM">   300</i>
    <i type="int" name="NELMDL">    -5</i>
    <i type="int" name="NELMIN">     2</i>
    <i name="ENINI">    520.00000000</i>
    <separator name="electronic convergence detail" >
     <i type="logical" name="LDIAG"> T  </i>
     <i type="logical" name="LSUBROT"> F  </i>
     <i name="WEIMIN">      0.00100000</i>
     <i name="EBREAK">      0.00000035</i>
     <i name="DEPER">      0.30000000</i>
     <i type="int" name="NRMM">     4</i>
     <i name="TIME">      0.40000000</i>
    </separator>
   </separator>
   <separator name="electronic mixer" >
    <i name="AMIX">      0.40000000</i>
    <i name="BMIX">      1.00000000</i>
    <i name="AMIN">      0.10000000</i>
    <i name="AMIX_MAG">      1.60000000</i>
    <i name="BMIX_MAG">      1.00000000</i>
    <separator name="electronic mixer details" >
     <i type="int" name="IMIX">     4</i>
     <i type="logical" name="MIXFIRST"> F  </i>
     <i type="int" name="MAXMIX">   -45</i>
     <i name="WC">    100.00000000</i>
     <i type="int" name="INIMIX">     1</i>
     <i type="int" name="MIXPRE">     1</i>
     <i type="int" name="MREMOVE">     5</i>
    </separator>
   </separator>
   <separator name="electronic dipolcorrection" >
    <i type="logical" name="LDIPOL"> F  </i>
    <i type="logical" name="LMONO"> F  </i>
    <i type="int" name="IDIPOL">     0</i>
    <i name="EPSILON">      1.00000000</i>
    <v name="DIPOL">   -100.00000000   -100.00000000   -100.00000000</v>
    <i name="EFIELD">      0.00000000</i>
   </separator>
  </separator>
  <separator name="grids" >
   <i type="int" name="NGX">    80</i>
   <i type="int" name="NGY">    80</i>
   <i type="int" name="NGZ">    80</i>
   <i type="int" name="NGXF">   160</i>
   <i type="int" name="NGYF">   160</i>
   <i type="int" name="NGZF">   160</i>
   <i type="logical" name="ADDGRID"> F  </i>
  </separator>
  <separator name="ionic" >
   <i type="int" name="NSW">    99</i>
   <i type="int" name="IBRION">     2</i>
   <i type="int" name="MDALGO">     0</i>
   <i type="int" name="ISIF">     2</i>
   <i name="PSTRESS">      0.00000000</i>
   <i name="EDIFFG">      0.00050000</i>
   <i type="int" name="NFREE">     1</i>
   <i name="POTIM">      0.50000000</i>
   <i name="SMASS">     -3.00000000</i>
   <i name="SCALEE">      1.00000000</i>
  </separator>
  <separator name="ionic md" >
   <i name="TEBEG">      0.00010000</i>
   <i name="TEEND">      0.00010000</i>
   <i type="int" name="NBLOCK">     1</i>
   <i type="int" name="KBLOCK">    99</i>
   <i type="int" name="NPACO">   256</i>
   <i name="APACO">     16.00000000</i>
  </separator>
  <separator name="symmetry" >
   <i type="int" name="ISYM">     2</i>
   <i name="SYMPREC">      0.00001000</i>
  </separator>
  <separator name="dos" >
   <i type="int" name="LORBIT">    11</i>
   <v name="RWIGS">     -1.00000000</v>
   <i type="int" name="NEDOS">   301</i>
   <i name="EMIN">     10.00000000</i>
   <i name="EMAX">    -10.00000000</i>
   <i name="EFERMI">      0.00000000</i>
  </separator>
  <separator name="writing" >
   <i type="int" name="NWRITE">     2</i>
   <i type="logical" name="LWAVE"> F  </i>
   <i type="logical" name="LDOWNSAMPLE"> F  </i>
   <i type="logical" name="LCHARG"> T  </i>
   <i type="logical" name="LPARD"> F  </i>
   <i type="logical" name="LVTOT"> F  </i>
   <i type="logical" name="LVHAR"> F  </i>
   <i type="logical" name="LELF"> F  </i>
   <i type="logical" name="LOPTICS"> F  </i>
   <v name="STM">      0.00000000      0.00000000      0.00000000      0.00000000      0.00000000      0.00000000      0.00000000</v>
  </separator>
  <separator name="performance" >
   <i type="int" name="NPAR">    36</i>
   <i type="int" name="NSIM">     4</i>
   <i type="int" name="NBLK">    -1</i>
   <i type="logical" name="LPLANE"> T  </i>
   <i type="logical" name="LSCALAPACK"> T  </i>
   <i type="logical" name="LSCAAWARE"> F  </i>
   <i type="logical" name="LSCALU"> F  </i>
   <i type="logical" name="LASYNC"> F  </i>
   <i type="logical" name="LORBITALREAL"> F  </i>
  </separator>
  <separator name="miscellaneous" >
   <i type="int" name="IDIOT">     3</i>
   <i type="int" name="ISPECIAL">     0</i>
   <i type="logical" name="LMUSIC"> F  </i>
   <v name="POMASS">    180.94800000</v>
   <v name="DARWINR">      0.00000000</v>
   <v name="DARWINV">      1.00000000</v>
   <i type="logical" name="LCORR"> T  </i>
  </separator>
  <i type="logical" name="GGA_COMPAT"> T  </i>
  <i type="logical" name="LBERRY"> F  </i>
  <i type="int" name="ICORELEVEL">     0</i>
  <i type="logical" name="LDAU"> F  </i>
  <i type="int" name="I_CONSTRAINED_M">     0</i>
  <separator name="electronic exchange-correlation" >
   <i type="string" name="GGA">--</i>
   <i type="int" name="VOSKOWN">     0</i>
   <i type="logical" name="LHFCALC"> F  </i>
   <i type="string" name="PRECFOCK"></i>
   <i type="logical" name="LSYMGRAD"> F  </i>
   <i type="logical" name="LHFONE"> F  </i>
   <i type="logical" name="LRHFCALC"> F  </i>
   <i type="logical" name="LTHOMAS"> F  </i>
   <i type="logical" name="LMODELHF"> F  </i>
   <i name="ENCUT4O">     -1.00000000</i>
   <i type="int" name="EXXOEP">     0</i>
   <i type="int" name="FOURORBIT">     0</i>
   <i name="AEXX">      0.00000000</i>
   <i name="HFALPHA">      0.00000000</i>
   <i name="MCALPHA">      0.00000000</i>
   <i name="ALDAX">      1.00000000</i>
   <i name="AGGAX">      1.00000000</i>
   <i name="ALDAC">      1.00000000</i>
   <i name="AGGAC">      1.00000000</i>
   <i type="int" name="NKREDX">     1</i>
   <i type="int" name="NKREDY">     1</i>
   <i type="int" name="NKREDZ">     1</i>
   <i type="logical" name="SHIFTRED"> F  </i>
   <i type="logical" name="ODDONLY"> F  </i>
   <i type="logical" name="EVENONLY"> F  </i>
   <i type="int" name="LMAXFOCK">     0</i>
   <i type="int" name="NMAXFOCKAE">     0</i>
   <i type="logical" name="LFOCKAEDFT"> F  </i>
   <i name="HFSCREEN">      0.00000000</i>
   <i name="HFSCREENC">      0.00000000</i>
   <i type="int" name="NBANDSGWLOW">     0</i>
  </separator>
  <separator name="vdW DFT" >
   <i type="logical" name="LUSE_VDW"> F  </i>
   <i name="Zab_VDW">     -0.84910000</i>
   <i name="PARAM1">      0.12340000</i>
   <i name="PARAM2">      1.00000000</i>
   <i name="PARAM3">      0.00000000</i>
  </separator>
  <separator name="model GW" >
   <i type="int" name="MODEL_GW">     0</i>
   <i name="MODEL_EPS0">    600.00000000</i>
   <i name="MODEL_ALPHA">      1.00000000</i>
  </separator>
  <separator name="linear response parameters" >
   <i type="logical" name="LEPSILON"> F  </i>
   <i type="logical" name="LRPA"> F  </i>
   <i type="logical" name="LNABLA"> F  </i>
   <i type="logical" name="LVEL"> F  </i>
   <i type="int" name="KINTER">     0</i>
   <i name="CSHIFT">      0.10000000</i>
   <i name="OMEGAMAX">     -1.00000000</i>
   <i name="DEG_THRESHOLD">      0.00200000</i>
   <i name="RTIME">     -0.10000000</i>
   <i name="WPLASMAI">      0.00000000</i>
   <v name="DFIELD">      0.00000000      0.00000000      0.00000000</v>
   <v name="WPLASMA">      0.00000000      0.00000000      0.00000000      0.00000000      0.00000000      0.00000000      0.00000000      0.00000000      0.00000000</v>
  </separator>
  <separator name="orbital magnetization" >
   <i type="logical" name="NUCIND"> F  </i>
   <v name="MAGPOS">      0.00000000      0.00000000      0.00000000</v>
   <i type="logical" name="LNICSALL"> T  </i>
   <i type="logical" name="ORBITALMAG"> F  </i>
   <i type="logical" name="LMAGBLOCH"> F  </i>
   <i type="logical" name="LCHIMAG"> F  </i>
   <i type="logical" name="LGAUGE"> T  </i>
   <i type="int" name="MAGATOM">     0</i>
   <v name="MAGDIPOL">      0.00000000      0.00000000      0.00000000</v>
   <v name="AVECCONST">      0.00000000      0.00000000      0.00000000</v>
  </separator>
  <separator name="response functions" >
   <i type="logical" name="LADDER"> F  </i>
   <i type="logical" name="LRPAFORCE"> F  </i>
   <i type="logical" name="LFXC"> F  </i>
   <i type="logical" name="LHARTREE"> T  </i>
   <i type="int" name="IBSE">     0</i>
   <v type="int" name="KPOINT">    -1     0     0     0</v>
   <i type="logical" name="LTCTE"> F  </i>
   <i type="logical" name="LTETE"> F  </i>
   <i type="logical" name="LTRIPLET"> F  </i>
   <i type="logical" name="LFXCEPS"> F  </i>
   <i type="logical" name="LFXHEG"> F  </i>
   <i type="int" name="NATURALO">     2</i>
   <i type="logical" name="L2ORDER"> F  </i>
   <i type="logical" name="LMP2LT"> F  </i>
   <i type="logical" name="LUSEW"> F  </i>
   <i name="ENCUTGW">     -2.00000000</i>
   <i name="ENCUTGWSOFT">     -2.00000000</i>
   <i name="ENCUTLF">     -1.00000000</i>
   <i type="int" name="LMAXMP2">    -1</i>
   <i name="SCISSOR">      0.00000000</i>
   <i type="int" name="NOMEGA">     0</i>
   <i type="int" name="NOMEGAR">     0</i>
   <i type="int" name="NBANDSGW">    -1</i>
   <i type="int" name="NBANDSO">    -1</i>
   <i type="int" name="NBANDSV">    -1</i>
   <i type="int" name="NELM">   300</i>
   <i type="int" name="NELMHF">     1</i>
   <i type="int" name="DIM">     3</i>
   <i type="int" name="ANTIRES">     0</i>
   <i name="OMEGAMAX">    -30.00000000</i>
   <i name="OMEGAMIN">    -30.00000000</i>
   <i name="OMEGATL">   -200.00000000</i>
   <i type="int" name="OMEGAGRID">   140</i>
   <i name="CSHIFT">     -0.10000000</i>
   <i type="logical" name="SELFENERGY"> F  </i>
   <i type="logical" name="LSPECTRAL"> F  </i>
   <i type="logical" name="LSPECTRALGW"> F  </i>
   <i type="logical" name="LSINGLES"> F  </i>
   <i type="logical" name="LFERMIGW"> F  </i>
   <i type="logical" name="ODDONLYGW"> F  </i>
   <i type="logical" name="EVENONLYGW"> F  </i>
   <i type="int" name="NKREDLFX">     1</i>
   <i type="int" name="NKREDLFY">     1</i>
   <i type="int" name="NKREDLFZ">     1</i>
   <i type="int" name="MAXMEM">  2800</i>
   <i type="int" name="TELESCOPE">     0</i>
   <i type="int" name="TAUPAR">     1</i>
   <i type="int" name="OMEGAPAR">    -1</i>
   <i name="LAMBDA">      1.00000000</i>
  </separator>
  <separator name="External order field" >
   <i name="OFIELD_KAPPA">      0.00000000</i>
   <v name="OFIELD_K">      0.00000000      0.00000000      0.00000000</v>
   <i name="OFIELD_Q6_NEAR">      0.00000000</i>
   <i name="OFIELD_Q6_FAR">      0.00000000</i>
   <i name="OFIELD_A">      0.00000000</i>
  </separator>
 </parameters>
 <atominfo>
  <atoms>       1 </atoms>
  <types>       1 </types>
  <array name="atoms" >
   <dimension dim="1">ion</dimension>
   <field type="string">element</field>
   <field type="int">atomtype</field>
   <set>
    <rc><c>Ta</c><c>   1</c></rc>
   </set>
  </array>
  <array name="atomtypes" >
   <dimension dim="1">type</dimension>
   <field type="int">atomspertype</field>
   <field type="string">element</field>
   <field>mass</field>
   <field>valence</field>
   <field type="string">pseudopotential</field>
   <set>
    <rc><c>   1</c><c>Ta</c><c>    180.94800000</c><c>     11.00000000</c><c>  PAW_PBE Ta_pv 07Sep2000               </c></rc>
   </set>
  </array>
 </atominfo>
 <structure name="initialpos" >
  <crystal>
   <varray name="basis" >
    <v>      10.00000000       0.00000000       0.00000000 </v>
    <v>       0.00000000      10.00000000       0.00000000 </v>
    <v>       0.00000000       0.00000000      10.00000000 </v>
   </varray>
   <i name="volume">   1000.00000000 </i>
   <varray name="rec_basis" >
    <v>       0.10000000       0.00000000       0.00000000 </v>
    <v>       0.00000000       0.10000000       0.00000000 </v>
    <v>       0.00000000       0.00000000       0.10000000 </v>
   </varray>
  </crystal>
  <varray name="positions" >
   <v>       0.50000000       0.50000000       0.50000000 </v>
  </varray>
 </structure>
 <calculation>
  <scstep>
   <time name="total">    0.84    0.85</time>
   <energy>
    <i name="alphaZ">      2.29252837 </i>
    <i name="ewald">   -247.18170407 </i>
    <i name="hartreedc">   -599.19914121 </i>
    <i name="XCdc">     20.20380743 </i>
    <i name="pawpsdc">    820.92276277 </i>
    <i name="pawaedc">   -804.41519229 </i>
    <i name="eentropy">     -0.00000000 </i>
    <i name="bandstr">    -13.34365734 </i>
    <i name="atom">   1047.19675569 </i>
    <i name="e_fr_energy">    226.47615936 </i>
    <i name="e_wo_entrp">    226.47615936 </i>
    <i name="e_0_energy">    226.47615936 </i>
   </energy>
  </scstep>
  <scstep>
   <time name="total">    0.39    0.39</time>
   <energy>
    <i name="e_fr_energy">     48.58648451 </i>
    <i name="e_wo_entrp">     48.58650602 </i>
    <i name="e_0_energy">     48.58649527 </i>
   </energy>
  </scstep>
  <scstep>
   <time name="total">    0.31    0.31</time>
   <energy>
    <i name="e_fr_energy">      6.07390306 </i>
    <i name="e_wo_entrp">      6.09914030 </i>
    <i name="e_0_energy">      6.08652168 </i>
   </energy>
  </scstep>
  <scstep>
   <time name="total">    0.39    0.39</time>
   <energy>
    <i name="e_fr_energy">     -0.20404059 </i>
    <i name="e_wo_entrp">     -0.17630945 </i>
    <i name="e_0_energy">     -0.19017502 </i>
   </energy>
  </scstep>
  <scstep>
   <time name="total">    0.62    0.62</time>
   <energy>
    <i name="e_fr_energy">     -1.79836242 </i>
    <i name="e_wo_entrp">     -1.78886168 </i>
    <i name="e_0_energy">     -1.79361205 </i>
   </energy>
  </scstep>
  <scstep>
   <time name="total">    0.93    0.94</time>
   <energy>
    <i name="e_fr_energy">     -1.26093284 </i>
    <i name="e_wo_entrp">     -1.25335368 </i>
    <i name="e_0_energy">     -1.25714326 </i>
   </energy>
  </scstep>
  <scstep>
   <time name="total">    0.92    0.92</time>
   <energy>
    <i name="e_fr_energy">     -2.81531667 </i>
    <i name="e_wo_entrp">     -2.79544989 </i>
    <i name="e_0_energy">     -2.80538328 </i>
   </energy>
  </scstep>
  <scstep>
   <time name="total">    0.91    0.91</time>
   <energy>
    <i name="e_fr_energy">     -3.01031787 </i>
    <i name="e_wo_entrp">     -2.97752525 </i>
    <i name="e_0_energy">     -2.99392156 </i>
   </energy>
  </scstep>
  <scstep>
   <time name="total">    0.89    0.89</time>
   <energy>
    <i name="e_fr_energy">     -3.21032094 </i>
    <i name="e_wo_entrp">     -3.18152078 </i>
    <i name="e_0_energy">     -3.19592086 </i>
   </energy>
  </scstep>
  <scstep>
   <time name="total">    0.91    0.91</time>
   <energy>
    <i name="e_fr_energy">     -3.40259935 </i>
    <i name="e_wo_entrp">     -3.38031633 </i>
    <i name="e_0_energy">     -3.39145784 </i>
   </energy>
  </scstep>
  <scstep>
   <time name="total">    0.90    0.90</time>
   <energy>
    <i name="e_fr_energy">     -3.50755500 </i>
    <i name="e_wo_entrp">     -3.49987222 </i>
    <i name="e_0_energy">     -3.50371361 </i>
   </energy>
  </scstep>
  <scstep>
   <time name="total">    0.90    0.90</time>
   <energy>
    <i name="e_fr_energy">     -3.59308379 </i>
    <i name="e_wo_entrp">     -3.59238165 </i>
    <i name="e_0_energy">     -3.59273272 </i>
   </energy>
  </scstep>
  <scstep>
   <time name="total">    0.91    0.91</time>
   <energy>
    <i name="e_fr_energy">     -3.64963327 </i>
    <i name="e_wo_entrp">     -3.64961827 </i>
    <i name="e_0_energy">     -3.64962577 </i>
   </energy>
  </scstep>
  <scstep>
   <time name="total">    0.91    0.91</time>
   <energy>
    <i name="e_fr_energy">     -3.67533441 </i>
    <i name="e_wo_entrp">     -3.67533430 </i>
    <i name="e_0_energy">     -3.67533436 </i>
   </energy>
  </scstep>
  <scstep>
   <time name="total">    0.91    0.91</time>
   <energy>
    <i name="e_fr_energy">     -3.68961771 </i>
    <i name="e_wo_entrp">     -3.68961771 </i>
    <i name="e_0_energy">     -3.68961771 </i>
   </energy>
  </scstep>
  <scstep>
   <time name="total">    0.90    0.90</time>
   <energy>
    <i name="e_fr_energy">     -3.69755028 </i>
    <i name="e_wo_entrp">     -3.69755028 </i>
    <i name="e_0_energy">     -3.69755028 </i>
   </energy>
  </scstep>
  <scstep>
   <time name="total">    0.89    0.89</time>
   <energy>
    <i name="e_fr_energy">     -3.70163495 </i>
    <i name="e_wo_entrp">     -3.70163495 </i>
    <i name="e_0_energy">     -3.70163495 </i>
   </energy>
  </scstep>
  <scstep>
   <time name="total">    0.90    0.90</time>
   <energy>
    <i name="e_fr_energy">     -3.70364292 </i>
    <i name="e_wo_entrp">     -3.70364292 </i>
    <i name="e_0_energy">     -3.70364292 </i>
   </energy>
  </scstep>
  <scstep>
   <time name="total">    0.91    0.91</time>
   <energy>
    <i name="e_fr_energy">     -3.70460056 </i>
    <i name="e_wo_entrp">     -3.70460056 </i>
    <i name="e_0_energy">     -3.70460056 </i>
   </energy>
  </scstep>
  <scstep>
   <time name="total">    0.90    0.90</time>
   <energy>
    <i name="e_fr_energy">     -3.70504963 </i>
    <i name="e_wo_entrp">     -3.70504963 </i>
    <i name="e_0_energy">     -3.70504963 </i>
   </energy>
  </scstep>
  <scstep>
   <time name="total">    0.89    0.89</time>
   <energy>
    <i name="e_fr_energy">     -3.70525236 </i>
    <i name="e_wo_entrp">     -3.70525236 </i>
    <i name="e_0_energy">     -3.70525236 </i>
   </energy>
  </scstep>
  <scstep>
   <time name="total">    0.89    0.89</time>
   <energy>
    <i name="e_fr_energy">     -3.70533959 </i>
    <i name="e_wo_entrp">     -3.70533959 </i>
    <i name="e_0_energy">     -3.70533959 </i>
   </energy>
  </scstep>
  <scstep>
   <time name="total">    0.97    0.97</time>
   <energy>
    <i name="alphaZ">      2.29252837 </i>
    <i name="ewald">   -247.18170407 </i>
    <i name="hartreedc">   -584.95507356 </i>
    <i name="XCdc">     20.39140513 </i>
    <i name="pawpsdc">    801.55188177 </i>
    <i name="pawaedc">   -787.44859920 </i>
    <i name="eentropy">     -0.00000000 </i>
    <i name="bandstr">   -255.55257036 </i>
    <i name="atom">   1047.19675569 </i>
    <i name="e_fr_energy">     -3.70537623 </i>
    <i name="e_wo_entrp">     -3.70537623 </i>
    <i name="e_0_energy">     -3.70537623 </i>
   </energy>
  </scstep>
  <structure>
   <crystal>
    <varray name="basis" >
     <v>      10.00000000       0.00000000       0.00000000 </v>
     <v>       0.00000000      10.00000000       0.00000000 </v>
     <v>       0.00000000       0.00000000      10.00000000 </v>
    </varray>
    <i name="volume">   1000.00000000 </i>
    <varray name="rec_basis" >
     <v>       0.10000000       0.00000000       0.00000000 </v>
     <v>       0.00000000       0.10000000       0.00000000 </v>
     <v>       0.00000000       0.00000000       0.10000000 </v>
    </varray>
   </crystal>
   <varray name="positions" >
    <v>       0.50000000       0.50000000       0.50000000 </v>
   </varray>
  </structure>
  <varray name="forces" >
   <v>       0.00000000       0.00000000       0.00000000 </v>
  </varray>
  <varray name="stress" >
   <v>      -0.04718140      -0.00000000       0.00000000 </v>
   <v>       0.00000000      -0.04718140      -0.00000000 </v>
   <v>       0.00000000       0.00000000      -0.04718140 </v>
  </varray>
  <energy>
   <i name="e_fr_energy">     -3.70537623 </i>
   <i name="e_wo_entrp">     -3.70537623 </i>
   <i name="e_0_energy">     -0.00000000 </i>
  </energy>
  <time name="totalsc">   25.59   31.45</time>
  <eigenvalues>
   <array>
    <dimension dim="1">band</dimension>
    <dimension dim="2">kpoint</dimension>
    <dimension dim="3">spin</dimension>
    <field>eigene</field>
    <field>occ</field>
    <set>
     <set comment="spin 1">
      <set comment="kpoint 1">
       <r>  -39.5270    1.0000 </r>
       <r>  -39.5270    1.0000 </r>
       <r>  -39.5266    1.0000 </r>
       <r>   -5.5639    1.0000 </r>
       <r>   -4.1217    1.0000 </r>
       <r>   -4.1211    1.0000 </r>
       <r>   -4.1210    1.0000 </r>
       <r>   -3.5011    0.0000 </r>
       <r>   -3.5009    0.0000 </r>
       <r>   -1.2746    0.0000 </r>
       <r>   -1.2743    0.0000 </r>
       <r>   -1.2735    0.0000 </r>
       <r>   -0.2340    0.0000 </r>
       <r>    0.9281    0.0000 </r>
       <r>    0.9281    0.0000 </r>
       <r>    1.6074    0.0000 </r>
       <r>    1.6150    0.0000 </r>
       <r>    1.6202    0.0000 </r>
       <r>    1.7422    0.0000 </r>
       <r>    2.0116    0.0000 </r>
       <r>    2.0129    0.0000 </r>
       <r>    2.0153    0.0000 </r>
       <r>    2.4003    0.0000 </r>
       <r>    2.4106    0.0000 </r>
       <r>    2.4120    0.0000 </r>
       <r>    2.5649    0.0000 </r>
       <r>    2.5840    0.0000 </r>
       <r>    3.5795    0.0000 </r>
       <r>    3.6457    0.0000 </r>
       <r>    3.6650    0.0000 </r>
       <r>    3.7284    0.0000 </r>
       <r>    3.7687    0.0000 </r>
       <r>    3.8168    0.0000 </r>
       <r>    3.8185    0.0000 </r>
       <r>    3.8272    0.0000 </r>
       <r>    4.3791    0.0000 </r>
      </set>
     </set>
     <set comment="spin 2">
      <set comment="kpoint 1">
       <r>  -38.1984    1.0000 </r>
       <r>  -38.1984    1.0000 </r>
       <r>  -38.1984    1.0000 </r>
       <r>   -4.4490    1.0000 </r>
       <r>   -2.6403    0.0000 </r>
       <r>   -2.6400    0.0000 </r>
       <r>   -2.0781    0.0000 </r>
       <r>   -2.0780    0.0000 </r>
       <r>   -2.0780    0.0000 </r>
       <r>   -0.7062    0.0000 </r>
       <r>   -0.7061    0.0000 </r>
       <r>   -0.7058    0.0000 </r>
       <r>   -0.1988    0.0000 </r>
       <r>    0.9054    0.0000 </r>
       <r>    0.9055    0.0000 </r>
       <r>    1.6519    0.0000 </r>
       <r>    1.6528    0.0000 </r>
       <r>    1.6536    0.0000 </r>
       <r>    1.7794    0.0000 </r>
       <r>    2.2223    0.0000 </r>
       <r>    2.2235    0.0000 </r>
       <r>    2.2242    0.0000 </r>
       <r>    2.3807    0.0000 </r>
       <r>    2.3871    0.0000 </r>
       <r>    2.3971    0.0000 </r>
       <r>    2.4993    0.0000 </r>
       <r>    2.5145    0.0000 </r>
       <r>    3.6551    0.0000 </r>
       <r>    3.6633    0.0000 </r>
       <r>    3.6840    0.0000 </r>
       <r>    3.7767    0.0000 </r>
       <r>    3.8075    0.0000 </r>
       <r>    3.8094    0.0000 </r>
       <r>    3.8222    0.0000 </r>
       <r>    3.8726    0.0000 </r>
       <r>    4.7941    0.0000 </r>
      </set>
     </set>
    </set>
   </array>
  </eigenvalues>
  <separator name="orbital magnetization" >
   <v name="MAGDIPOLOUT">      0.00000000      0.00000000      0.00000000</v>
  </separator>
  <dos>
   <i name="efermi">     -3.83744085 </i>
   <total>
    <array>
     <dimension dim="1">gridpoints</dimension>
     <dimension dim="2">spin</dimension>
     <field>energy</field>
     <field>total</field>
     <field>integrated</field>
     <set>
      <set comment="spin 1">
       <r>   -41.7431     0.0000     0.0000 </r>
       <r>   -41.5805     0.0000     0.0000 </r>
       <r>   -41.4180     0.0000     0.0000 </r>
       <r>   -41.2555     0.0000     0.0000 </r>
       <r>   -41.0930     0.0000     0.0000 </r>
       <r>   -40.9305     0.0000     0.0000 </r>
       <r>   -40.7680     0.0000     0.0000 </r>
       <r>   -40.6055     0.0000     0.0000 </r>
       <r>   -40.4430     0.0000     0.0000 </r>
       <r>   -40.2805     0.0000     0.0000 </r>
       <r>   -40.1179     0.0000     0.0000 </r>
       <r>   -39.9554     0.0000     0.0000 </r>
       <r>   -39.7929     0.0000     0.0000 </r>
       <r>   -39.6304     0.0314     0.0051 </r>
       <r>   -39.4679    17.5488     2.8570 </r>
       <r>   -39.3054     0.8801     3.0000 </r>
       <r>   -39.1429     0.0000     3.0000 </r>
       <r>   -38.9804     0.0000     3.0000 </r>
       <r>   -38.8179     0.0000     3.0000 </r>
       <r>   -38.6554     0.0000     3.0000 </r>
       <r>   -38.4928     0.0000     3.0000 </r>
       <r>   -38.3303     0.0000     3.0000 </r>
       <r>   -38.1678     0.0000     3.0000 </r>
       <r>   -38.0053     0.0000     3.0000 </r>
       <r>   -37.8428     0.0000     3.0000 </r>
       <r>   -37.6803     0.0000     3.0000 </r>
       <r>   -37.5178     0.0000     3.0000 </r>
       <r>   -37.3553     0.0000     3.0000 </r>
       <r>   -37.1928     0.0000     3.0000 </r>
       <r>   -37.0302     0.0000     3.0000 </r>
       <r>   -36.8677     0.0000     3.0000 </r>
       <r>   -36.7052     0.0000     3.0000 </r>
       <r>   -36.5427     0.0000     3.0000 </r>
       <r>   -36.3802     0.0000     3.0000 </r>
       <r>   -36.2177     0.0000     3.0000 </r>
       <r>   -36.0552     0.0000     3.0000 </r>
       <r>   -35.8927     0.0000     3.0000 </r>
       <r>   -35.7302     0.0000     3.0000 </r>
       <r>   -35.5676     0.0000     3.0000 </r>
       <r>   -35.4051     0.0000     3.0000 </r>
       <r>   -35.2426     0.0000     3.0000 </r>
       <r>   -35.0801     0.0000     3.0000 </r>
       <r>   -34.9176     0.0000     3.0000 </r>
       <r>   -34.7551     0.0000     3.0000 </r>
       <r>   -34.5926     0.0000     3.0000 </r>
       <r>   -34.4301     0.0000     3.0000 </r>
       <r>   -34.2676     0.0000     3.0000 </r>
       <r>   -34.1051     0.0000     3.0000 </r>
       <r>   -33.9425     0.0000     3.0000 </r>
       <r>   -33.7800     0.0000     3.0000 </r>
       <r>   -33.6175     0.0000     3.0000 </r>
       <r>   -33.4550     0.0000     3.0000 </r>
       <r>   -33.2925     0.0000     3.0000 </r>
       <r>   -33.1300     0.0000     3.0000 </r>
       <r>   -32.9675     0.0000     3.0000 </r>
       <r>   -32.8050     0.0000     3.0000 </r>
       <r>   -32.6425     0.0000     3.0000 </r>
       <r>   -32.4799     0.0000     3.0000 </r>
       <r>   -32.3174     0.0000     3.0000 </r>
       <r>   -32.1549     0.0000     3.0000 </r>
       <r>   -31.9924     0.0000     3.0000 </r>
       <r>   -31.8299     0.0000     3.0000 </r>
       <r>   -31.6674     0.0000     3.0000 </r>
       <r>   -31.5049     0.0000     3.0000 </r>
       <r>   -31.3424     0.0000     3.0000 </r>
       <r>   -31.1799     0.0000     3.0000 </r>
       <r>   -31.0173     0.0000     3.0000 </r>
       <r>   -30.8548     0.0000     3.0000 </r>
       <r>   -30.6923     0.0000     3.0000 </r>
       <r>   -30.5298     0.0000     3.0000 </r>
       <r>   -30.3673     0.0000     3.0000 </r>
       <r>   -30.2048     0.0000     3.0000 </r>
       <r>   -30.0423     0.0000     3.0000 </r>
       <r>   -29.8798     0.0000     3.0000 </r>
       <r>   -29.7173     0.0000     3.0000 </r>
       <r>   -29.5548     0.0000     3.0000 </r>
       <r>   -29.3922     0.0000     3.0000 </r>
       <r>   -29.2297     0.0000     3.0000 </r>
       <r>   -29.0672     0.0000     3.0000 </r>
       <r>   -28.9047     0.0000     3.0000 </r>
       <r>   -28.7422     0.0000     3.0000 </r>
       <r>   -28.5797     0.0000     3.0000 </r>
       <r>   -28.4172     0.0000     3.0000 </r>
       <r>   -28.2547     0.0000     3.0000 </r>
       <r>   -28.0922     0.0000     3.0000 </r>
       <r>   -27.9296     0.0000     3.0000 </r>
       <r>   -27.7671     0.0000     3.0000 </r>
       <r>   -27.6046     0.0000     3.0000 </r>
       <r>   -27.4421     0.0000     3.0000 </r>
       <r>   -27.2796     0.0000     3.0000 </r>
       <r>   -27.1171     0.0000     3.0000 </r>
       <r>   -26.9546     0.0000     3.0000 </r>
       <r>   -26.7921     0.0000     3.0000 </r>
       <r>   -26.6296     0.0000     3.0000 </r>
       <r>   -26.4671     0.0000     3.0000 </r>
       <r>   -26.3045     0.0000     3.0000 </r>
       <r>   -26.1420     0.0000     3.0000 </r>
       <r>   -25.9795     0.0000     3.0000 </r>
       <r>   -25.8170     0.0000     3.0000 </r>
       <r>   -25.6545     0.0000     3.0000 </r>
       <r>   -25.4920     0.0000     3.0000 </r>
       <r>   -25.3295     0.0000     3.0000 </r>
       <r>   -25.1670     0.0000     3.0000 </r>
       <r>   -25.0045     0.0000     3.0000 </r>
       <r>   -24.8419     0.0000     3.0000 </r>
       <r>   -24.6794     0.0000     3.0000 </r>
       <r>   -24.5169     0.0000     3.0000 </r>
       <r>   -24.3544     0.0000     3.0000 </r>
       <r>   -24.1919     0.0000     3.0000 </r>
       <r>   -24.0294     0.0000     3.0000 </r>
       <r>   -23.8669     0.0000     3.0000 </r>
       <r>   -23.7044     0.0000     3.0000 </r>
       <r>   -23.5419     0.0000     3.0000 </r>
       <r>   -23.3793     0.0000     3.0000 </r>
       <r>   -23.2168     0.0000     3.0000 </r>
       <r>   -23.0543     0.0000     3.0000 </r>
       <r>   -22.8918     0.0000     3.0000 </r>
       <r>   -22.7293     0.0000     3.0000 </r>
       <r>   -22.5668     0.0000     3.0000 </r>
       <r>   -22.4043     0.0000     3.0000 </r>
       <r>   -22.2418     0.0000     3.0000 </r>
       <r>   -22.0793     0.0000     3.0000 </r>
       <r>   -21.9168     0.0000     3.0000 </r>
       <r>   -21.7542     0.0000     3.0000 </r>
       <r>   -21.5917     0.0000     3.0000 </r>
       <r>   -21.4292     0.0000     3.0000 </r>
       <r>   -21.2667     0.0000     3.0000 </r>
       <r>   -21.1042     0.0000     3.0000 </r>
       <r>   -20.9417     0.0000     3.0000 </r>
       <r>   -20.7792     0.0000     3.0000 </r>
       <r>   -20.6167     0.0000     3.0000 </r>
       <r>   -20.4542     0.0000     3.0000 </r>
       <r>   -20.2916     0.0000     3.0000 </r>
       <r>   -20.1291     0.0000     3.0000 </r>
       <r>   -19.9666     0.0000     3.0000 </r>
       <r>   -19.8041     0.0000     3.0000 </r>
       <r>   -19.6416     0.0000     3.0000 </r>
       <r>   -19.4791     0.0000     3.0000 </r>
       <r>   -19.3166     0.0000     3.0000 </r>
       <r>   -19.1541     0.0000     3.0000 </r>
       <r>   -18.9916     0.0000     3.0000 </r>
       <r>   -18.8290     0.0000     3.0000 </r>
       <r>   -18.6665     0.0000     3.0000 </r>
       <r>   -18.5040     0.0000     3.0000 </r>
       <r>   -18.3415     0.0000     3.0000 </r>
       <r>   -18.1790     0.0000     3.0000 </r>
       <r>   -18.0165     0.0000     3.0000 </r>
       <r>   -17.8540     0.0000     3.0000 </r>
       <r>   -17.6915     0.0000     3.0000 </r>
       <r>   -17.5290     0.0000     3.0000 </r>
       <r>   -17.3665     0.0000     3.0000 </r>
       <r>   -17.2039     0.0000     3.0000 </r>
       <r>   -17.0414     0.0000     3.0000 </r>
       <r>   -16.8789     0.0000     3.0000 </r>
       <r>   -16.7164     0.0000     3.0000 </r>
       <r>   -16.5539     0.0000     3.0000 </r>
       <r>   -16.3914     0.0000     3.0000 </r>
       <r>   -16.2289     0.0000     3.0000 </r>
       <r>   -16.0664     0.0000     3.0000 </r>
       <r>   -15.9039     0.0000     3.0000 </r>
       <r>   -15.7413     0.0000     3.0000 </r>
       <r>   -15.5788     0.0000     3.0000 </r>
       <r>   -15.4163     0.0000     3.0000 </r>
       <r>   -15.2538     0.0000     3.0000 </r>
       <r>   -15.0913     0.0000     3.0000 </r>
       <r>   -14.9288     0.0000     3.0000 </r>
       <r>   -14.7663     0.0000     3.0000 </r>
       <r>   -14.6038     0.0000     3.0000 </r>
       <r>   -14.4413     0.0000     3.0000 </r>
       <r>   -14.2788     0.0000     3.0000 </r>
       <r>   -14.1162     0.0000     3.0000 </r>
       <r>   -13.9537     0.0000     3.0000 </r>
       <r>   -13.7912     0.0000     3.0000 </r>
       <r>   -13.6287     0.0000     3.0000 </r>
       <r>   -13.4662     0.0000     3.0000 </r>
       <r>   -13.3037     0.0000     3.0000 </r>
       <r>   -13.1412     0.0000     3.0000 </r>
       <r>   -12.9787     0.0000     3.0000 </r>
       <r>   -12.8162     0.0000     3.0000 </r>
       <r>   -12.6536     0.0000     3.0000 </r>
       <r>   -12.4911     0.0000     3.0000 </r>
       <r>   -12.3286     0.0000     3.0000 </r>
       <r>   -12.1661     0.0000     3.0000 </r>
       <r>   -12.0036     0.0000     3.0000 </r>
       <r>   -11.8411     0.0000     3.0000 </r>
       <r>   -11.6786     0.0000     3.0000 </r>
       <r>   -11.5161     0.0000     3.0000 </r>
       <r>   -11.3536     0.0000     3.0000 </r>
       <r>   -11.1910     0.0000     3.0000 </r>
       <r>   -11.0285     0.0000     3.0000 </r>
       <r>   -10.8660     0.0000     3.0000 </r>
       <r>   -10.7035     0.0000     3.0000 </r>
       <r>   -10.5410     0.0000     3.0000 </r>
       <r>   -10.3785     0.0000     3.0000 </r>
       <r>   -10.2160     0.0000     3.0000 </r>
       <r>   -10.0535     0.0000     3.0000 </r>
       <r>    -9.8910     0.0000     3.0000 </r>
       <r>    -9.7285     0.0000     3.0000 </r>
       <r>    -9.5659     0.0000     3.0000 </r>
       <r>    -9.4034     0.0000     3.0000 </r>
       <r>    -9.2409     0.0000     3.0000 </r>
       <r>    -9.0784     0.0000     3.0000 </r>
       <r>    -8.9159     0.0000     3.0000 </r>
       <r>    -8.7534     0.0000     3.0000 </r>
       <r>    -8.5909     0.0000     3.0000 </r>
       <r>    -8.4284     0.0000     3.0000 </r>
       <r>    -8.2659     0.0000     3.0000 </r>
       <r>    -8.1033     0.0000     3.0000 </r>
       <r>    -7.9408     0.0000     3.0000 </r>
       <r>    -7.7783     0.0000     3.0000 </r>
       <r>    -7.6158     0.0000     3.0000 </r>
       <r>    -7.4533     0.0000     3.0000 </r>
       <r>    -7.2908     0.0000     3.0000 </r>
       <r>    -7.1283     0.0000     3.0000 </r>
       <r>    -6.9658     0.0000     3.0000 </r>
       <r>    -6.8033     0.0000     3.0000 </r>
       <r>    -6.6407     0.0000     3.0000 </r>
       <r>    -6.4782     0.0000     3.0000 </r>
       <r>    -6.3157     0.0000     3.0000 </r>
       <r>    -6.1532     0.0000     3.0000 </r>
       <r>    -5.9907     0.0000     3.0000 </r>
       <r>    -5.8282     0.0000     3.0000 </r>
       <r>    -5.6657     0.0122     3.0020 </r>
       <r>    -5.5032     5.8764     3.9570 </r>
       <r>    -5.3407     0.2648     4.0000 </r>
       <r>    -5.1782     0.0000     4.0000 </r>
       <r>    -5.0156     0.0000     4.0000 </r>
       <r>    -4.8531     0.0000     4.0000 </r>
       <r>    -4.6906     0.0000     4.0000 </r>
       <r>    -4.5281     0.0000     4.0000 </r>
       <r>    -4.3656     0.0000     4.0000 </r>
       <r>    -4.2031     0.1906     4.0310 </r>
       <r>    -4.0406    18.0622     6.9663 </r>
       <r>    -3.8781     0.2075     7.0000 </r>
       <r>    -3.7156     0.0000     7.0000 </r>
       <r>    -3.5530     0.8656     7.1407 </r>
       <r>    -3.3905    11.4303     8.9982 </r>
       <r>    -3.2280     0.0110     9.0000 </r>
       <r>    -3.0655     0.0000     9.0000 </r>
       <r>    -2.9030     0.0000     9.0000 </r>
       <r>    -2.7405     0.0000     9.0000 </r>
       <r>    -2.5780     0.0000     9.0000 </r>
       <r>    -2.4155     0.0000     9.0000 </r>
       <r>    -2.2530     0.0000     9.0000 </r>
       <r>    -2.0905     0.0000     9.0000 </r>
       <r>    -1.9279     0.0000     9.0000 </r>
       <r>    -1.7654     0.0000     9.0000 </r>
       <r>    -1.6029     0.0000     9.0000 </r>
       <r>    -1.4404     0.0000     9.0000 </r>
       <r>    -1.2779     8.4440    10.3722 </r>
       <r>    -1.1154    10.0163    12.0000 </r>
       <r>    -0.9529     0.0001    12.0000 </r>
       <r>    -0.7904     0.0000    12.0000 </r>
       <r>    -0.6279     0.0000    12.0000 </r>
       <r>    -0.4653     0.0000    12.0000 </r>
       <r>    -0.3028     0.1584    12.0257 </r>
       <r>    -0.1403     5.9702    12.9960 </r>
       <r>     0.0222     0.0248    13.0000 </r>
       <r>     0.1847     0.0000    13.0000 </r>
       <r>     0.3472     0.0000    13.0000 </r>
       <r>     0.5097     0.0000    13.0000 </r>
       <r>     0.6722     0.0000    13.0000 </r>
       <r>     0.8347     0.0510    13.0083 </r>
       <r>     0.9973    11.9458    14.9496 </r>
       <r>     1.1598     0.3100    15.0000 </r>
       <r>     1.3223     0.0000    15.0000 </r>
       <r>     1.4848     0.0027    15.0004 </r>
       <r>     1.6473    15.2046    17.4713 </r>
       <r>     1.8098     9.2350    18.9721 </r>
       <r>     1.9723     2.4525    19.3707 </r>
       <r>     2.1348    16.1738    21.9991 </r>
       <r>     2.2973     0.0243    22.0031 </r>
       <r>     2.4598    17.1234    24.7858 </r>
       <r>     2.6224    12.4505    26.8091 </r>
       <r>     2.7849     1.1745    27.0000 </r>
       <r>     2.9474     0.0000    27.0000 </r>
       <r>     3.1099     0.0000    27.0000 </r>
       <r>     3.2724     0.0000    27.0000 </r>
       <r>     3.4349     0.0001    27.0000 </r>
       <r>     3.5974     4.9753    27.8086 </r>
       <r>     3.7599    21.7474    31.3427 </r>
       <r>     3.9224    22.4642    34.9934 </r>
       <r>     4.0850     0.0405    35.0000 </r>
       <r>     4.2475     0.0006    35.0001 </r>
       <r>     4.4100     4.9777    35.8090 </r>
       <r>     4.5725     1.1751    36.0000 </r>
       <r>     4.7350     0.0000    36.0000 </r>
       <r>     4.8975     0.0000    36.0000 </r>
       <r>     5.0600     0.0000    36.0000 </r>
       <r>     5.2225     0.0000    36.0000 </r>
       <r>     5.3850     0.0000    36.0000 </r>
       <r>     5.5475     0.0000    36.0000 </r>
       <r>     5.7101     0.0000    36.0000 </r>
       <r>     5.8726     0.0000    36.0000 </r>
       <r>     6.0351     0.0000    36.0000 </r>
       <r>     6.1976     0.0000    36.0000 </r>
       <r>     6.3601     0.0000    36.0000 </r>
       <r>     6.5226     0.0000    36.0000 </r>
       <r>     6.6851     0.0000    36.0000 </r>
       <r>     6.8476     0.0000    36.0000 </r>
       <r>     7.0101     0.0000    36.0000 </r>
      </set>
      <set comment="spin 2">
       <r>   -41.7431     0.0000     0.0000 </r>
       <r>   -41.5805     0.0000     0.0000 </r>
       <r>   -41.4180     0.0000     0.0000 </r>
       <r>   -41.2555     0.0000     0.0000 </r>
       <r>   -41.0930     0.0000     0.0000 </r>
       <r>   -40.9305     0.0000     0.0000 </r>
       <r>   -40.7680     0.0000     0.0000 </r>
       <r>   -40.6055     0.0000     0.0000 </r>
       <r>   -40.4430     0.0000     0.0000 </r>
       <r>   -40.2805     0.0000     0.0000 </r>
       <r>   -40.1179     0.0000     0.0000 </r>
       <r>   -39.9554     0.0000     0.0000 </r>
       <r>   -39.7929     0.0000     0.0000 </r>
       <r>   -39.6304     0.0000     0.0000 </r>
       <r>   -39.4679     0.0000     0.0000 </r>
       <r>   -39.3054     0.0000     0.0000 </r>
       <r>   -39.1429     0.0000     0.0000 </r>
       <r>   -38.9804     0.0000     0.0000 </r>
       <r>   -38.8179     0.0000     0.0000 </r>
       <r>   -38.6554     0.0000     0.0000 </r>
       <r>   -38.4928     0.0000     0.0000 </r>
       <r>   -38.3303     0.0018     0.0003 </r>
       <r>   -38.1678    14.8913     2.4203 </r>
       <r>   -38.0053     3.5673     3.0000 </r>
       <r>   -37.8428     0.0000     3.0000 </r>
       <r>   -37.6803     0.0000     3.0000 </r>
       <r>   -37.5178     0.0000     3.0000 </r>
       <r>   -37.3553     0.0000     3.0000 </r>
       <r>   -37.1928     0.0000     3.0000 </r>
       <r>   -37.0302     0.0000     3.0000 </r>
       <r>   -36.8677     0.0000     3.0000 </r>
       <r>   -36.7052     0.0000     3.0000 </r>
       <r>   -36.5427     0.0000     3.0000 </r>
       <r>   -36.3802     0.0000     3.0000 </r>
       <r>   -36.2177     0.0000     3.0000 </r>
       <r>   -36.0552     0.0000     3.0000 </r>
       <r>   -35.8927     0.0000     3.0000 </r>
       <r>   -35.7302     0.0000     3.0000 </r>
       <r>   -35.5676     0.0000     3.0000 </r>
       <r>   -35.4051     0.0000     3.0000 </r>
       <r>   -35.2426     0.0000     3.0000 </r>
       <r>   -35.0801     0.0000     3.0000 </r>
       <r>   -34.9176     0.0000     3.0000 </r>
       <r>   -34.7551     0.0000     3.0000 </r>
       <r>   -34.5926     0.0000     3.0000 </r>
       <r>   -34.4301     0.0000     3.0000 </r>
       <r>   -34.2676     0.0000     3.0000 </r>
       <r>   -34.1051     0.0000     3.0000 </r>
       <r>   -33.9425     0.0000     3.0000 </r>
       <r>   -33.7800     0.0000     3.0000 </r>
       <r>   -33.6175     0.0000     3.0000 </r>
       <r>   -33.4550     0.0000     3.0000 </r>
       <r>   -33.2925     0.0000     3.0000 </r>
       <r>   -33.1300     0.0000     3.0000 </r>
       <r>   -32.9675     0.0000     3.0000 </r>
       <r>   -32.8050     0.0000     3.0000 </r>
       <r>   -32.6425     0.0000     3.0000 </r>
       <r>   -32.4799     0.0000     3.0000 </r>
       <r>   -32.3174     0.0000     3.0000 </r>
       <r>   -32.1549     0.0000     3.0000 </r>
       <r>   -31.9924     0.0000     3.0000 </r>
       <r>   -31.8299     0.0000     3.0000 </r>
       <r>   -31.6674     0.0000     3.0000 </r>
       <r>   -31.5049     0.0000     3.0000 </r>
       <r>   -31.3424     0.0000     3.0000 </r>
       <r>   -31.1799     0.0000     3.0000 </r>
       <r>   -31.0173     0.0000     3.0000 </r>
       <r>   -30.8548     0.0000     3.0000 </r>
       <r>   -30.6923     0.0000     3.0000 </r>
       <r>   -30.5298     0.0000     3.0000 </r>
       <r>   -30.3673     0.0000     3.0000 </r>
       <r>   -30.2048     0.0000     3.0000 </r>
       <r>   -30.0423     0.0000     3.0000 </r>
       <r>   -29.8798     0.0000     3.0000 </r>
       <r>   -29.7173     0.0000     3.0000 </r>
       <r>   -29.5548     0.0000     3.0000 </r>
       <r>   -29.3922     0.0000     3.0000 </r>
       <r>   -29.2297     0.0000     3.0000 </r>
       <r>   -29.0672     0.0000     3.0000 </r>
       <r>   -28.9047     0.0000     3.0000 </r>
       <r>   -28.7422     0.0000     3.0000 </r>
       <r>   -28.5797     0.0000     3.0000 </r>
       <r>   -28.4172     0.0000     3.0000 </r>
       <r>   -28.2547     0.0000     3.0000 </r>
       <r>   -28.0922     0.0000     3.0000 </r>
       <r>   -27.9296     0.0000     3.0000 </r>
       <r>   -27.7671     0.0000     3.0000 </r>
       <r>   -27.6046     0.0000     3.0000 </r>
       <r>   -27.4421     0.0000     3.0000 </r>
       <r>   -27.2796     0.0000     3.0000 </r>
       <r>   -27.1171     0.0000     3.0000 </r>
       <r>   -26.9546     0.0000     3.0000 </r>
       <r>   -26.7921     0.0000     3.0000 </r>
       <r>   -26.6296     0.0000     3.0000 </r>
       <r>   -26.4671     0.0000     3.0000 </r>
       <r>   -26.3045     0.0000     3.0000 </r>
       <r>   -26.1420     0.0000     3.0000 </r>
       <r>   -25.9795     0.0000     3.0000 </r>
       <r>   -25.8170     0.0000     3.0000 </r>
       <r>   -25.6545     0.0000     3.0000 </r>
       <r>   -25.4920     0.0000     3.0000 </r>
       <r>   -25.3295     0.0000     3.0000 </r>
       <r>   -25.1670     0.0000     3.0000 </r>
       <r>   -25.0045     0.0000     3.0000 </r>
       <r>   -24.8419     0.0000     3.0000 </r>
       <r>   -24.6794     0.0000     3.0000 </r>
       <r>   -24.5169     0.0000     3.0000 </r>
       <r>   -24.3544     0.0000     3.0000 </r>
       <r>   -24.1919     0.0000     3.0000 </r>
       <r>   -24.0294     0.0000     3.0000 </r>
       <r>   -23.8669     0.0000     3.0000 </r>
       <r>   -23.7044     0.0000     3.0000 </r>
       <r>   -23.5419     0.0000     3.0000 </r>
       <r>   -23.3793     0.0000     3.0000 </r>
       <r>   -23.2168     0.0000     3.0000 </r>
       <r>   -23.0543     0.0000     3.0000 </r>
       <r>   -22.8918     0.0000     3.0000 </r>
       <r>   -22.7293     0.0000     3.0000 </r>
       <r>   -22.5668     0.0000     3.0000 </r>
       <r>   -22.4043     0.0000     3.0000 </r>
       <r>   -22.2418     0.0000     3.0000 </r>
       <r>   -22.0793     0.0000     3.0000 </r>
       <r>   -21.9168     0.0000     3.0000 </r>
       <r>   -21.7542     0.0000     3.0000 </r>
       <r>   -21.5917     0.0000     3.0000 </r>
       <r>   -21.4292     0.0000     3.0000 </r>
       <r>   -21.2667     0.0000     3.0000 </r>
       <r>   -21.1042     0.0000     3.0000 </r>
       <r>   -20.9417     0.0000     3.0000 </r>
       <r>   -20.7792     0.0000     3.0000 </r>
       <r>   -20.6167     0.0000     3.0000 </r>
       <r>   -20.4542     0.0000     3.0000 </r>
       <r>   -20.2916     0.0000     3.0000 </r>
       <r>   -20.1291     0.0000     3.0000 </r>
       <r>   -19.9666     0.0000     3.0000 </r>
       <r>   -19.8041     0.0000     3.0000 </r>
       <r>   -19.6416     0.0000     3.0000 </r>
       <r>   -19.4791     0.0000     3.0000 </r>
       <r>   -19.3166     0.0000     3.0000 </r>
       <r>   -19.1541     0.0000     3.0000 </r>
       <r>   -18.9916     0.0000     3.0000 </r>
       <r>   -18.8290     0.0000     3.0000 </r>
       <r>   -18.6665     0.0000     3.0000 </r>
       <r>   -18.5040     0.0000     3.0000 </r>
       <r>   -18.3415     0.0000     3.0000 </r>
       <r>   -18.1790     0.0000     3.0000 </r>
       <r>   -18.0165     0.0000     3.0000 </r>
       <r>   -17.8540     0.0000     3.0000 </r>
       <r>   -17.6915     0.0000     3.0000 </r>
       <r>   -17.5290     0.0000     3.0000 </r>
       <r>   -17.3665     0.0000     3.0000 </r>
       <r>   -17.2039     0.0000     3.0000 </r>
       <r>   -17.0414     0.0000     3.0000 </r>
       <r>   -16.8789     0.0000     3.0000 </r>
       <r>   -16.7164     0.0000     3.0000 </r>
       <r>   -16.5539     0.0000     3.0000 </r>
       <r>   -16.3914     0.0000     3.0000 </r>
       <r>   -16.2289     0.0000     3.0000 </r>
       <r>   -16.0664     0.0000     3.0000 </r>
       <r>   -15.9039     0.0000     3.0000 </r>
       <r>   -15.7413     0.0000     3.0000 </r>
       <r>   -15.5788     0.0000     3.0000 </r>
       <r>   -15.4163     0.0000     3.0000 </r>
       <r>   -15.2538     0.0000     3.0000 </r>
       <r>   -15.0913     0.0000     3.0000 </r>
       <r>   -14.9288     0.0000     3.0000 </r>
       <r>   -14.7663     0.0000     3.0000 </r>
       <r>   -14.6038     0.0000     3.0000 </r>
       <r>   -14.4413     0.0000     3.0000 </r>
       <r>   -14.2788     0.0000     3.0000 </r>
       <r>   -14.1162     0.0000     3.0000 </r>
       <r>   -13.9537     0.0000     3.0000 </r>
       <r>   -13.7912     0.0000     3.0000 </r>
       <r>   -13.6287     0.0000     3.0000 </r>
       <r>   -13.4662     0.0000     3.0000 </r>
       <r>   -13.3037     0.0000     3.0000 </r>
       <r>   -13.1412     0.0000     3.0000 </r>
       <r>   -12.9787     0.0000     3.0000 </r>
       <r>   -12.8162     0.0000     3.0000 </r>
       <r>   -12.6536     0.0000     3.0000 </r>
       <r>   -12.4911     0.0000     3.0000 </r>
       <r>   -12.3286     0.0000     3.0000 </r>
       <r>   -12.1661     0.0000     3.0000 </r>
       <r>   -12.0036     0.0000     3.0000 </r>
       <r>   -11.8411     0.0000     3.0000 </r>
       <r>   -11.6786     0.0000     3.0000 </r>
       <r>   -11.5161     0.0000     3.0000 </r>
       <r>   -11.3536     0.0000     3.0000 </r>
       <r>   -11.1910     0.0000     3.0000 </r>
       <r>   -11.0285     0.0000     3.0000 </r>
       <r>   -10.8660     0.0000     3.0000 </r>
       <r>   -10.7035     0.0000     3.0000 </r>
       <r>   -10.5410     0.0000     3.0000 </r>
       <r>   -10.3785     0.0000     3.0000 </r>
       <r>   -10.2160     0.0000     3.0000 </r>
       <r>   -10.0535     0.0000     3.0000 </r>
       <r>    -9.8910     0.0000     3.0000 </r>
       <r>    -9.7285     0.0000     3.0000 </r>
       <r>    -9.5659     0.0000     3.0000 </r>
       <r>    -9.4034     0.0000     3.0000 </r>
       <r>    -9.2409     0.0000     3.0000 </r>
       <r>    -9.0784     0.0000     3.0000 </r>
       <r>    -8.9159     0.0000     3.0000 </r>
       <r>    -8.7534     0.0000     3.0000 </r>
       <r>    -8.5909     0.0000     3.0000 </r>
       <r>    -8.4284     0.0000     3.0000 </r>
       <r>    -8.2659     0.0000     3.0000 </r>
       <r>    -8.1033     0.0000     3.0000 </r>
       <r>    -7.9408     0.0000     3.0000 </r>
       <r>    -7.7783     0.0000     3.0000 </r>
       <r>    -7.6158     0.0000     3.0000 </r>
       <r>    -7.4533     0.0000     3.0000 </r>
       <r>    -7.2908     0.0000     3.0000 </r>
       <r>    -7.1283     0.0000     3.0000 </r>
       <r>    -6.9658     0.0000     3.0000 </r>
       <r>    -6.8033     0.0000     3.0000 </r>
       <r>    -6.6407     0.0000     3.0000 </r>
       <r>    -6.4782     0.0000     3.0000 </r>
       <r>    -6.3157     0.0000     3.0000 </r>
       <r>    -6.1532     0.0000     3.0000 </r>
       <r>    -5.9907     0.0000     3.0000 </r>
       <r>    -5.8282     0.0000     3.0000 </r>
       <r>    -5.6657     0.0000     3.0000 </r>
       <r>    -5.5032     0.0000     3.0000 </r>
       <r>    -5.3407     0.0000     3.0000 </r>
       <r>    -5.1782     0.0000     3.0000 </r>
       <r>    -5.0156     0.0000     3.0000 </r>
       <r>    -4.8531     0.0000     3.0000 </r>
       <r>    -4.6906     0.0000     3.0000 </r>
       <r>    -4.5281     0.0777     3.0126 </r>
       <r>    -4.3656     6.0194     3.9908 </r>
       <r>    -4.2031     0.0564     4.0000 </r>
       <r>    -4.0406     0.0000     4.0000 </r>
       <r>    -3.8781     0.0000     4.0000 </r>
       <r>    -3.7156     0.0000     4.0000 </r>
       <r>    -3.5530     0.0000     4.0000 </r>
       <r>    -3.3905     0.0000     4.0000 </r>
       <r>    -3.2280     0.0000     4.0000 </r>
       <r>    -3.0655     0.0000     4.0000 </r>
       <r>    -2.9030     0.0000     4.0000 </r>
       <r>    -2.7405     0.0279     4.0045 </r>
       <r>    -2.5780    11.7941     5.9212 </r>
       <r>    -2.4155     0.4849     6.0000 </r>
       <r>    -2.2530     0.0000     6.0000 </r>
       <r>    -2.0905     6.6954     7.0881 </r>
       <r>    -1.9279    11.7647     9.0000 </r>
       <r>    -1.7654     0.0002     9.0000 </r>
       <r>    -1.6029     0.0000     9.0000 </r>
       <r>    -1.4404     0.0000     9.0000 </r>
       <r>    -1.2779     0.0000     9.0000 </r>
       <r>    -1.1154     0.0000     9.0000 </r>
       <r>    -0.9529     0.0000     9.0000 </r>
       <r>    -0.7904     0.1571     9.0255 </r>
       <r>    -0.6279    18.0532    11.9594 </r>
       <r>    -0.4653     0.2500    12.0000 </r>
       <r>    -0.3028     0.0100    12.0016 </r>
       <r>    -0.1403     5.8420    12.9510 </r>
       <r>     0.0222     0.3014    13.0000 </r>
       <r>     0.1847     0.0000    13.0000 </r>
       <r>     0.3472     0.0000    13.0000 </r>
       <r>     0.5097     0.0000    13.0000 </r>
       <r>     0.6722     0.0000    13.0000 </r>
       <r>     0.8347     0.2797    13.0454 </r>
       <r>     0.9973    11.9692    14.9906 </r>
       <r>     1.1598     0.0580    15.0000 </r>
       <r>     1.3223     0.0000    15.0000 </r>
       <r>     1.4848     0.0000    15.0000 </r>
       <r>     1.6473     8.0999    16.3163 </r>
       <r>     1.8098    15.3162    18.8054 </r>
       <r>     1.9723     1.1977    19.0000 </r>
       <r>     2.1348     0.1136    19.0185 </r>
       <r>     2.2973    18.1160    21.9625 </r>
       <r>     2.4598    19.4488    25.1231 </r>
       <r>     2.6224    11.5405    26.9986 </r>
       <r>     2.7849     0.0086    27.0000 </r>
       <r>     2.9474     0.0000    27.0000 </r>
       <r>     3.1099     0.0000    27.0000 </r>
       <r>     3.2724     0.0000    27.0000 </r>
       <r>     3.4349     0.0000    27.0000 </r>
       <r>     3.5974     0.5535    27.0899 </r>
       <r>     3.7599    21.0247    30.5067 </r>
       <r>     3.9224    27.1394    34.9171 </r>
       <r>     4.0850     0.5099    35.0000 </r>
       <r>     4.2475     0.0000    35.0000 </r>
       <r>     4.4100     0.0000    35.0000 </r>
       <r>     4.5725     0.0000    35.0000 </r>
       <r>     4.7350     0.2912    35.0473 </r>
       <r>     4.8975     5.8517    35.9983 </r>
       <r>     5.0600     0.0106    36.0000 </r>
       <r>     5.2225     0.0000    36.0000 </r>
       <r>     5.3850     0.0000    36.0000 </r>
       <r>     5.5475     0.0000    36.0000 </r>
       <r>     5.7101     0.0000    36.0000 </r>
       <r>     5.8726     0.0000    36.0000 </r>
       <r>     6.0351     0.0000    36.0000 </r>
       <r>     6.1976     0.0000    36.0000 </r>
       <r>     6.3601     0.0000    36.0000 </r>
       <r>     6.5226     0.0000    36.0000 </r>
       <r>     6.6851     0.0000    36.0000 </r>
       <r>     6.8476     0.0000    36.0000 </r>
       <r>     7.0101     0.0000    36.0000 </r>
      </set>
     </set>
    </array>
   </total>
   <partial>
    <array>
     <dimension dim="1">gridpoints</dimension>
     <dimension dim="2">spin</dimension>
     <dimension dim="3">ion</dimension>
     <field>energy</field>
     <field>    s</field>
     <field>   py</field>
     <field>   pz</field>
     <field>   px</field>
     <field>  dxy</field>
     <field>  dyz</field>
     <field>  dz2</field>
     <field>  dxz</field>
     <field>x2-y2</field>
     <set>
      <set comment="ion 1">
       <set comment="spin 1">
        <r>   -41.7431     0.0000     0.0000     0.0000     0.0000     0.0000     0.0000     0.0000     0.0000     0.0000 </r>
        <r>   -41.5805     0.0000     0.0000     0.0000     0.0000     0.0000     0.0000     0.0000     0.0000     0.0000 </r>
        <r>   -41.4180     0.0000     0.0000     0.0000     0.0000     0.0000     0.0000     0.0000     0.0000     0.0000 </r>
        <r>   -41.2555     0.0000     0.0000     0.0000     0.0000     0.0000     0.0000     0.0000     0.0000     0.0000 </r>
        <r>   -41.0930     0.0000     0.0000     0.0000     0.0000     0.0000     0.0000     0.0000     0.0000     0.0000 </r>
        <r>   -40.9305     0.0000     0.0000     0.0000     0.0000     0.0000     0.0000     0.0000     0.0000     0.0000 </r>
        <r>   -40.7680     0.0000     0.0000     0.0000     0.0000     0.0000     0.0000     0.0000     0.0000     0.0000 </r>
        <r>   -40.6055     0.0000     0.0000     0.0000     0.0000     0.0000     0.0000     0.0000     0.0000     0.0000 </r>
        <r>   -40.4430     0.0000     0.0000     0.0000     0.0000     0.0000     0.0000     0.0000     0.0000     0.0000 </r>
        <r>   -40.2805     0.0000     0.0000     0.0000     0.0000     0.0000     0.0000     0.0000     0.0000     0.0000 </r>
        <r>   -40.1179     0.0000     0.0000     0.0000     0.0000     0.0000     0.0000     0.0000     0.0000     0.0000 </r>
        <r>   -39.9554     0.0000     0.0000     0.0000     0.0000     0.0000     0.0000     0.0000     0.0000     0.0000 </r>
        <r>   -39.7929     0.0000     0.0000     0.0000     0.0000     0.0000     0.0000     0.0000     0.0000     0.0000 </r>
        <r>   -39.6304     0.0000     0.0104     0.0104     0.0101     0.0000     0.0000     0.0000     0.0000     0.0000 </r>
        <r>   -39.4679     0.0000     5.7579     5.7577     5.7519     0.0000     0.0000     0.0000     0.0000     0.0000 </r>
        <r>   -39.3054     0.0000     0.2865     0.2867     0.2928     0.0000     0.0000     0.0000     0.0000     0.0000 </r>
        <r>   -39.1429     0.0000     0.0000     0.0000     0.0000     0.0000     0.0000     0.0000     0.0000     0.0000 </r>
        <r>   -38.9804     0.0000     0.0000     0.0000     0.0000     0.0000     0.0000     0.0000     0.0000     0.0000 </r>
        <r>   -38.8179     0.0000     0.0000     0.0000     0.0000     0.0000     0.0000     0.0000     0.0000     0.0000 </r>
        <r>   -38.6554     0.0000     0.0000     0.0000     0.0000     0.0000     0.0000     0.0000     0.0000     0.0000 </r>
        <r>   -38.4928     0.0000     0.0000     0.0000     0.0000     0.0000     0.0000     0.0000     0.0000     0.0000 </r>
        <r>   -38.3303     0.0000     0.0000     0.0000     0.0000     0.0000     0.0000     0.0000     0.0000     0.0000 </r>
        <r>   -38.1678     0.0000     0.0000     0.0000     0.0000     0.0000     0.0000     0.0000     0.0000     0.0000 </r>
        <r>   -38.0053     0.0000     0.0000     0.0000     0.0000     0.0000     0.0000     0.0000     0.0000     0.0000 </r>
        <r>   -37.8428     0.0000     0.0000     0.0000     0.0000     0.0000     0.0000     0.0000     0.0000     0.0000 </r>
        <r>   -37.6803     0.0000     0.0000     0.0000     0.0000     0.0000     0.0000     0.0000     0.0000     0.0000 </r>
        <r>   -37.5178     0.0000     0.0000     0.0000     0.0000     0.0000     0.0000     0.0000     0.0000     0.0000 </r>
        <r>   -37.3553     0.0000     0.0000     0.0000     0.0000     0.0000     0.0000     0.0000     0.0000     0.0000 </r>
        <r>   -37.1928     0.0000     0.0000     0.0000     0.0000     0.0000     0.0000     0.0000     0.0000     0.0000 </r>
        <r>   -37.0302     0.0000     0.0000     0.0000     0.0000     0.0000     0.0000     0.0000     0.0000     0.0000 </r>
        <r>   -36.8677     0.0000     0.0000     0.0000     0.0000     0.0000     0.0000     0.0000     0.0000     0.0000 </r>
        <r>   -36.7052     0.0000     0.0000     0.0000     0.0000     0.0000     0.0000     0.0000     0.0000     0.0000 </r>
        <r>   -36.5427     0.0000     0.0000     0.0000     0.0000     0.0000     0.0000     0.0000     0.0000     0.0000 </r>
        <r>   -36.3802     0.0000     0.0000     0.0000     0.0000     0.0000     0.0000     0.0000     0.0000     0.0000 </r>
        <r>   -36.2177     0.0000     0.0000     0.0000     0.0000     0.0000     0.0000     0.0000     0.0000     0.0000 </r>
        <r>   -36.0552     0.0000     0.0000     0.0000     0.0000     0.0000     0.0000     0.0000     0.0000     0.0000 </r>
        <r>   -35.8927     0.0000     0.0000     0.0000     0.0000     0.0000     0.0000     0.0000     0.0000     0.0000 </r>
        <r>   -35.7302     0.0000     0.0000     0.0000     0.0000     0.0000     0.0000     0.0000     0.0000     0.0000 </r>
        <r>   -35.5676     0.0000     0.0000     0.0000     0.0000     0.0000     0.0000     0.0000     0.0000     0.0000 </r>
        <r>   -35.4051     0.0000     0.0000     0.0000     0.0000     0.0000     0.0000     0.0000     0.0000     0.0000 </r>
        <r>   -35.2426     0.0000     0.0000     0.0000     0.0000     0.0000     0.0000     0.0000     0.0000     0.0000 </r>
        <r>   -35.0801     0.0000     0.0000     0.0000     0.0000     0.0000     0.0000     0.0000     0.0000     0.0000 </r>
        <r>   -34.9176     0.0000     0.0000     0.0000     0.0000     0.0000     0.0000     0.0000     0.0000     0.0000 </r>
        <r>   -34.7551     0.0000     0.0000     0.0000     0.0000     0.0000     0.0000     0.0000     0.0000     0.0000 </r>
        <r>   -34.5926     0.0000     0.0000     0.0000     0.0000     0.0000     0.0000     0.0000     0.0000     0.0000 </r>
        <r>   -34.4301     0.0000     0.0000     0.0000     0.0000     0.0000     0.0000     0.0000     0.0000     0.0000 </r>
        <r>   -34.2676     0.0000     0.0000     0.0000     0.0000     0.0000     0.0000     0.0000     0.0000     0.0000 </r>
        <r>   -34.1051     0.0000     0.0000     0.0000     0.0000     0.0000     0.0000     0.0000     0.0000     0.0000 </r>
        <r>   -33.9425     0.0000     0.0000     0.0000     0.0000     0.0000     0.0000     0.0000     0.0000     0.0000 </r>
        <r>   -33.7800     0.0000     0.0000     0.0000     0.0000     0.0000     0.0000     0.0000     0.0000     0.0000 </r>
        <r>   -33.6175     0.0000     0.0000     0.0000     0.0000     0.0000     0.0000     0.0000     0.0000     0.0000 </r>
        <r>   -33.4550     0.0000     0.0000     0.0000     0.0000     0.0000     0.0000     0.0000     0.0000     0.0000 </r>
        <r>   -33.2925     0.0000     0.0000     0.0000     0.0000     0.0000     0.0000     0.0000     0.0000     0.0000 </r>
        <r>   -33.1300     0.0000     0.0000     0.0000     0.0000     0.0000     0.0000     0.0000     0.0000     0.0000 </r>
        <r>   -32.9675     0.0000     0.0000     0.0000     0.0000     0.0000     0.0000     0.0000     0.0000     0.0000 </r>
        <r>   -32.8050     0.0000     0.0000     0.0000     0.0000     0.0000     0.0000     0.0000     0.0000     0.0000 </r>
        <r>   -32.6425     0.0000     0.0000     0.0000     0.0000     0.0000     0.0000     0.0000     0.0000     0.0000 </r>
        <r>   -32.4799     0.0000     0.0000     0.0000     0.0000     0.0000     0.0000     0.0000     0.0000     0.0000 </r>
        <r>   -32.3174     0.0000     0.0000     0.0000     0.0000     0.0000     0.0000     0.0000     0.0000     0.0000 </r>
        <r>   -32.1549     0.0000     0.0000     0.0000     0.0000     0.0000     0.0000     0.0000     0.0000     0.0000 </r>
        <r>   -31.9924     0.0000     0.0000     0.0000     0.0000     0.0000     0.0000     0.0000     0.0000     0.0000 </r>
        <r>   -31.8299     0.0000     0.0000     0.0000     0.0000     0.0000     0.0000     0.0000     0.0000     0.0000 </r>
        <r>   -31.6674     0.0000     0.0000     0.0000     0.0000     0.0000     0.0000     0.0000     0.0000     0.0000 </r>
        <r>   -31.5049     0.0000     0.0000     0.0000     0.0000     0.0000     0.0000     0.0000     0.0000     0.0000 </r>
        <r>   -31.3424     0.0000     0.0000     0.0000     0.0000     0.0000     0.0000     0.0000     0.0000     0.0000 </r>
        <r>   -31.1799     0.0000     0.0000     0.0000     0.0000     0.0000     0.0000     0.0000     0.0000     0.0000 </r>
        <r>   -31.0173     0.0000     0.0000     0.0000     0.0000     0.0000     0.0000     0.0000     0.0000     0.0000 </r>
        <r>   -30.8548     0.0000     0.0000     0.0000     0.0000     0.0000     0.0000     0.0000     0.0000     0.0000 </r>
        <r>   -30.6923     0.0000     0.0000     0.0000     0.0000     0.0000     0.0000     0.0000     0.0000     0.0000 </r>
        <r>   -30.5298     0.0000     0.0000     0.0000     0.0000     0.0000     0.0000     0.0000     0.0000     0.0000 </r>
        <r>   -30.3673     0.0000     0.0000     0.0000     0.0000     0.0000     0.0000     0.0000     0.0000     0.0000 </r>
        <r>   -30.2048     0.0000     0.0000     0.0000     0.0000     0.0000     0.0000     0.0000     0.0000     0.0000 </r>
        <r>   -30.0423     0.0000     0.0000     0.0000     0.0000     0.0000     0.0000     0.0000     0.0000     0.0000 </r>
        <r>   -29.8798     0.0000     0.0000     0.0000     0.0000     0.0000     0.0000     0.0000     0.0000     0.0000 </r>
        <r>   -29.7173     0.0000     0.0000     0.0000     0.0000     0.0000     0.0000     0.0000     0.0000     0.0000 </r>
        <r>   -29.5548     0.0000     0.0000     0.0000     0.0000     0.0000     0.0000     0.0000     0.0000     0.0000 </r>
        <r>   -29.3922     0.0000     0.0000     0.0000     0.0000     0.0000     0.0000     0.0000     0.0000     0.0000 </r>
        <r>   -29.2297     0.0000     0.0000     0.0000     0.0000     0.0000     0.0000     0.0000     0.0000     0.0000 </r>
        <r>   -29.0672     0.0000     0.0000     0.0000     0.0000     0.0000     0.0000     0.0000     0.0000     0.0000 </r>
        <r>   -28.9047     0.0000     0.0000     0.0000     0.0000     0.0000     0.0000     0.0000     0.0000     0.0000 </r>
        <r>   -28.7422     0.0000     0.0000     0.0000     0.0000     0.0000     0.0000     0.0000     0.0000     0.0000 </r>
        <r>   -28.5797     0.0000     0.0000     0.0000     0.0000     0.0000     0.0000     0.0000     0.0000     0.0000 </r>
        <r>   -28.4172     0.0000     0.0000     0.0000     0.0000     0.0000     0.0000     0.0000     0.0000     0.0000 </r>
        <r>   -28.2547     0.0000     0.0000     0.0000     0.0000     0.0000     0.0000     0.0000     0.0000     0.0000 </r>
        <r>   -28.0922     0.0000     0.0000     0.0000     0.0000     0.0000     0.0000     0.0000     0.0000     0.0000 </r>
        <r>   -27.9296     0.0000     0.0000     0.0000     0.0000     0.0000     0.0000     0.0000     0.0000     0.0000 </r>
        <r>   -27.7671     0.0000     0.0000     0.0000     0.0000     0.0000     0.0000     0.0000     0.0000     0.0000 </r>
        <r>   -27.6046     0.0000     0.0000     0.0000     0.0000     0.0000     0.0000     0.0000     0.0000     0.0000 </r>
        <r>   -27.4421     0.0000     0.0000     0.0000     0.0000     0.0000     0.0000     0.0000     0.0000     0.0000 </r>
        <r>   -27.2796     0.0000     0.0000     0.0000     0.0000     0.0000     0.0000     0.0000     0.0000     0.0000 </r>
        <r>   -27.1171     0.0000     0.0000     0.0000     0.0000     0.0000     0.0000     0.0000     0.0000     0.0000 </r>
        <r>   -26.9546     0.0000     0.0000     0.0000     0.0000     0.0000     0.0000     0.0000     0.0000     0.0000 </r>
        <r>   -26.7921     0.0000     0.0000     0.0000     0.0000     0.0000     0.0000     0.0000     0.0000     0.0000 </r>
        <r>   -26.6296     0.0000     0.0000     0.0000     0.0000     0.0000     0.0000     0.0000     0.0000     0.0000 </r>
        <r>   -26.4671     0.0000     0.0000     0.0000     0.0000     0.0000     0.0000     0.0000     0.0000     0.0000 </r>
        <r>   -26.3045     0.0000     0.0000     0.0000     0.0000     0.0000     0.0000     0.0000     0.0000     0.0000 </r>
        <r>   -26.1420     0.0000     0.0000     0.0000     0.0000     0.0000     0.0000     0.0000     0.0000     0.0000 </r>
        <r>   -25.9795     0.0000     0.0000     0.0000     0.0000     0.0000     0.0000     0.0000     0.0000     0.0000 </r>
        <r>   -25.8170     0.0000     0.0000     0.0000     0.0000     0.0000     0.0000     0.0000     0.0000     0.0000 </r>
        <r>   -25.6545     0.0000     0.0000     0.0000     0.0000     0.0000     0.0000     0.0000     0.0000     0.0000 </r>
        <r>   -25.4920     0.0000     0.0000     0.0000     0.0000     0.0000     0.0000     0.0000     0.0000     0.0000 </r>
        <r>   -25.3295     0.0000     0.0000     0.0000     0.0000     0.0000     0.0000     0.0000     0.0000     0.0000 </r>
        <r>   -25.1670     0.0000     0.0000     0.0000     0.0000     0.0000     0.0000     0.0000     0.0000     0.0000 </r>
        <r>   -25.0045     0.0000     0.0000     0.0000     0.0000     0.0000     0.0000     0.0000     0.0000     0.0000 </r>
        <r>   -24.8419     0.0000     0.0000     0.0000     0.0000     0.0000     0.0000     0.0000     0.0000     0.0000 </r>
        <r>   -24.6794     0.0000     0.0000     0.0000     0.0000     0.0000     0.0000     0.0000     0.0000     0.0000 </r>
        <r>   -24.5169     0.0000     0.0000     0.0000     0.0000     0.0000     0.0000     0.0000     0.0000     0.0000 </r>
        <r>   -24.3544     0.0000     0.0000     0.0000     0.0000     0.0000     0.0000     0.0000     0.0000     0.0000 </r>
        <r>   -24.1919     0.0000     0.0000     0.0000     0.0000     0.0000     0.0000     0.0000     0.0000     0.0000 </r>
        <r>   -24.0294     0.0000     0.0000     0.0000     0.0000     0.0000     0.0000     0.0000     0.0000     0.0000 </r>
        <r>   -23.8669     0.0000     0.0000     0.0000     0.0000     0.0000     0.0000     0.0000     0.0000     0.0000 </r>
        <r>   -23.7044     0.0000     0.0000     0.0000     0.0000     0.0000     0.0000     0.0000     0.0000     0.0000 </r>
        <r>   -23.5419     0.0000     0.0000     0.0000     0.0000     0.0000     0.0000     0.0000     0.0000     0.0000 </r>
        <r>   -23.3793     0.0000     0.0000     0.0000     0.0000     0.0000     0.0000     0.0000     0.0000     0.0000 </r>
        <r>   -23.2168     0.0000     0.0000     0.0000     0.0000     0.0000     0.0000     0.0000     0.0000     0.0000 </r>
        <r>   -23.0543     0.0000     0.0000     0.0000     0.0000     0.0000     0.0000     0.0000     0.0000     0.0000 </r>
        <r>   -22.8918     0.0000     0.0000     0.0000     0.0000     0.0000     0.0000     0.0000     0.0000     0.0000 </r>
        <r>   -22.7293     0.0000     0.0000     0.0000     0.0000     0.0000     0.0000     0.0000     0.0000     0.0000 </r>
        <r>   -22.5668     0.0000     0.0000     0.0000     0.0000     0.0000     0.0000     0.0000     0.0000     0.0000 </r>
        <r>   -22.4043     0.0000     0.0000     0.0000     0.0000     0.0000     0.0000     0.0000     0.0000     0.0000 </r>
        <r>   -22.2418     0.0000     0.0000     0.0000     0.0000     0.0000     0.0000     0.0000     0.0000     0.0000 </r>
        <r>   -22.0793     0.0000     0.0000     0.0000     0.0000     0.0000     0.0000     0.0000     0.0000     0.0000 </r>
        <r>   -21.9168     0.0000     0.0000     0.0000     0.0000     0.0000     0.0000     0.0000     0.0000     0.0000 </r>
        <r>   -21.7542     0.0000     0.0000     0.0000     0.0000     0.0000     0.0000     0.0000     0.0000     0.0000 </r>
        <r>   -21.5917     0.0000     0.0000     0.0000     0.0000     0.0000     0.0000     0.0000     0.0000     0.0000 </r>
        <r>   -21.4292     0.0000     0.0000     0.0000     0.0000     0.0000     0.0000     0.0000     0.0000     0.0000 </r>
        <r>   -21.2667     0.0000     0.0000     0.0000     0.0000     0.0000     0.0000     0.0000     0.0000     0.0000 </r>
        <r>   -21.1042     0.0000     0.0000     0.0000     0.0000     0.0000     0.0000     0.0000     0.0000     0.0000 </r>
        <r>   -20.9417     0.0000     0.0000     0.0000     0.0000     0.0000     0.0000     0.0000     0.0000     0.0000 </r>
        <r>   -20.7792     0.0000     0.0000     0.0000     0.0000     0.0000     0.0000     0.0000     0.0000     0.0000 </r>
        <r>   -20.6167     0.0000     0.0000     0.0000     0.0000     0.0000     0.0000     0.0000     0.0000     0.0000 </r>
        <r>   -20.4542     0.0000     0.0000     0.0000     0.0000     0.0000     0.0000     0.0000     0.0000     0.0000 </r>
        <r>   -20.2916     0.0000     0.0000     0.0000     0.0000     0.0000     0.0000     0.0000     0.0000     0.0000 </r>
        <r>   -20.1291     0.0000     0.0000     0.0000     0.0000     0.0000     0.0000     0.0000     0.0000     0.0000 </r>
        <r>   -19.9666     0.0000     0.0000     0.0000     0.0000     0.0000     0.0000     0.0000     0.0000     0.0000 </r>
        <r>   -19.8041     0.0000     0.0000     0.0000     0.0000     0.0000     0.0000     0.0000     0.0000     0.0000 </r>
        <r>   -19.6416     0.0000     0.0000     0.0000     0.0000     0.0000     0.0000     0.0000     0.0000     0.0000 </r>
        <r>   -19.4791     0.0000     0.0000     0.0000     0.0000     0.0000     0.0000     0.0000     0.0000     0.0000 </r>
        <r>   -19.3166     0.0000     0.0000     0.0000     0.0000     0.0000     0.0000     0.0000     0.0000     0.0000 </r>
        <r>   -19.1541     0.0000     0.0000     0.0000     0.0000     0.0000     0.0000     0.0000     0.0000     0.0000 </r>
        <r>   -18.9916     0.0000     0.0000     0.0000     0.0000     0.0000     0.0000     0.0000     0.0000     0.0000 </r>
        <r>   -18.8290     0.0000     0.0000     0.0000     0.0000     0.0000     0.0000     0.0000     0.0000     0.0000 </r>
        <r>   -18.6665     0.0000     0.0000     0.0000     0.0000     0.0000     0.0000     0.0000     0.0000     0.0000 </r>
        <r>   -18.5040     0.0000     0.0000     0.0000     0.0000     0.0000     0.0000     0.0000     0.0000     0.0000 </r>
        <r>   -18.3415     0.0000     0.0000     0.0000     0.0000     0.0000     0.0000     0.0000     0.0000     0.0000 </r>
        <r>   -18.1790     0.0000     0.0000     0.0000     0.0000     0.0000     0.0000     0.0000     0.0000     0.0000 </r>
        <r>   -18.0165     0.0000     0.0000     0.0000     0.0000     0.0000     0.0000     0.0000     0.0000     0.0000 </r>
        <r>   -17.8540     0.0000     0.0000     0.0000     0.0000     0.0000     0.0000     0.0000     0.0000     0.0000 </r>
        <r>   -17.6915     0.0000     0.0000     0.0000     0.0000     0.0000     0.0000     0.0000     0.0000     0.0000 </r>
        <r>   -17.5290     0.0000     0.0000     0.0000     0.0000     0.0000     0.0000     0.0000     0.0000     0.0000 </r>
        <r>   -17.3665     0.0000     0.0000     0.0000     0.0000     0.0000     0.0000     0.0000     0.0000     0.0000 </r>
        <r>   -17.2039     0.0000     0.0000     0.0000     0.0000     0.0000     0.0000     0.0000     0.0000     0.0000 </r>
        <r>   -17.0414     0.0000     0.0000     0.0000     0.0000     0.0000     0.0000     0.0000     0.0000     0.0000 </r>
        <r>   -16.8789     0.0000     0.0000     0.0000     0.0000     0.0000     0.0000     0.0000     0.0000     0.0000 </r>
        <r>   -16.7164     0.0000     0.0000     0.0000     0.0000     0.0000     0.0000     0.0000     0.0000     0.0000 </r>
        <r>   -16.5539     0.0000     0.0000     0.0000     0.0000     0.0000     0.0000     0.0000     0.0000     0.0000 </r>
        <r>   -16.3914     0.0000     0.0000     0.0000     0.0000     0.0000     0.0000     0.0000     0.0000     0.0000 </r>
        <r>   -16.2289     0.0000     0.0000     0.0000     0.0000     0.0000     0.0000     0.0000     0.0000     0.0000 </r>
        <r>   -16.0664     0.0000     0.0000     0.0000     0.0000     0.0000     0.0000     0.0000     0.0000     0.0000 </r>
        <r>   -15.9039     0.0000     0.0000     0.0000     0.0000     0.0000     0.0000     0.0000     0.0000     0.0000 </r>
        <r>   -15.7413     0.0000     0.0000     0.0000     0.0000     0.0000     0.0000     0.0000     0.0000     0.0000 </r>
        <r>   -15.5788     0.0000     0.0000     0.0000     0.0000     0.0000     0.0000     0.0000     0.0000     0.0000 </r>
        <r>   -15.4163     0.0000     0.0000     0.0000     0.0000     0.0000     0.0000     0.0000     0.0000     0.0000 </r>
        <r>   -15.2538     0.0000     0.0000     0.0000     0.0000     0.0000     0.0000     0.0000     0.0000     0.0000 </r>
        <r>   -15.0913     0.0000     0.0000     0.0000     0.0000     0.0000     0.0000     0.0000     0.0000     0.0000 </r>
        <r>   -14.9288     0.0000     0.0000     0.0000     0.0000     0.0000     0.0000     0.0000     0.0000     0.0000 </r>
        <r>   -14.7663     0.0000     0.0000     0.0000     0.0000     0.0000     0.0000     0.0000     0.0000     0.0000 </r>
        <r>   -14.6038     0.0000     0.0000     0.0000     0.0000     0.0000     0.0000     0.0000     0.0000     0.0000 </r>
        <r>   -14.4413     0.0000     0.0000     0.0000     0.0000     0.0000     0.0000     0.0000     0.0000     0.0000 </r>
        <r>   -14.2788     0.0000     0.0000     0.0000     0.0000     0.0000     0.0000     0.0000     0.0000     0.0000 </r>
        <r>   -14.1162     0.0000     0.0000     0.0000     0.0000     0.0000     0.0000     0.0000     0.0000     0.0000 </r>
        <r>   -13.9537     0.0000     0.0000     0.0000     0.0000     0.0000     0.0000     0.0000     0.0000     0.0000 </r>
        <r>   -13.7912     0.0000     0.0000     0.0000     0.0000     0.0000     0.0000     0.0000     0.0000     0.0000 </r>
        <r>   -13.6287     0.0000     0.0000     0.0000     0.0000     0.0000     0.0000     0.0000     0.0000     0.0000 </r>
        <r>   -13.4662     0.0000     0.0000     0.0000     0.0000     0.0000     0.0000     0.0000     0.0000     0.0000 </r>
        <r>   -13.3037     0.0000     0.0000     0.0000     0.0000     0.0000     0.0000     0.0000     0.0000     0.0000 </r>
[...]
        <r>    -0.3028     0.0003     0.0000     0.0000     0.0000     0.0000     0.0000     0.0000     0.0000     0.0000 </r>
        <r>    -0.1403     0.1512     0.0000     0.0000     0.0000     0.0000     0.0000     0.0000     0.0000     0.0000 </r>
        <r>     0.0222     0.0078     0.0000     0.0000     0.0000     0.0000     0.0000     0.0000     0.0000     0.0000 </r>
        <r>     0.1847     0.0000     0.0000     0.0000     0.0000     0.0000     0.0000     0.0000     0.0000     0.0000 </r>
        <r>     0.3472     0.0000     0.0000     0.0000     0.0000     0.0000     0.0000     0.0000     0.0000     0.0000 </r>
        <r>     0.5097     0.0000     0.0000     0.0000     0.0000     0.0000     0.0000     0.0000     0.0000     0.0000 </r>
        <r>     0.6722     0.0000     0.0000     0.0000     0.0000     0.0000     0.0000     0.0000     0.0000     0.0000 </r>
        <r>     0.8347     0.0000     0.0000     0.0000     0.0000     0.0000     0.0000     0.0043     0.0000     0.0042 </r>
        <r>     0.9973     0.0000     0.0000     0.0000     0.0000     0.0000     0.0000     0.1831     0.0000     0.1813 </r>
        <r>     1.1598     0.0000     0.0000     0.0000     0.0000     0.0000     0.0000     0.0009     0.0000     0.0009 </r>
        <r>     1.3223     0.0000     0.0000     0.0000     0.0000     0.0000     0.0000     0.0000     0.0000     0.0000 </r>
        <r>     1.4848     0.0000     0.0000     0.0000     0.0000     0.0000     0.0000     0.0000     0.0000     0.0000 </r>
        <r>     1.6473     0.0003     0.0479     0.0472     0.0466     0.0001     0.0001     0.0000     0.0002     0.0000 </r>
        <r>     1.8098     0.1281     0.0626     0.0595     0.0596     0.0001     0.0002     0.0000     0.0003     0.0000 </r>
        <r>     1.9723     0.0309     0.0001     0.0000     0.0000     0.0000     0.0000     0.0000     0.0000     0.0000 </r>
        <r>     2.1348     0.0000     0.0000     0.0000     0.0000     0.0021     0.0022     0.0000     0.0020     0.0000 </r>
        <r>     2.2973     0.0000     0.0000     0.0001     0.0002     0.3332     0.3364     0.0001     0.3366     0.0001 </r>
        <r>     2.4598     0.0000     0.0001     0.0001     0.0001     0.0078     0.0072     0.0069     0.0081     0.0193 </r>
        <r>     2.6224     0.0000     0.0000     0.0000     0.0001     0.0001     0.0001     0.0731     0.0009     0.0610 </r>
        <r>     2.7849     0.0000     0.0000     0.0000     0.0000     0.0000     0.0000     0.0001     0.0000     0.0000 </r>
        <r>     2.9474     0.0000     0.0000     0.0000     0.0000     0.0000     0.0000     0.0000     0.0000     0.0000 </r>
        <r>     3.1099     0.0000     0.0000     0.0000     0.0000     0.0000     0.0000     0.0000     0.0000     0.0000 </r>
        <r>     3.2724     0.0000     0.0000     0.0000     0.0000     0.0000     0.0000     0.0000     0.0000     0.0000 </r>
        <r>     3.4349     0.0000     0.0000     0.0000     0.0000     0.0000     0.0000     0.0000     0.0000     0.0000 </r>
        <r>     3.5974     0.0001     0.0007     0.0051     0.0005     0.0003     0.0008     0.0000     0.0004     0.0000 </r>
        <r>     3.7599     0.0205     0.0425     0.0978     0.0688     0.0219     0.0315     0.0002     0.0207     0.0031 </r>
        <r>     3.9224     0.1216     0.0335     0.0080     0.0307     0.1096     0.1052     0.0003     0.1113     0.0067 </r>
        <r>     4.0850     0.0001     0.0001     0.0002     0.0000     0.0037     0.0004     0.0000     0.0068     0.0000 </r>
        <r>     4.2475     0.0000     0.0000     0.0000     0.0000     0.0000     0.0000     0.0000     0.0000     0.0000 </r>
        <r>     4.4100     0.0000     0.0000     0.0000     0.0000     0.0000     0.0000     0.0000     0.0000     0.0000 </r>
        <r>     4.5725     0.0000     0.0000     0.0000     0.0000     0.0000     0.0000     0.0000     0.0000     0.0000 </r>
        <r>     4.7350     0.0064     0.0007     0.0000     0.0009     0.0000     0.0000     0.0000     0.0000     0.0030 </r>
        <r>     4.8975     0.1286     0.0143     0.0002     0.0177     0.0002     0.0000     0.0009     0.0000     0.0595 </r>
        <r>     5.0600     0.0002     0.0000     0.0000     0.0000     0.0000     0.0000     0.0000     0.0000     0.0001 </r>
        <r>     5.2225     0.0000     0.0000     0.0000     0.0000     0.0000     0.0000     0.0000     0.0000     0.0000 </r>
        <r>     5.3850     0.0000     0.0000     0.0000     0.0000     0.0000     0.0000     0.0000     0.0000     0.0000 </r>
        <r>     5.5475     0.0000     0.0000     0.0000     0.0000     0.0000     0.0000     0.0000     0.0000     0.0000 </r>
        <r>     5.7101     0.0000     0.0000     0.0000     0.0000     0.0000     0.0000     0.0000     0.0000     0.0000 </r>
        <r>     5.8726     0.0000     0.0000     0.0000     0.0000     0.0000     0.0000     0.0000     0.0000     0.0000 </r>
        <r>     6.0351     0.0000     0.0000     0.0000     0.0000     0.0000     0.0000     0.0000     0.0000     0.0000 </r>
        <r>     6.1976     0.0000     0.0000     0.0000     0.0000     0.0000     0.0000     0.0000     0.0000     0.0000 </r>
        <r>     6.3601     0.0000     0.0000     0.0000     0.0000     0.0000     0.0000     0.0000     0.0000     0.0000 </r>
        <r>     6.5226     0.0000     0.0000     0.0000     0.0000     0.0000     0.0000     0.0000     0.0000     0.0000 </r>
        <r>     6.6851     0.0000     0.0000     0.0000     0.0000     0.0000     0.0000     0.0000     0.0000     0.0000 </r>
        <r>     6.8476     0.0000     0.0000     0.0000     0.0000     0.0000     0.0000     0.0000     0.0000     0.0000 </r>
        <r>     7.0101     0.0000     0.0000     0.0000     0.0000     0.0000     0.0000     0.0000     0.0000     0.0000 </r>
       </set>
      </set>
     </set>
    </array>
   </partial>
  </dos>
  <projected>
   <eigenvalues>
    <array>
     <dimension dim="1">band</dimension>
     <dimension dim="2">kpoint</dimension>
     <dimension dim="3">spin</dimension>
     <field>eigene</field>
     <field>occ</field>
     <set>
      <set comment="spin 1">
       <set comment="kpoint 1">
        <r>  -39.5270    1.0000 </r>
        <r>  -39.5270    1.0000 </r>
        <r>  -39.5266    1.0000 </r>
        <r>   -5.5639    1.0000 </r>
        <r>   -4.1217    1.0000 </r>
        <r>   -4.1211    1.0000 </r>
        <r>   -4.1210    1.0000 </r>
        <r>   -3.5011    0.0000 </r>
        <r>   -3.5009    0.0000 </r>
        <r>   -1.2746    0.0000 </r>
        <r>   -1.2743    0.0000 </r>
        <r>   -1.2735    0.0000 </r>
        <r>   -0.2340    0.0000 </r>
        <r>    0.9281    0.0000 </r>
        <r>    0.9281    0.0000 </r>
        <r>    1.6074    0.0000 </r>
        <r>    1.6150    0.0000 </r>
        <r>    1.6202    0.0000 </r>
        <r>    1.7422    0.0000 </r>
        <r>    2.0116    0.0000 </r>
        <r>    2.0129    0.0000 </r>
        <r>    2.0153    0.0000 </r>
        <r>    2.4003    0.0000 </r>
        <r>    2.4106    0.0000 </r>
        <r>    2.4120    0.0000 </r>
        <r>    2.5649    0.0000 </r>
        <r>    2.5840    0.0000 </r>
        <r>    3.5795    0.0000 </r>
        <r>    3.6457    0.0000 </r>
        <r>    3.6650    0.0000 </r>
        <r>    3.7284    0.0000 </r>
        <r>    3.7687    0.0000 </r>
        <r>    3.8168    0.0000 </r>
        <r>    3.8185    0.0000 </r>
        <r>    3.8272    0.0000 </r>
        <r>    4.3791    0.0000 </r>
       </set>
      </set>
      <set comment="spin 2">
       <set comment="kpoint 1">
        <r>  -38.1984    1.0000 </r>
        <r>  -38.1984    1.0000 </r>
        <r>  -38.1984    1.0000 </r>
        <r>   -4.4490    1.0000 </r>
        <r>   -2.6403    0.0000 </r>
        <r>   -2.6400    0.0000 </r>
        <r>   -2.0781    0.0000 </r>
        <r>   -2.0780    0.0000 </r>
        <r>   -2.0780    0.0000 </r>
        <r>   -0.7062    0.0000 </r>
        <r>   -0.7061    0.0000 </r>
        <r>   -0.7058    0.0000 </r>
        <r>   -0.1988    0.0000 </r>
        <r>    0.9054    0.0000 </r>
        <r>    0.9055    0.0000 </r>
        <r>    1.6519    0.0000 </r>
        <r>    1.6528    0.0000 </r>
        <r>    1.6536    0.0000 </r>
        <r>    1.7794    0.0000 </r>
        <r>    2.2223    0.0000 </r>
        <r>    2.2235    0.0000 </r>
        <r>    2.2242    0.0000 </r>
        <r>    2.3807    0.0000 </r>
        <r>    2.3871    0.0000 </r>
        <r>    2.3971    0.0000 </r>
        <r>    2.4993    0.0000 </r>
        <r>    2.5145    0.0000 </r>
        <r>    3.6551    0.0000 </r>
        <r>    3.6633    0.0000 </r>
        <r>    3.6840    0.0000 </r>
        <r>    3.7767    0.0000 </r>
        <r>    3.8075    0.0000 </r>
        <r>    3.8094    0.0000 </r>
        <r>    3.8222    0.0000 </r>
        <r>    3.8726    0.0000 </r>
        <r>    4.7941    0.0000 </r>
       </set>
      </set>
     </set>
    </array>
   </eigenvalues>
   <array>
    <dimension dim="1">ion</dimension>
    <dimension dim="2">band</dimension>
    <dimension dim="3">kpoint</dimension>
    <dimension dim="4">spin</dimension>
    <field>    s</field>
    <field>   py</field>
    <field>   pz</field>
    <field>   px</field>
    <field>  dxy</field>
    <field>  dyz</field>
    <field>  dz2</field>
    <field>  dxz</field>
    <field>x2-y2</field>
    <set>
     <set comment="spin1">
      <set comment="kpoint 1">
       <set comment="band 1">
        <r>  0.0000  0.9840  0.0000  0.0000  0.0000  0.0000  0.0000  0.0000  0.0000 </r>
       </set>
       <set comment="band 2">
        <r>  0.0000  0.0000  0.9840  0.0000  0.0000  0.0000  0.0000  0.0000  0.0000 </r>
       </set>
       <set comment="band 3">
        <r>  0.0000  0.0000  0.0000  0.9840  0.0000  0.0000  0.0000  0.0000  0.0000 </r>
       </set>
       <set comment="band 4">
        <r>  0.2794  0.0000  0.0000  0.0000  0.0000  0.0000  0.0000  0.0000  0.0000 </r>
       </set>
       <set comment="band 5">
        <r>  0.0000  0.0000  0.0000  0.0000  0.6976  0.0000  0.0000  0.0000  0.0000 </r>
       </set>
       <set comment="band 6">
        <r>  0.0000  0.0000  0.0000  0.0000  0.0000  0.6968  0.0000  0.0007  0.0000 </r>
       </set>
       <set comment="band 7">
        <r>  0.0000  0.0000  0.0000  0.0000  0.0000  0.0007  0.0000  0.6968  0.0000 </r>
       </set>
       <set comment="band 8">
        <r>  0.0000  0.0000  0.0000  0.0000  0.0000  0.0000  0.5748  0.0000  0.1163 </r>
       </set>
       <set comment="band 9">
        <r>  0.0000  0.0000  0.0000  0.0000  0.0000  0.0000  0.1164  0.0000  0.5755 </r>
       </set>
       <set comment="band 10">
        <r>  0.0000  0.0454  0.0127  0.0162  0.0000  0.0000  0.0000  0.0000  0.0000 </r>
       </set>
       <set comment="band 11">
        <r>  0.0000  0.0000  0.0392  0.0347  0.0000  0.0000  0.0000  0.0000  0.0000 </r>
       </set>
       <set comment="band 12">
        <r>  0.0000  0.0286  0.0218  0.0230  0.0000  0.0000  0.0000  0.0000  0.0000 </r>
       </set>
       <set comment="band 13">
        <r>  0.0249  0.0000  0.0000  0.0000  0.0000  0.0000  0.0000  0.0000  0.0000 </r>
       </set>
       <set comment="band 14">
        <r>  0.0000  0.0000  0.0000  0.0000  0.0000  0.0000  0.0001  0.0000  0.0241 </r>
       </set>
       <set comment="band 15">
        <r>  0.0000  0.0000  0.0000  0.0000  0.0000  0.0000  0.0244  0.0000  0.0001 </r>
       </set>
       <set comment="band 16">
        <r>  0.0000  0.0061  0.0061  0.0069  0.0001  0.0000  0.0000  0.0001  0.0000 </r>
       </set>
       <set comment="band 17">
        <r>  0.0011  0.0115  0.0060  0.0009  0.0000  0.0001  0.0000  0.0002  0.0000 </r>
       </set>
       <set comment="band 18">
        <r>  0.0013  0.0014  0.0062  0.0108  0.0000  0.0003  0.0000  0.0001  0.0000 </r>
       </set>
       <set comment="band 19">
        <r>  0.0233  0.0003  0.0011  0.0004  0.0000  0.0001  0.0000  0.0000  0.0000 </r>
       </set>
       <set comment="band 20">
        <r>  0.0000  0.0000  0.0001  0.0001  0.0005  0.0422  0.0000  0.0000  0.0000 </r>
       </set>
       <set comment="band 21">
        <r>  0.0000  0.0002  0.0000  0.0000  0.0069  0.0001  0.0000  0.0361  0.0000 </r>
       </set>
       <set comment="band 22">
        <r>  0.0000  0.0000  0.0000  0.0000  0.0361  0.0004  0.0000  0.0069  0.0000 </r>
       </set>
       <set comment="band 23">
        <r>  0.0000  0.0000  0.0000  0.0000  0.0000  0.0000  0.0000  0.0000  0.0000 </r>
       </set>
       <set comment="band 24">
        <r>  0.0000  0.0000  0.0000  0.0003  0.0000  0.0000  0.0007  0.0000  0.0001 </r>
       </set>
       <set comment="band 25">
        <r>  0.0000  0.0000  0.0000  0.0000  0.0000  0.0000  0.0004  0.0000  0.0000 </r>
       </set>
       <set comment="band 26">
        <r>  0.0000  0.0000  0.0000  0.0000  0.0000  0.0000  0.0102  0.0000  0.0000 </r>
       </set>
       <set comment="band 27">
        <r>  0.0000  0.0000  0.0000  0.0000  0.0000  0.0000  0.0000  0.0000  0.0111 </r>
       </set>
       <set comment="band 28">
        <r>  0.0014  0.0009  0.0001  0.0183  0.0000  0.0001  0.0000  0.0002  0.0000 </r>
       </set>
       <set comment="band 29">
        <r>  0.0051  0.0002  0.0004  0.0046  0.0001  0.0029  0.0000  0.0015  0.0006 </r>
       </set>
       <set comment="band 30">
        <r>  0.0008  0.0130  0.0049  0.0005  0.0002  0.0001  0.0004  0.0002  0.0001 </r>
       </set>
       <set comment="band 31">
        <r>  0.0175  0.0006  0.0007  0.0003  0.0001  0.0011  0.0000  0.0005  0.0000 </r>
       </set>
       <set comment="band 32">
        <r>  0.0050  0.0013  0.0022  0.0019  0.0002  0.0090  0.0000  0.0003  0.0000 </r>
       </set>
       <set comment="band 33">
        <r>  0.0039  0.0072  0.0049  0.0000  0.0001  0.0005  0.0029  0.0010  0.0011 </r>
       </set>
       <set comment="band 34">
        <r>  0.0002  0.0016  0.0004  0.0001  0.0001  0.0024  0.0000  0.0129  0.0000 </r>
       </set>
       <set comment="band 35">
        <r>  0.0000  0.0000  0.0014  0.0000  0.0155  0.0003  0.0000  0.0000  0.0000 </r>
       </set>
       <set comment="band 36">
        <r>  0.0064  0.0060  0.0093  0.0018  0.0000  0.0000  0.0000  0.0000  0.0001 </r>
       </set>
      </set>
     </set>
     <set comment="spin2">
      <set comment="kpoint 1">
       <set comment="band 1">
        <r>  0.0000  0.0000  0.0000  0.9837  0.0000  0.0000  0.0000  0.0000  0.0000 </r>
       </set>
       <set comment="band 2">
        <r>  0.0000  0.0000  0.9837  0.0000  0.0000  0.0000  0.0000  0.0000  0.0000 </r>
       </set>
       <set comment="band 3">
        <r>  0.0000  0.9837  0.0000  0.0000  0.0000  0.0000  0.0000  0.0000  0.0000 </r>
       </set>
       <set comment="band 4">
        <r>  0.2460  0.0000  0.0000  0.0000  0.0000  0.0000  0.0000  0.0000  0.0000 </r>
       </set>
       <set comment="band 5">
        <r>  0.0000  0.0000  0.0000  0.0000  0.0000  0.0001  0.5725  0.0001  0.0931 </r>
       </set>
       <set comment="band 6">
        <r>  0.0000  0.0000  0.0000  0.0000  0.0000  0.0002  0.0930  0.0003  0.5722 </r>
       </set>
       <set comment="band 7">
        <r>  0.0000  0.0000  0.0000  0.0000  0.0811  0.5685  0.0000  0.0012  0.0003 </r>
       </set>
       <set comment="band 8">
        <r>  0.0000  0.0000  0.0000  0.0000  0.0000  0.0015  0.0002  0.6486  0.0001 </r>
       </set>
       <set comment="band 9">
        <r>  0.0000  0.0000  0.0000  0.0000  0.5706  0.0807  0.0000  0.0003  0.0001 </r>
       </set>
       <set comment="band 10">
        <r>  0.0000  0.0018  0.0518  0.0018  0.0000  0.0000  0.0000  0.0000  0.0000 </r>
       </set>
       <set comment="band 11">
        <r>  0.0000  0.0051  0.0008  0.0495  0.0000  0.0000  0.0000  0.0000  0.0000 </r>
       </set>
       <set comment="band 12">
        <r>  0.0000  0.0481  0.0027  0.0041  0.0000  0.0000  0.0000  0.0000  0.0000 </r>
       </set>
       <set comment="band 13">
        <r>  0.0259  0.0000  0.0000  0.0000  0.0000  0.0000  0.0000  0.0000  0.0000 </r>
       </set>
       <set comment="band 14">
        <r>  0.0000  0.0000  0.0000  0.0000  0.0000  0.0000  0.0079  0.0000  0.0225 </r>
       </set>
       <set comment="band 15">
        <r>  0.0000  0.0000  0.0000  0.0000  0.0000  0.0000  0.0227  0.0000  0.0078 </r>
       </set>
       <set comment="band 16">
        <r>  0.0000  0.0008  0.0116  0.0049  0.0000  0.0000  0.0000  0.0000  0.0000 </r>
       </set>
       <set comment="band 17">
        <r>  0.0001  0.0084  0.0012  0.0079  0.0000  0.0000  0.0000  0.0000  0.0000 </r>
       </set>
       <set comment="band 18">
        <r>  0.0000  0.0088  0.0045  0.0045  0.0000  0.0000  0.0000  0.0001  0.0000 </r>
       </set>
       <set comment="band 19">
        <r>  0.0258  0.0001  0.0000  0.0000  0.0000  0.0000  0.0000  0.0000  0.0000 </r>
       </set>
       <set comment="band 20">
        <r>  0.0000  0.0000  0.0000  0.0000  0.0143  0.0412  0.0000  0.0000  0.0000 </r>
       </set>
       <set comment="band 21">
        <r>  0.0000  0.0000  0.0000  0.0000  0.0306  0.0114  0.0000  0.0139  0.0000 </r>
       </set>
       <set comment="band 22">
        <r>  0.0000  0.0000  0.0000  0.0000  0.0106  0.0034  0.0000  0.0421  0.0000 </r>
       </set>
       <set comment="band 23">
        <r>  0.0000  0.0000  0.0000  0.0000  0.0001  0.0001  0.0001  0.0002  0.0000 </r>
       </set>
       <set comment="band 24">
        <r>  0.0000  0.0000  0.0000  0.0000  0.0001  0.0001  0.0002  0.0000  0.0002 </r>
       </set>
       <set comment="band 25">
        <r>  0.0000  0.0000  0.0000  0.0000  0.0000  0.0000  0.0001  0.0000  0.0015 </r>
       </set>
       <set comment="band 26">
        <r>  0.0000  0.0000  0.0000  0.0000  0.0000  0.0000  0.0005  0.0001  0.0108 </r>
       </set>
       <set comment="band 27">
        <r>  0.0000  0.0000  0.0000  0.0000  0.0000  0.0000  0.0122  0.0000  0.0005 </r>
       </set>
       <set comment="band 28">
        <r>  0.0002  0.0000  0.0156  0.0003  0.0006  0.0000  0.0000  0.0000  0.0000 </r>
       </set>
       <set comment="band 29">
        <r>  0.0000  0.0027  0.0008  0.0000  0.0001  0.0040  0.0000  0.0017  0.0000 </r>
       </set>
       <set comment="band 30">
        <r>  0.0010  0.0038  0.0000  0.0089  0.0017  0.0005  0.0000  0.0011  0.0000 </r>
       </set>
       <set comment="band 31">
        <r>  0.0007  0.0009  0.0011  0.0068  0.0010  0.0003  0.0001  0.0007  0.0016 </r>
       </set>
       <set comment="band 32">
        <r>  0.0208  0.0005  0.0001  0.0002  0.0001  0.0000  0.0000  0.0000  0.0000 </r>
       </set>
       <set comment="band 33">
        <r>  0.0003  0.0016  0.0000  0.0000  0.0107  0.0001  0.0000  0.0053  0.0000 </r>
       </set>
       <set comment="band 34">
        <r>  0.0000  0.0030  0.0001  0.0000  0.0003  0.0170  0.0000  0.0000  0.0000 </r>
       </set>
       <set comment="band 35">
        <r>  0.0000  0.0000  0.0003  0.0000  0.0075  0.0004  0.0000  0.0138  0.0000 </r>
       </set>
       <set comment="band 36">
        <r>  0.0220  0.0024  0.0000  0.0030  0.0000  0.0000  0.0002  0.0000  0.0102 </r>
       </set>
      </set>
     </set>
    </set>
   </array>
  </projected>
 </calculation>
 <structure name="finalpos" >
  <crystal>
   <varray name="basis" >
    <v>      10.00000000       0.00000000       0.00000000 </v>
    <v>       0.00000000      10.00000000       0.00000000 </v>
    <v>       0.00000000       0.00000000      10.00000000 </v>
   </varray>
   <i name="volume">   1000.00000000 </i>
   <varray name="rec_basis" >
    <v>       0.10000000       0.00000000       0.00000000 </v>
    <v>       0.00000000       0.10000000       0.00000000 </v>
    <v>       0.00000000       0.00000000       0.10000000 </v>
   </varray>
  </crystal>
  <varray name="positions" >
   <v>       0.50000000       0.50000000       0.50000000 </v>
  </varray>
 </structure>
</modeling>
