       N       E                     dE             d eps       ncg     rms          ort
DAV:   1     0.175103371682E+02    0.17510E+02   -0.11387E+03    36   0.855E+01
DAV:   2     0.773814325762E+01   -0.97722E+01   -0.97722E+01    36   0.122E+01
DAV:   3     0.619610446712E+01   -0.15420E+01   -0.14637E+01    36   0.542E+00
DAV:   4     0.279162519554E+01   -0.34045E+01   -0.32879E+01    36   0.403E+00
DAV:   5     0.939665715855E+00   -0.18520E+01   -0.18520E+01    36   0.402E+00
SDA:   6     0.809933590304E+00   -0.12973E+00   -0.17085E+01    36   0.427E+01 0.000E+00
DMP:   7    -0.362136374902E+00   -0.11721E+01   -0.52281E+00    36   0.746E+00 0.147E+01
DMP:   8    -0.640772329199E+00   -0.27864E+00   -0.97431E-01    36   0.288E+00-0.117E+00
DMP:   9    -0.710565570548E+00   -0.69793E-01   -0.89153E-01    36   0.219E+00 0.981E-02
DMP:  10    -0.771815112725E+00   -0.61250E-01   -0.35003E-01    36   0.610E-01 0.695E-01
DMP:  11    -0.791767965597E+00   -0.19953E-01   -0.97733E-02    36   0.204E-01 0.105E-01
DMP:  12    -0.798115925456E+00   -0.63480E-02   -0.59298E-02    36   0.124E-01 0.638E-02
DMP:  13    -0.802314630522E+00   -0.41987E-02   -0.24433E-02    36   0.385E-02 0.592E-02
DMP:  14    -0.803829470174E+00   -0.15148E-02   -0.64052E-03    36   0.105E-02 0.143E-02
DMP:  15    -0.804228627485E+00   -0.39916E-03   -0.31811E-03    36   0.647E-03 0.389E-03
DMP:  16    -0.804470045808E+00   -0.24142E-03   -0.19774E-03    36   0.318E-03 0.463E-03
DMP:  17    -0.805013815886E+00   -0.54377E-03   -0.12714E-02    36   0.158E-02 0.417E-02
DMP:  18    -0.809349289743E+00   -0.43355E-02   -0.66881E-02    36   0.786E-02 0.232E-01
DMP:  19    -0.819995649392E+00   -0.10646E-01   -0.10042E-01    36   0.113E-01 0.362E-01
DMP:  20    -0.830963549613E+00   -0.10968E-01   -0.74785E-02    36   0.806E-02 0.278E-01
DMP:  21    -0.837816774653E+00   -0.68532E-02   -0.38705E-02    36   0.402E-02 0.148E-01
DMP:  22    -0.841086204066E+00   -0.32694E-02   -0.16590E-02    36   0.167E-02 0.650E-02
DMP:  23    -0.842434552298E+00   -0.13483E-02   -0.64068E-03    36   0.622E-03 0.257E-02
DMP:  24    -0.842944970393E+00   -0.51042E-03   -0.23123E-03    36   0.216E-03 0.947E-03
DMP:  25    -0.843126797247E+00   -0.18183E-03   -0.78957E-04    36   0.711E-04 0.331E-03
DMP:  26    -0.843188160336E+00   -0.61363E-04   -0.25502E-04    36   0.220E-04 0.109E-03
DMP:  27    -0.843207714510E+00   -0.19554E-04   -0.77260E-05    36   0.631E-05 0.340E-04
