 vasp.5.4.1 05Feb16 (build Oct 05 2016 16:10:00) complex                        
  
 executed on           IFC91_ompi date 2017.11.30  13:55:06
 running on   16 total cores
 distrk:  each k-point on   16 cores,    1 groups
 distr:  one band on NCORES_PER_BAND=   1 cores,   16 groups


--------------------------------------------------------------------------------------------------------


 INCAR:
 POTCAR:    PAW_PBE O 08Apr2002                   
 POTCAR:    PAW_PBE Mg 13Apr2007                  

 ----------------------------------------------------------------------------- 
|                                                                             |
|           W    W    AA    RRRRR   N    N  II  N    N   GGGG   !!!           |
|           W    W   A  A   R    R  NN   N  II  NN   N  G    G  !!!           |
|           W    W  A    A  R    R  N N  N  II  N N  N  G       !!!           |
|           W WW W  AAAAAA  RRRRR   N  N N  II  N  N N  G  GGG   !            |
|           WW  WW  A    A  R   R   N   NN  II  N   NN  G    G                |
|           W    W  A    A  R    R  N    N  II  N    N   GGGG   !!!           |
|                                                                             |
|      For optimal performance we recommend to set                            |
|        NCORE= 4 - approx SQRT( number of cores)                             |
|      NCORE specifies how many cores store one orbital (NPAR=cpu/NCORE).     |
|      This setting can  greatly improve the performance of VASP for DFT.     |
|      The default, NPAR=number of cores might be grossly inefficient         |
|      on modern multi-core architectures or massively parallel machines.     |
|      Do your own testing !!!!                                               |
|      Unfortunately you need to use the default for GW and RPA calculations. |
|      (for HF NCORE is supported but not extensively tested yet)             |
|                                                                             |
 ----------------------------------------------------------------------------- 

 POTCAR:    PAW_PBE O 08Apr2002                   
   VRHFIN =O: s2p4                                                              
   LEXCH  = PE                                                                  
   EATOM  =   432.3788 eV,   31.7789 Ry                                         
                                                                                
   TITEL  = PAW_PBE O 08Apr2002                                                 
   LULTRA =        F    use ultrasoft PP ?                                      
   IUNSCR =        1    unscreen: 0-lin 1-nonlin 2-no                           
   RPACOR =    1.200    partial core radius                                     
   POMASS =   16.000; ZVAL   =    6.000    mass and valenz                      
   RCORE  =    1.520    outmost cutoff radius                                   
   RWIGS  =    1.550; RWIGS  =    0.820    wigner-seitz radius (au A)           
   ENMAX  =  400.000; ENMIN  =  300.000 eV                                      
   ICORE  =        2    local potential                                         
   LCOR   =        T    correct aug charges                                     
   LPAW   =        T    paw PP                                                  
   EAUG   =  605.392                                                            
   DEXC   =    0.000                                                            
   RMAX   =    1.553    core radius for proj-oper                               
   RAUG   =    1.300    factor for augmentation sphere                          
   RDEP   =    1.550    radius for radial grids                                 
   RDEPT  =    1.329    core radius for aug-charge                              
                                                                                
   Atomic configuration                                                         
    4 entries                                                                   
     n  l   j            E        occ.                                          
     1  0  0.50      -514.6923   2.0000                                         
     2  0  0.50       -23.9615   2.0000                                         
     2  1  0.50        -9.0305   4.0000                                         
     3  2  1.50        -9.5241   0.0000                                         
   Description                                                                  
     l       E           TYP  RCUT    TYP  RCUT                                 
     0    -23.9615318     23  1.200                                             
     0     -9.5240782     23  1.200                                             
     1     -9.0304911     23  1.520                                             
     1      8.1634956     23  1.520                                             
     2     -9.5240782      7  1.500                                             
  local pseudopotential read in
  partial core-charges read in
  partial kinetic energy density read in
  kinetic energy density of atom read in
  atomic valenz-charges read in
  non local Contribution for L=           0  read in
    real space projection operators read in
  non local Contribution for L=           0  read in
    real space projection operators read in
  non local Contribution for L=           1  read in
    real space projection operators read in
  non local Contribution for L=           1  read in
    real space projection operators read in
    PAW grid and wavefunctions read in
 
   number of l-projection  operators is LMAX  =           4
   number of lm-projection operators is LMMAX =           8
 
 POTCAR:    PAW_PBE Mg 13Apr2007                  
   VRHFIN =Mg: s2p0                                                             
   LEXCH  = PE                                                                  
   EATOM  =    23.0369 eV,    1.6932 Ry                                         
                                                                                
   TITEL  = PAW_PBE Mg 13Apr2007                                                
   LULTRA =        F    use ultrasoft PP ?                                      
   IUNSCR =        1    unscreen: 0-lin 1-nonlin 2-no                           
   RPACOR =    1.500    partial core radius                                     
   POMASS =   24.305; ZVAL   =    2.000    mass and valenz                      
   RCORE  =    2.000    outmost cutoff radius                                   
   RWIGS  =    2.880; RWIGS  =    1.524    wigner-seitz radius (au A)           
   ENMAX  =  200.000; ENMIN  =  100.000 eV                                      
   RCLOC  =    1.506    cutoff for local pot                                    
   LCOR   =        T    correct aug charges                                     
   LPAW   =        T    paw PP                                                  
   EAUG   =  454.734                                                            
   DEXC   =    0.000                                                            
   RMAX   =    2.045    core radius for proj-oper                               
   RAUG   =    1.300    factor for augmentation sphere                          
   RDEP   =    2.025    radius for radial grids                                 
   RDEPT  =    1.942    core radius for aug-charge                              
                                                                                
   Atomic configuration                                                         
    6 entries                                                                   
     n  l   j            E        occ.                                          
     1  0  0.50     -1259.6230   2.0000                                         
     2  0  0.50       -79.8442   2.0000                                         
     2  1  1.50       -46.6121   6.0000                                         
     3  0  0.50        -4.7055   2.0000                                         
     3  1  0.50        -1.3660   0.0000                                         
     3  2  1.50        -1.3606   0.0000                                         
   Description                                                                  
     l       E           TYP  RCUT    TYP  RCUT                                 
     0     -4.7054661     23  2.000                                             
     0     27.2116520     23  2.000                                             
     1      1.3605826     23  2.000                                             
     1     27.2116520     23  2.000                                             
     2     -1.3605826     23  2.000                                             
  local pseudopotential read in
  partial core-charges read in
  partial kinetic energy density read in
  atomic valenz-charges read in
  non local Contribution for L=           0  read in
    real space projection operators read in
  non local Contribution for L=           0  read in
    real space projection operators read in
  non local Contribution for L=           1  read in
    real space projection operators read in
  non local Contribution for L=           1  read in
    real space projection operators read in
  non local Contribution for L=           2  read in
    real space projection operators read in
    PAW grid and wavefunctions read in
 
   number of l-projection  operators is LMAX  =           5
   number of lm-projection operators is LMMAX =          13
 

 ----------------------------------------------------------------------------- 
|                                                                             |
|  ADVICE TO THIS USER RUNNING 'VASP/VAMP'   (HEAR YOUR MASTER'S VOICE ...):  |
|                                                                             |
|      You enforced a specific xc-type in the INCAR file,                     |
|      a different type was found on the POTCAR file                          |
|          I HOPE YOU KNOW, WHAT YOU ARE  DOING                               |
|                                                                             |
 ----------------------------------------------------------------------------- 

  PAW_PBE O 08Apr2002                   :
 energy of atom  1       EATOM= -432.3788
 kinetic energy error for atom=    0.1156 (will be added to EATOM!!)
  PAW_PBE Mg 13Apr2007                  :
 energy of atom  2       EATOM=  -23.0369
 kinetic energy error for atom=    0.0001 (will be added to EATOM!!)
 
 
 POSCAR: Mg1 O1                                  
  positions in direct lattice
  velocities in cartesian coordinates
 exchange correlation table for  LEXCH =       14
   RHO(1)=    0.500       N(1)  =     2000
   RHO(2)=  100.500       N(2)  =     4000
 


--------------------------------------------------------------------------------------------------------


 ion  position               nearest neighbor table
   1  0.500  0.500  0.500-   2 2.08   2 2.08   2 2.08   2 2.08   2 2.08   2 2.08
   2  0.000  0.000  0.000-   1 2.08   1 2.08   1 2.08   1 2.08   1 2.08   1 2.08
 
  LATTYP: Found a face centered cubic cell.
 ALAT       =     4.1660165685
  
  Lattice vectors:
  
 A1 = (   2.5511538368,   0.0000000000,   1.4729092831)
 A2 = (   0.8503846123,   2.4052511513,   1.4729092831)
 A3 = (   0.0000000000,   0.0000000000,   2.9458185661)


Analysis of symmetry for initial positions (statically):
=====================================================================
 Subroutine PRICEL returns:
 Original cell was already a primitive cell.
 

 Routine SETGRP: Setting up the symmetry group for a 
 face centered cubic supercell.


 Subroutine GETGRP returns: Found 48 space group operations
 (whereof 48 operations were pure point group operations)
 out of a pool of 48 trial point group operations.


The static configuration has the point symmetry O_h .


Analysis of symmetry for dynamics (positions and initial velocities):
=====================================================================
 Subroutine PRICEL returns:
 Original cell was already a primitive cell.
 

 Routine SETGRP: Setting up the symmetry group for a 
 face centered cubic supercell.


 Subroutine GETGRP returns: Found 48 space group operations
 (whereof 48 operations were pure point group operations)
 out of a pool of 48 trial point group operations.


The dynamic configuration has the point symmetry O_h .


 Subroutine INISYM returns: Found 48 space group operations
 (whereof 48 operations are pure point group operations),
 and found     1 'primitive' translations

 
 
 KPOINTS: k-point mesh generated by kpt_generator.

Automatic generation of k-mesh.
Space group operators:
 irot       det(A)        alpha          n_x          n_y          n_z        tau_x        tau_y        tau_z
    1     1.000000     0.000000     1.000000     0.000000     0.000000     0.000000     0.000000     0.000000
    2    -1.000000     0.000000     1.000000     0.000000     0.000000     0.000000     0.000000     0.000000
    3     1.000000   120.000000    -0.471404    -0.333333    -0.816497     0.000000     0.000000     0.000000
    4    -1.000000   120.000000    -0.471404    -0.333333    -0.816497     0.000000     0.000000     0.000000
    5     1.000000   120.000000     0.471405     0.333333     0.816497     0.000000     0.000000     0.000000
    6    -1.000000   120.000000     0.471405     0.333333     0.816497     0.000000     0.000000     0.000000
    7     1.000000    90.000000    -0.816497    -0.577350    -0.000000     0.000000     0.000000     0.000000
    8    -1.000000    90.000000    -0.816497    -0.577350    -0.000000     0.000000     0.000000     0.000000
    9     1.000000   180.000000     0.866025    -0.000000     0.500000     0.000000     0.000000     0.000000
   10    -1.000000   180.000000     0.866025    -0.000000     0.500000     0.000000     0.000000     0.000000
   11     1.000000    90.000000     0.408248    -0.577350     0.707107     0.000000     0.000000     0.000000
   12    -1.000000    90.000000     0.408248    -0.577350     0.707107     0.000000     0.000000     0.000000
   13     1.000000   180.000000     0.816497     0.577350     0.000000     0.000000     0.000000     0.000000
   14    -1.000000   180.000000     0.816497     0.577350     0.000000     0.000000     0.000000     0.000000
   15     1.000000   120.000000     0.942809    -0.333333     0.000000     0.000000     0.000000     0.000000
   16    -1.000000   120.000000     0.942809    -0.333333     0.000000     0.000000     0.000000     0.000000
   17     1.000000   120.000000    -0.000000    -1.000000     0.000000     0.000000     0.000000     0.000000
   18    -1.000000   120.000000    -0.000000    -1.000000     0.000000     0.000000     0.000000     0.000000
   19     1.000000    90.000000     0.816497     0.577350    -0.000000     0.000000     0.000000     0.000000
   20    -1.000000    90.000000     0.816497     0.577350    -0.000000     0.000000     0.000000     0.000000
   21     1.000000    90.000000     0.408248    -0.577350    -0.707107     0.000000     0.000000     0.000000
   22    -1.000000    90.000000     0.408248    -0.577350    -0.707107     0.000000     0.000000     0.000000
   23     1.000000   180.000000     0.288675     0.816497     0.500000     0.000000     0.000000     0.000000
   24    -1.000000   180.000000     0.288675     0.816497     0.500000     0.000000     0.000000     0.000000
   25     1.000000   120.000000     0.000000     1.000000     0.000000     0.000000     0.000000     0.000000
   26    -1.000000   120.000000     0.000000     1.000000     0.000000     0.000000     0.000000     0.000000
   27     1.000000   120.000000     0.471404     0.333333    -0.816497     0.000000     0.000000     0.000000
   28    -1.000000   120.000000     0.471404     0.333333    -0.816497     0.000000     0.000000     0.000000
   29     1.000000   180.000000    -0.408248     0.577350     0.707107     0.000000     0.000000     0.000000
   30    -1.000000   180.000000    -0.408248     0.577350     0.707107     0.000000     0.000000     0.000000
   31     1.000000    90.000000    -0.408248     0.577350    -0.707107     0.000000     0.000000     0.000000
   32    -1.000000    90.000000    -0.408248     0.577350    -0.707107     0.000000     0.000000     0.000000
   33     1.000000   180.000000     0.000000     0.000000     1.000000     0.000000     0.000000     0.000000
   34    -1.000000   180.000000     0.000000     0.000000     1.000000     0.000000     0.000000     0.000000
   35     1.000000    90.000000    -0.408248     0.577350     0.707107     0.000000     0.000000     0.000000
   36    -1.000000    90.000000    -0.408248     0.577350     0.707107     0.000000     0.000000     0.000000
   37     1.000000   120.000000    -0.942809     0.333333     0.000000     0.000000     0.000000     0.000000
   38    -1.000000   120.000000    -0.942809     0.333333     0.000000     0.000000     0.000000     0.000000
   39     1.000000   180.000000    -0.408248     0.577350    -0.707107     0.000000     0.000000     0.000000
   40    -1.000000   180.000000    -0.408248     0.577350    -0.707107     0.000000     0.000000     0.000000
   41     1.000000   120.000000    -0.471405    -0.333333     0.816497     0.000000     0.000000     0.000000
   42    -1.000000   120.000000    -0.471405    -0.333333     0.816497     0.000000     0.000000     0.000000
   43     1.000000   180.000000     0.288675     0.816497    -0.500000     0.000000     0.000000     0.000000
   44    -1.000000   180.000000     0.288675     0.816497    -0.500000     0.000000     0.000000     0.000000
   45     1.000000   180.000000     0.577350    -0.816497     0.000000     0.000000     0.000000     0.000000
   46    -1.000000   180.000000     0.577350    -0.816497     0.000000     0.000000     0.000000     0.000000
   47     1.000000   180.000000     0.866025    -0.000000    -0.500000     0.000000     0.000000     0.000000
   48    -1.000000   180.000000     0.866025    -0.000000    -0.500000     0.000000     0.000000     0.000000
 
 Subroutine IBZKPT returns following result:
 ===========================================
 
 Found     29 irreducible k-points:
 
 Following reciprocal coordinates:
            Coordinates               Weight
  0.000000  0.000000  0.000000      1.000000
  0.125000  0.000000  0.000000      8.000000
  0.250000  0.000000  0.000000      8.000000
  0.375000  0.000000  0.000000      8.000000
  0.500000  0.000000  0.000000      4.000000
  0.125000  0.125000  0.000000      6.000000
  0.250000  0.125000  0.000000     24.000000
  0.375000  0.125000  0.000000     24.000000
  0.500000  0.125000  0.000000     24.000000
 -0.375000  0.125000  0.000000     24.000000
 -0.250000  0.125000  0.000000     24.000000
 -0.125000  0.125000  0.000000     12.000000
  0.250000  0.250000  0.000000      6.000000
  0.375000  0.250000  0.000000     24.000000
  0.500000  0.250000  0.000000     24.000000
 -0.375000  0.250000  0.000000     24.000000
 -0.250000  0.250000  0.000000     12.000000
  0.375000  0.375000  0.000000      6.000000
  0.500000  0.375000  0.000000     24.000000
 -0.375000  0.375000  0.000000     12.000000
  0.500000  0.500000  0.000000      3.000000
  0.375000  0.250000  0.125000     24.000000
  0.500000  0.250000  0.125000     48.000000
 -0.375000  0.250000  0.125000     24.000000
  0.500000  0.375000  0.125000     24.000000
 -0.375000  0.375000  0.125000     48.000000
 -0.250000  0.375000  0.125000     24.000000
 -0.375000  0.500000  0.125000     12.000000
 -0.250000  0.500000  0.250000      6.000000
 
 Following cartesian coordinates:
            Coordinates               Weight
  0.000000  0.000000  0.000000      1.000000
  0.048997 -0.017323  0.000000      8.000000
  0.097995 -0.034646  0.000000      8.000000
  0.146992 -0.051970  0.000000      8.000000
  0.195990 -0.069293  0.000000      4.000000
  0.048997  0.034646  0.000000      6.000000
  0.097995  0.017323  0.000000     24.000000
  0.146992 -0.000000  0.000000     24.000000
  0.195990 -0.017323  0.000000     24.000000
 -0.146992  0.103939  0.000000     24.000000
 -0.097995  0.086616  0.000000     24.000000
 -0.048997  0.069293  0.000000     12.000000
  0.097995  0.069293  0.000000      6.000000
  0.146992  0.051970  0.000000     24.000000
  0.195990  0.034646  0.000000     24.000000
 -0.146992  0.155909  0.000000     24.000000
 -0.097995  0.138586  0.000000     12.000000
  0.146992  0.103939  0.000000      6.000000
  0.195990  0.086616  0.000000     24.000000
 -0.146992  0.207878  0.000000     12.000000
  0.195990  0.138586  0.000000      3.000000
  0.122494  0.034646  0.042433     24.000000
  0.171491  0.017323  0.042433     48.000000
 -0.171491  0.138586  0.042433     24.000000
  0.171491  0.069293  0.042433     24.000000
 -0.171491  0.190555  0.042433     48.000000
 -0.122494  0.173232  0.042433     24.000000
 -0.171491  0.242525  0.042433     12.000000
 -0.146992  0.207878  0.084866      6.000000
 


--------------------------------------------------------------------------------------------------------




 Dimension of arrays:
   k-points           NKPTS =     29   k-points in BZ     NKDIM =     29   number of bands    NBANDS=     16
   number of dos      NEDOS =    301   number of ions     NIONS =      2
   non local maximal  LDIM  =      5   non local SUM 2l+1 LMDIM =     13
   total plane-waves  NPLWV =   8000
   max r-space proj   IRMAX =      1   max aug-charges    IRDMAX=  18998
   dimension x,y,z NGX =    20 NGY =   20 NGZ =   20
   dimension x,y,z NGXF=    40 NGYF=   40 NGZF=   40
   support grid    NGXF=    40 NGYF=   40 NGZF=   40
   ions per type =               1   1
 NGX,Y,Z   is equivalent  to a cutoff of  11.29, 11.29, 11.29 a.u.
 NGXF,Y,Z  is equivalent  to a cutoff of  22.57, 22.57, 22.57 a.u.


 I would recommend the setting:
   dimension x,y,z NGX =    19 NGY =   19 NGZ =   19
 SYSTEM =  unknown system                          
 POSCAR =  Mg1 O1                                  

 Startparameter for this run:
   NWRITE =      2    write-flag & timer
   PREC   = a         normal or accurate (medium, high low for compatibility)
   ISTART =      0    job   : 0-new  1-cont  2-samecut
   ICHARG =      2    charge: 1-file 2-atom 10-const
   ISPIN  =      1    spin polarized calculation?
   LNONCOLLINEAR =      F non collinear calculations
   LSORBIT =      F    spin-orbit coupling
   INIWAV =      1    electr: 0-lowe 1-rand  2-diag
   LASPH  =      T    aspherical Exc in radial PAW
   METAGGA=      F    non-selfconsistent MetaGGA calc.

 Electronic Relaxation 1
   ENCUT  =  400.0 eV  29.40 Ry    5.42 a.u.   4.80  4.80  4.80*2*pi/ulx,y,z
   ENINI  =  400.0     initial cutoff
   ENAUG  =  605.4 eV  augmentation charge cutoff
   NELM   =    100;   NELMIN=  4; NELMDL=  0     # of ELM steps 
   EDIFF  = 0.1E-05   stopping-criterion for ELM
   LREAL  =      F    real-space projection
   NLSPLINE    = F    spline interpolate recip. space projectors
   LCOMPAT=      F    compatible to vasp.4.4
   GGA_COMPAT  = T    GGA compatible to vasp.4.4-vasp.4.6
   LMAXPAW     = -100 max onsite density
   LMAXMIX     =    2 max onsite mixed and CHGCAR
   VOSKOWN=      0    Vosko Wilk Nusair interpolation
   ROPT   =    0.00000   0.00000
 Ionic relaxation
   EDIFFG = -.5E-02   stopping-criterion for IOM
   NSW    =    100    number of steps for IOM
   NBLOCK =      1;   KBLOCK =    100    inner block; outer block 
   IBRION =      2    ionic relax: 0-MD 1-quasi-New 2-CG
   NFREE  =      1    steps in history (QN), initial steepest desc. (CG)
   ISIF   =      3    stress and relaxation
   IWAVPR =     11    prediction:  0-non 1-charg 2-wave 3-comb
   ISYM   =      2    0-nonsym 1-usesym 2-fastsym
   LCORR  =      T    Harris-Foulkes like correction to forces

   POTIM  = 0.5000    time-step for ionic-motion
   TEIN   =    0.0    initial temperature
   TEBEG  =    0.0;   TEEND  =   0.0 temperature during run
   SMASS  =  -3.00    Nose mass-parameter (am)
   estimated Nose-frequenzy (Omega)   =  0.10E-29 period in steps =****** mass=  -0.198E-27a.u.
   SCALEE = 1.0000    scale energy and forces
   NPACO  =    256;   APACO  = 16.0  distance and # of slots for P.C.
   PSTRESS=    0.0 pullay stress

  Mass of Ions in am
   POMASS =  16.00 24.30
  Ionic Valenz
   ZVAL   =   6.00  2.00
  Atomic Wigner-Seitz radii
   RWIGS  =  -1.00 -1.00
  virtual crystal weights 
   VCA    =   1.00  1.00
   NELECT =       8.0000    total number of electrons
   NUPDOWN=      -1.0000    fix difference up-down

 DOS related values:
   EMIN   =  10.00;   EMAX   =-10.00  energy-range for DOS
   EFERMI =   0.00
   ISMEAR =     0;   SIGMA  =   0.05  broadening in eV -4-tet -1-fermi 0-gaus

 Electronic relaxation 2 (details)
   IALGO  =     38    algorithm
   LDIAG  =      T    sub-space diagonalisation (order eigenvalues)
   LSUBROT=      F    optimize rotation matrix (better conditioning)
   TURBO    =      0    0=normal 1=particle mesh
   IRESTART =      0    0=no restart 2=restart with 2 vectors
   NREBOOT  =      0    no. of reboots
   NMIN     =      0    reboot dimension
   EREF     =   0.00    reference energy to select bands
   IMIX   =      4    mixing-type and parameters
     AMIX     =   0.40;   BMIX     =  1.00
     AMIX_MAG =   1.60;   BMIX_MAG =  1.00
     AMIN     =   0.10
     WC   =   100.;   INIMIX=   1;  MIXPRE=   1;  MAXMIX= -45

 Intra band minimization:
   WEIMIN = 0.0010     energy-eigenvalue tresh-hold
   EBREAK =  0.16E-07  absolut break condition
   DEPER  =   0.30     relativ break condition  

   TIME   =   0.40     timestep for ELM

  volume/ion in A,a.u.               =       9.04        60.99
  Fermi-wavevector in a.u.,A,eV,Ry     =   1.247586  2.357596 21.177069  1.556471
  Thomas-Fermi vector in A             =   2.381711
 
 Write flags
   LWAVE  =      F    write WAVECAR
   LCHARG =      F    write CHGCAR
   LVTOT  =      F    write LOCPOT, total local potential
   LVHAR  =      F    write LOCPOT, Hartree potential only
   LELF   =      F    write electronic localiz. function (ELF)
   LORBIT =     12    0 simple, 1 ext, 2 COOP (PROOUT)


 Dipole corrections
   LMONO  =      F    monopole corrections only (constant potential energy_shift)
   LDIPOL =      F    correct potential (dipole corrections)
   IDIPOL =      0    1-x, 2-y, 3-z, 4-all directions 
   EPSILON=  1.0000000 bulk dielectric constant

 Exchange correlation treatment:
   GGA     =    PS    GGA type
   LEXCH   =    14    internal setting for exchange type
   VOSKOWN=      0    Vosko Wilk Nusair interpolation
   LHFCALC =     F    Hartree Fock is set to
   LHFONE  =     F    Hartree Fock one center treatment
   AEXX    =    0.0000 exact exchange contribution

 Linear response parameters
   LEPSILON=     F    determine dielectric tensor
   LRPA    =     F    only Hartree local field effects (RPA)
   LNABLA  =     F    use nabla operator in PAW spheres
   LVEL    =     F    velocity operator in full k-point grid
   LINTERFAST=   F  fast interpolation
   KINTER  =     0    interpolate to denser k-point grid
   CSHIFT  =0.1000    complex energy_shift for real part using Kramers Kronig
   OMEGAMAX=  -1.0    maximum frequency
   DEG_THRESHOLD= 0.2000000E-02 threshold for treating states as degnerate
   RTIME   =    0.100 relaxation time in fs

 Orbital magnetization related:
   ORBITALMAG=     F  switch on orbital magnetization
   LCHIMAG   =     F  perturbation theory with respect to B field
   DQ        =  0.001000  dq finite difference perturbation B field



--------------------------------------------------------------------------------------------------------


 conjugate gradient relaxation of ions
 charge density and potential will be updated during run
 non-spin polarized calculation
 Variant of blocked Davidson
 Davidson routine will perform the subspace rotation
 perform sub-space diagonalisation
    after iterative eigenvector-optimisation
 modified Broyden-mixing scheme, WC =      100.0
 initial mixing is a Kerker type mixing with AMIX =  0.4000 and BMIX =      1.0000
 Hartree-type preconditioning will be used
 using additional bands           12
 reciprocal scheme for non local part
 use partial core corrections
 calculate Harris-corrections to forces 
   (improved forces if not selfconsistent)
 use gradient corrections 
 use of overlap-Matrix (Vanderbilt PP)
 Gauss-broadening in eV      SIGMA  =   0.05


--------------------------------------------------------------------------------------------------------


  energy-cutoff  :      400.00
  volume of cell :       18.08
      direct lattice vectors                 reciprocal lattice vectors
     2.551153837  0.000000000  1.472909283     0.391979498 -0.138585666  0.000000000
     0.850384612  2.405251151  1.472909283     0.000000000  0.415756999  0.000000000
     0.000000000  0.000000000  2.945818566    -0.195989749 -0.138585666  0.339464219

  length of vectors
     2.945818673  2.945818875  2.945818566     0.415757037  0.415756999  0.415757050


 
 k-points in units of 2pi/SCALE and weight: k-point mesh generated by kpt_generator.
   0.00000000  0.00000000  0.00000000       0.002
   0.04899744 -0.01732321  0.00000000       0.016
   0.09799487 -0.03464642  0.00000000       0.016
   0.14699231 -0.05196962  0.00000000       0.016
   0.19598975 -0.06929283  0.00000000       0.008
   0.04899744  0.03464642  0.00000000       0.012
   0.09799487  0.01732321  0.00000000       0.047
   0.14699231 -0.00000000  0.00000000       0.047
   0.19598975 -0.01732321  0.00000000       0.047
  -0.14699231  0.10393925  0.00000000       0.047
  -0.09799487  0.08661604  0.00000000       0.047
  -0.04899744  0.06929283  0.00000000       0.023
   0.09799487  0.06929283  0.00000000       0.012
   0.14699231  0.05196962  0.00000000       0.047
   0.19598975  0.03464642  0.00000000       0.047
  -0.14699231  0.15590887  0.00000000       0.047
  -0.09799487  0.13858567  0.00000000       0.023
   0.14699231  0.10393925  0.00000000       0.012
   0.19598975  0.08661604  0.00000000       0.047
  -0.14699231  0.20787850  0.00000000       0.023
   0.19598975  0.13858567  0.00000000       0.006
   0.12249359  0.03464642  0.04243303       0.047
   0.17149103  0.01732321  0.04243303       0.094
  -0.17149103  0.13858567  0.04243303       0.047
   0.17149103  0.06929283  0.04243303       0.047
  -0.17149103  0.19055529  0.04243303       0.094
  -0.12249359  0.17323208  0.04243303       0.047
  -0.17149103  0.24252492  0.04243303       0.023
  -0.14699231  0.20787850  0.08486605       0.012
 
 k-points in reciprocal lattice and weights: k-point mesh generated by kpt_generator.
   0.00000000  0.00000000  0.00000000       0.002
   0.12500000  0.00000000  0.00000000       0.016
   0.25000000  0.00000000  0.00000000       0.016
   0.37500000  0.00000000  0.00000000       0.016
   0.50000000  0.00000000  0.00000000       0.008
   0.12500000  0.12500000  0.00000000       0.012
   0.25000000  0.12500000  0.00000000       0.047
   0.37500000  0.12500000  0.00000000       0.047
   0.50000000  0.12500000  0.00000000       0.047
  -0.37500000  0.12500000  0.00000000       0.047
  -0.25000000  0.12500000  0.00000000       0.047
  -0.12500000  0.12500000  0.00000000       0.023
   0.25000000  0.25000000  0.00000000       0.012
   0.37500000  0.25000000  0.00000000       0.047
   0.50000000  0.25000000  0.00000000       0.047
  -0.37500000  0.25000000  0.00000000       0.047
  -0.25000000  0.25000000  0.00000000       0.023
   0.37500000  0.37500000  0.00000000       0.012
   0.50000000  0.37500000  0.00000000       0.047
  -0.37500000  0.37500000  0.00000000       0.023
   0.50000000  0.50000000  0.00000000       0.006
   0.37500000  0.25000000  0.12500000       0.047
   0.50000000  0.25000000  0.12500000       0.094
  -0.37500000  0.25000000  0.12500000       0.047
   0.50000000  0.37500000  0.12500000       0.047
  -0.37500000  0.37500000  0.12500000       0.094
  -0.25000000  0.37500000  0.12500000       0.047
  -0.37500000  0.50000000  0.12500000       0.023
  -0.25000000  0.50000000  0.25000000       0.012
 
 position of ions in fractional coordinates (direct lattice) 
   0.50000000  0.50000000  0.50000000
   0.00000000  0.00000000  0.00000000
 
 position of ions in cartesian coordinates  (Angst):
   1.70076922  1.20262558  2.94581857
   0.00000000  0.00000000  0.00000000
 


--------------------------------------------------------------------------------------------------------


 k-point  1 :   0.0000 0.0000 0.0000  plane waves:     331
 k-point  2 :   0.1250 0.0000 0.0000  plane waves:     329
 k-point  3 :   0.2500 0.0000 0.0000  plane waves:     323
 k-point  4 :   0.3750 0.0000 0.0000  plane waves:     326
 k-point  5 :   0.5000 0.0000 0.0000  plane waves:     332
 k-point  6 :   0.1250 0.1250 0.0000  plane waves:     331
 k-point  7 :   0.2500 0.1250 0.0000  plane waves:     326
 k-point  8 :   0.3750 0.1250 0.0000  plane waves:     328
 k-point  9 :   0.5000 0.1250 0.0000  plane waves:     331
 k-point 10 :  -0.3750 0.1250 0.0000  plane waves:     333
 k-point 11 :  -0.2500 0.1250 0.0000  plane waves:     326
 k-point 12 :  -0.1250 0.1250 0.0000  plane waves:     327
 k-point 13 :   0.2500 0.2500 0.0000  plane waves:     311
 k-point 14 :   0.3750 0.2500 0.0000  plane waves:     327
 k-point 15 :   0.5000 0.2500 0.0000  plane waves:     327
 k-point 16 :  -0.3750 0.2500 0.0000  plane waves:     331
 k-point 17 :  -0.2500 0.2500 0.0000  plane waves:     327
 k-point 18 :   0.3750 0.3750 0.0000  plane waves:     323
 k-point 19 :   0.5000 0.3750 0.0000  plane waves:     328
 k-point 20 :  -0.3750 0.3750 0.0000  plane waves:     337
 k-point 21 :   0.5000 0.5000 0.0000  plane waves:     342
 k-point 22 :   0.3750 0.2500 0.1250  plane waves:     324
 k-point 23 :   0.5000 0.2500 0.1250  plane waves:     328
 k-point 24 :  -0.3750 0.2500 0.1250  plane waves:     334
 k-point 25 :   0.5000 0.3750 0.1250  plane waves:     327
 k-point 26 :  -0.3750 0.3750 0.1250  plane waves:     330
 k-point 27 :  -0.2500 0.3750 0.1250  plane waves:     328
 k-point 28 :  -0.3750 0.5000 0.1250  plane waves:     332
 k-point 29 :  -0.2500 0.5000 0.2500  plane waves:     328

 maximum and minimum number of plane-waves per node :       342      311

 maximum number of plane-waves:       342
 maximum index in each direction: 
   IXMAX=    5   IYMAX=    4   IZMAX=    4
   IXMIN=   -5   IYMIN=   -5   IZMIN=   -5

 WARNING: aliasing errors must be expected set NGX to  22 to avoid them
 NGY is ok and might be reduce to  20
 NGZ is ok and might be reduce to  20
 aliasing errors are usually negligible using standard VASP settings
 and one can safely disregard these warnings

 serial   3D FFT for wavefunctions
 parallel 3D FFT for charge:
    minimum data exchange during FFTs selected (reduces bandwidth)


 total amount of memory used by VASP on root node    33130. kBytes
========================================================================

   base      :      30000. kBytes
   nonl-proj :       2134. kBytes
   fftplans  :        198. kBytes
   grid      :        604. kBytes
   one-center:         16. kBytes
   wavefun   :        178. kBytes
 
     INWAV:  cpu time    0.0000: real time    0.0003
 Broyden mixing: mesh for mixing (old mesh)
   NGX =  9   NGY =  9   NGZ =  9
  (NGX  = 40   NGY  = 40   NGZ  = 40)
  gives a total of    729 points

 initial charge density was supplied:
 charge density of overlapping atoms calculated
 number of electron       8.0000000 magnetization 
 keeping initial charge density in first step


--------------------------------------------------------------------------------------------------------


 Maximum index for augmentation-charges         1522 (set IRDMAX)


--------------------------------------------------------------------------------------------------------


 First call to EWALD:  gamma=   0.675
 Maximum number of real-space cells 3x 3x 3
 Maximum number of reciprocal cells 3x 3x 3

 FEWALD executed in parallel
    FEWALD:  cpu time    0.0000: real time    0.0017


----------------------------------------- Iteration    1(   1)  ---------------------------------------


    POTLOK:  cpu time    0.0040: real time    0.0045
    SETDIJ:  cpu time    0.1920: real time    0.1929
     EDDAV:  cpu time    0.1240: real time    0.1232
       DOS:  cpu time    0.0000: real time    0.0001
    --------------------------------------------
      LOOP:  cpu time    0.3240: real time    0.3244

 eigenvalue-minimisations  :  1152
 total energy-change (2. order) :-0.6051268E+01  (-0.4370444E+03)
 number of electron       8.0000000 magnetization 
 augmentation part        8.0000000 magnetization 

 Free energy of the ion-electron system (eV)
  ---------------------------------------------------
  alpha Z        PSCENC =        20.20883074
  Ewald energy   TEWEN  =      -362.15019870
  -Hartree energ DENC   =      -119.19598721
  -exchange      EXHF   =         0.00000000
  -V(xc)+E(xc)   XCENC  =       -18.79551731
  PAW double counting   =       410.34041496     -360.87495974
  entropy T*S    EENTRO =        -0.00000000
  eigenvalues    EBANDS =       -28.90375598
  atomic energy  EATOM  =       453.31990516
  Solvation  Ediel_sol  =         0.00000000
  ---------------------------------------------------
  free energy    TOTEN  =        -6.05126806 eV

  energy without entropy =       -6.05126806  energy(sigma->0) =       -6.05126806


--------------------------------------------------------------------------------------------------------




----------------------------------------- Iteration    1(   2)  ---------------------------------------


     EDDAV:  cpu time    0.1480: real time    0.1501
       DOS:  cpu time    0.0000: real time    0.0001
    --------------------------------------------
      LOOP:  cpu time    0.1480: real time    0.1548

 eigenvalue-minimisations  :  1328
 total energy-change (2. order) :-0.7822884E+01  (-0.7822884E+01)
 number of electron       8.0000000 magnetization 
 augmentation part        8.0000000 magnetization 

 Free energy of the ion-electron system (eV)
  ---------------------------------------------------
  alpha Z        PSCENC =        20.20883074
  Ewald energy   TEWEN  =      -362.15019870
  -Hartree energ DENC   =      -119.19598721
  -exchange      EXHF   =         0.00000000
  -V(xc)+E(xc)   XCENC  =       -18.79551731
  PAW double counting   =       410.34041496     -360.87495974
  entropy T*S    EENTRO =        -0.00000000
  eigenvalues    EBANDS =       -36.72663976
  atomic energy  EATOM  =       453.31990516
  Solvation  Ediel_sol  =         0.00000000
  ---------------------------------------------------
  free energy    TOTEN  =       -13.87415184 eV

  energy without entropy =      -13.87415184  energy(sigma->0) =      -13.87415184


--------------------------------------------------------------------------------------------------------




----------------------------------------- Iteration    1(   3)  ---------------------------------------


     EDDAV:  cpu time    0.1160: real time    0.1142
       DOS:  cpu time    0.0000: real time    0.0002
    --------------------------------------------
      LOOP:  cpu time    0.1160: real time    0.1177

 eigenvalue-minimisations  :  1040
 total energy-change (2. order) :-0.1375145E-01  (-0.1375145E-01)
 number of electron       8.0000000 magnetization 
 augmentation part        8.0000000 magnetization 

 Free energy of the ion-electron system (eV)
  ---------------------------------------------------
  alpha Z        PSCENC =        20.20883074
  Ewald energy   TEWEN  =      -362.15019870
  -Hartree energ DENC   =      -119.19598721
  -exchange      EXHF   =         0.00000000
  -V(xc)+E(xc)   XCENC  =       -18.79551731
  PAW double counting   =       410.34041496     -360.87495974
  entropy T*S    EENTRO =        -0.00000000
  eigenvalues    EBANDS =       -36.74039121
  atomic energy  EATOM  =       453.31990516
  Solvation  Ediel_sol  =         0.00000000
  ---------------------------------------------------
  free energy    TOTEN  =       -13.88790329 eV

  energy without entropy =      -13.88790329  energy(sigma->0) =      -13.88790329


--------------------------------------------------------------------------------------------------------




----------------------------------------- Iteration    1(   4)  ---------------------------------------


     EDDAV:  cpu time    0.1960: real time    0.1939
       DOS:  cpu time    0.0000: real time    0.0001
    --------------------------------------------
      LOOP:  cpu time    0.1960: real time    0.1973

 eigenvalue-minimisations  :  1552
 total energy-change (2. order) :-0.8483806E-05  (-0.8483806E-05)
 number of electron       8.0000000 magnetization 
 augmentation part        8.0000000 magnetization 

 Free energy of the ion-electron system (eV)
  ---------------------------------------------------
  alpha Z        PSCENC =        20.20883074
  Ewald energy   TEWEN  =      -362.15019870
  -Hartree energ DENC   =      -119.19598721
  -exchange      EXHF   =         0.00000000
  -V(xc)+E(xc)   XCENC  =       -18.79551731
  PAW double counting   =       410.34041496     -360.87495974
  entropy T*S    EENTRO =        -0.00000000
  eigenvalues    EBANDS =       -36.74039969
  atomic energy  EATOM  =       453.31990516
  Solvation  Ediel_sol  =         0.00000000
  ---------------------------------------------------
  free energy    TOTEN  =       -13.88791178 eV

  energy without entropy =      -13.88791178  energy(sigma->0) =      -13.88791178


--------------------------------------------------------------------------------------------------------




----------------------------------------- Iteration    1(   5)  ---------------------------------------


     EDDAV:  cpu time    0.1120: real time    0.1138
       DOS:  cpu time    0.0000: real time    0.0001
    CHARGE:  cpu time    0.0080: real time    0.0068
    MIXING:  cpu time    0.0000: real time    0.0002
    --------------------------------------------
      LOOP:  cpu time    0.1200: real time    0.1241

 eigenvalue-minimisations  :  1072
 total energy-change (2. order) :-0.1439275E-09  (-0.1441670E-09)
 number of electron       7.9999996 magnetization 
 augmentation part        0.7903525 magnetization 

 Broyden mixing:
  rms(total) = 0.65786E+00    rms(broyden)= 0.65757E+00
  rms(prec ) = 0.26041E+01
  weight for this iteration     100.00

 Free energy of the ion-electron system (eV)
  ---------------------------------------------------
  alpha Z        PSCENC =        20.20883074
  Ewald energy   TEWEN  =      -362.15019870
  -Hartree energ DENC   =      -119.19598721
  -exchange      EXHF   =         0.00000000
  -V(xc)+E(xc)   XCENC  =       -18.79551731
  PAW double counting   =       410.34041496     -360.87495974
  entropy T*S    EENTRO =        -0.00000000
  eigenvalues    EBANDS =       -36.74039969
  atomic energy  EATOM  =       453.31990516
  Solvation  Ediel_sol  =         0.00000000
  ---------------------------------------------------
  free energy    TOTEN  =       -13.88791178 eV

  energy without entropy =      -13.88791178  energy(sigma->0) =      -13.88791178


--------------------------------------------------------------------------------------------------------




----------------------------------------- Iteration    1(   6)  ---------------------------------------


    POTLOK:  cpu time    0.0040: real time    0.0041
    SETDIJ:  cpu time    0.1920: real time    0.1925
     EDDAV:  cpu time    0.0960: real time    0.0973
       DOS:  cpu time    0.0040: real time    0.0001
    CHARGE:  cpu time    0.0040: real time    0.0058
    MIXING:  cpu time    0.0000: real time    0.0002
    --------------------------------------------
      LOOP:  cpu time    0.3000: real time    0.3031

 eigenvalue-minimisations  :   976
 total energy-change (2. order) : 0.1326453E+01  (-0.8112617E+00)
 number of electron       7.9999997 magnetization 
 augmentation part        0.6654197 magnetization 

 Broyden mixing:
  rms(total) = 0.21681E+00    rms(broyden)= 0.21629E+00
  rms(prec ) = 0.54914E+00
  weight for this iteration     100.00

 eigenvalues of (default mixing * dielectric matrix)
  average eigenvalue GAMMA=   0.8719
  0.8719

 Free energy of the ion-electron system (eV)
  ---------------------------------------------------
  alpha Z        PSCENC =        20.20883074
  Ewald energy   TEWEN  =      -362.15019870
  -Hartree energ DENC   =      -135.93737327
  -exchange      EXHF   =         0.00000000
  -V(xc)+E(xc)   XCENC  =       -17.57826270
  PAW double counting   =       486.81992103     -437.66374091
  entropy T*S    EENTRO =        -0.00000000
  eigenvalues    EBANDS =       -19.58054017
  atomic energy  EATOM  =       453.31990516
  Solvation  Ediel_sol  =         0.00000000
  ---------------------------------------------------
  free energy    TOTEN  =       -12.56145882 eV

  energy without entropy =      -12.56145882  energy(sigma->0) =      -12.56145882


--------------------------------------------------------------------------------------------------------




----------------------------------------- Iteration    1(   7)  ---------------------------------------


    POTLOK:  cpu time    0.0040: real time    0.0037
    SETDIJ:  cpu time    0.1920: real time    0.1922
     EDDAV:  cpu time    0.1080: real time    0.1090
       DOS:  cpu time    0.0000: real time    0.0001
    CHARGE:  cpu time    0.0080: real time    0.0063
    MIXING:  cpu time    0.0000: real time    0.0002
    --------------------------------------------
      LOOP:  cpu time    0.3120: real time    0.3149

 eigenvalue-minimisations  :  1056
 total energy-change (2. order) : 0.2500381E-01  (-0.3083219E-02)
 number of electron       7.9999997 magnetization 
 augmentation part        0.6682013 magnetization 

 Broyden mixing:
  rms(total) = 0.13010E+00    rms(broyden)= 0.13008E+00
  rms(prec ) = 0.34058E+00
  weight for this iteration     100.00

 eigenvalues of (default mixing * dielectric matrix)
  average eigenvalue GAMMA=   1.8098
  0.9823  2.6374

 Free energy of the ion-electron system (eV)
  ---------------------------------------------------
  alpha Z        PSCENC =        20.20883074
  Ewald energy   TEWEN  =      -362.15019870
  -Hartree energ DENC   =      -136.33236668
  -exchange      EXHF   =         0.00000000
  -V(xc)+E(xc)   XCENC  =       -17.51562715
  PAW double counting   =       516.33188613     -467.15240299
  entropy T*S    EENTRO =        -0.00000000
  eigenvalues    EBANDS =       -19.24648152
  atomic energy  EATOM  =       453.31990516
  Solvation  Ediel_sol  =         0.00000000
  ---------------------------------------------------
  free energy    TOTEN  =       -12.53645501 eV

  energy without entropy =      -12.53645501  energy(sigma->0) =      -12.53645501


--------------------------------------------------------------------------------------------------------




----------------------------------------- Iteration    1(   8)  ---------------------------------------


    POTLOK:  cpu time    0.0040: real time    0.0043
    SETDIJ:  cpu time    0.1920: real time    0.1923
     EDDAV:  cpu time    0.1280: real time    0.1259
       DOS:  cpu time    0.0000: real time    0.0001
    CHARGE:  cpu time    0.0040: real time    0.0058
    MIXING:  cpu time    0.0000: real time    0.0002
    --------------------------------------------
      LOOP:  cpu time    0.3280: real time    0.3318

 eigenvalue-minimisations  :  1168
 total energy-change (2. order) : 0.1408782E-01  (-0.1848202E-02)
 number of electron       7.9999997 magnetization 
 augmentation part        0.6690593 magnetization 

 Broyden mixing:
  rms(total) = 0.15294E-01    rms(broyden)= 0.15292E-01
  rms(prec ) = 0.30149E-01
  weight for this iteration     100.00

 eigenvalues of (default mixing * dielectric matrix)
  average eigenvalue GAMMA=   1.3733
  2.5663  0.9768  0.5768

 Free energy of the ion-electron system (eV)
  ---------------------------------------------------
  alpha Z        PSCENC =        20.20883074
  Ewald energy   TEWEN  =      -362.15019870
  -Hartree energ DENC   =      -137.61573562
  -exchange      EXHF   =         0.00000000
  -V(xc)+E(xc)   XCENC  =       -17.35171729
  PAW double counting   =       568.50770474     -519.31680367
  entropy T*S    EENTRO =        -0.00000000
  eigenvalues    EBANDS =       -18.12435257
  atomic energy  EATOM  =       453.31990516
  Solvation  Ediel_sol  =         0.00000000
  ---------------------------------------------------
  free energy    TOTEN  =       -12.52236719 eV

  energy without entropy =      -12.52236719  energy(sigma->0) =      -12.52236719


--------------------------------------------------------------------------------------------------------




----------------------------------------- Iteration    1(   9)  ---------------------------------------


    POTLOK:  cpu time    0.0040: real time    0.0035
    SETDIJ:  cpu time    0.1920: real time    0.1923
     EDDAV:  cpu time    0.1320: real time    0.1305
       DOS:  cpu time    0.0000: real time    0.0001
    CHARGE:  cpu time    0.0040: real time    0.0058
    MIXING:  cpu time    0.0000: real time    0.0002
    --------------------------------------------
      LOOP:  cpu time    0.3320: real time    0.3358

 eigenvalue-minimisations  :  1200
 total energy-change (2. order) : 0.8857745E-04  (-0.1141854E-04)
 number of electron       7.9999997 magnetization 
 augmentation part        0.6686194 magnetization 

 Broyden mixing:
  rms(total) = 0.10674E-01    rms(broyden)= 0.10674E-01
  rms(prec ) = 0.19829E-01
  weight for this iteration     100.00

 eigenvalues of (default mixing * dielectric matrix)
  average eigenvalue GAMMA=   1.7992
  0.9833  0.9833  2.7098  2.5205

 Free energy of the ion-electron system (eV)
  ---------------------------------------------------
  alpha Z        PSCENC =        20.20883074
  Ewald energy   TEWEN  =      -362.15019870
  -Hartree energ DENC   =      -137.64445064
  -exchange      EXHF   =         0.00000000
  -V(xc)+E(xc)   XCENC  =       -17.35028005
  PAW double counting   =       566.66705880     -517.47801929
  entropy T*S    EENTRO =        -0.00000000
  eigenvalues    EBANDS =       -18.09512464
  atomic energy  EATOM  =       453.31990516
  Solvation  Ediel_sol  =         0.00000000
  ---------------------------------------------------
  free energy    TOTEN  =       -12.52227862 eV

  energy without entropy =      -12.52227862  energy(sigma->0) =      -12.52227862


--------------------------------------------------------------------------------------------------------




----------------------------------------- Iteration    1(  10)  ---------------------------------------


    POTLOK:  cpu time    0.0000: real time    0.0035
    SETDIJ:  cpu time    0.1960: real time    0.1923
     EDDAV:  cpu time    0.1040: real time    0.1071
       DOS:  cpu time    0.0000: real time    0.0001
    CHARGE:  cpu time    0.0080: real time    0.0058
    MIXING:  cpu time    0.0000: real time    0.0002
    --------------------------------------------
      LOOP:  cpu time    0.3120: real time    0.3123

 eigenvalue-minimisations  :  1040
 total energy-change (2. order) :-0.1179235E-05  (-0.1805956E-04)
 number of electron       7.9999997 magnetization 
 augmentation part        0.6681259 magnetization 

 Broyden mixing:
  rms(total) = 0.45682E-03    rms(broyden)= 0.45097E-03
  rms(prec ) = 0.15321E-02
  weight for this iteration     100.00

 eigenvalues of (default mixing * dielectric matrix)
  average eigenvalue GAMMA=   1.6654
  2.7192  2.4722  0.9870  0.9870  1.1617

 Free energy of the ion-electron system (eV)
  ---------------------------------------------------
  alpha Z        PSCENC =        20.20883074
  Ewald energy   TEWEN  =      -362.15019870
  -Hartree energ DENC   =      -137.66396965
  -exchange      EXHF   =         0.00000000
  -V(xc)+E(xc)   XCENC  =       -17.34611973
  PAW double counting   =       560.06919247     -510.88519478
  entropy T*S    EENTRO =        -0.00000000
  eigenvalues    EBANDS =       -18.07472531
  atomic energy  EATOM  =       453.31990516
  Solvation  Ediel_sol  =         0.00000000
  ---------------------------------------------------
  free energy    TOTEN  =       -12.52227979 eV

  energy without entropy =      -12.52227979  energy(sigma->0) =      -12.52227979


--------------------------------------------------------------------------------------------------------




----------------------------------------- Iteration    1(  11)  ---------------------------------------


    POTLOK:  cpu time    0.0040: real time    0.0035
    SETDIJ:  cpu time    0.1920: real time    0.1924
     EDDAV:  cpu time    0.1400: real time    0.1446
       DOS:  cpu time    0.0000: real time    0.0004
    --------------------------------------------
      LOOP:  cpu time    0.3360: real time    0.3438

 eigenvalue-minimisations  :  1200
 total energy-change (2. order) : 0.1796570E-06  (-0.4705039E-06)
 number of electron       7.9999997 magnetization 
 augmentation part        0.6681259 magnetization 

 Free energy of the ion-electron system (eV)
  ---------------------------------------------------
  alpha Z        PSCENC =        20.20883074
  Ewald energy   TEWEN  =      -362.15019870
  -Hartree energ DENC   =      -137.67555688
  -exchange      EXHF   =         0.00000000
  -V(xc)+E(xc)   XCENC  =       -17.34527971
  PAW double counting   =       560.14927618     -510.96547700
  entropy T*S    EENTRO =        -0.00000000
  eigenvalues    EBANDS =       -18.06377941
  atomic energy  EATOM  =       453.31990516
  Solvation  Ediel_sol  =         0.00000000
  ---------------------------------------------------
  free energy    TOTEN  =       -12.52227962 eV

  energy without entropy =      -12.52227962  energy(sigma->0) =      -12.52227962


--------------------------------------------------------------------------------------------------------




 average (electrostatic) potential at core
  the test charge radii are     0.7215  1.0714
  (the norm of the test charge is              1.0000)
       1 -69.3896       2 -34.3042
 
 
 
 E-fermi :   3.6316     XC(G=0): -11.4695     alpha+bet :-13.6019


 k-point     1 :       0.0000    0.0000    0.0000
  band No.  band energies     occupation 
      1     -14.0686      2.00000
      2       3.3035      2.00000
      3       3.3035      2.00000
      4       3.3035      2.00000
      5       8.2729      0.00000
      6      19.1379      0.00000
      7      19.1379      0.00000
      8      19.1379      0.00000
      9      23.0700      0.00000
     10      24.9908      0.00000
     11      24.9908      0.00000
     12      28.1408      0.00000
     13      28.1408      0.00000
     14      28.1408      0.00000
     15      42.5586      0.00000
     16      42.5586      0.00000

 k-point     2 :       0.1250    0.0000    0.0000
  band No.  band energies     occupation 
      1     -13.8923      2.00000
      2       2.3260      2.00000
      3       3.1938      2.00000
      4       3.1938      2.00000
      5       9.1886      0.00000
      6      17.4373      0.00000
      7      19.5196      0.00000
      8      19.5196      0.00000
      9      24.0803      0.00000
     10      24.0803      0.00000
     11      25.3787      0.00000
     12      28.2399      0.00000
     13      29.7462      0.00000
     14      29.7462      0.00000
     15      40.4611      0.00000
     16      42.3454      0.00000

 k-point     3 :       0.2500    0.0000    0.0000
  band No.  band energies     occupation 
      1     -13.4319      2.00000
      2       0.5533      2.00000
      3       2.9421      2.00000
      4       2.9421      2.00000
      5      10.6084      0.00000
      6      15.9537      0.00000
      7      20.0945      0.00000
      8      20.0945      0.00000
      9      23.6823      0.00000
     10      23.6823      0.00000
     11      25.7360      0.00000
     12      31.4889      0.00000
     13      32.4000      0.00000
     14      32.4000      0.00000
     15      38.2963      0.00000
     16      40.9090      0.00000

 k-point     4 :       0.3750    0.0000    0.0000
  band No.  band energies     occupation 
      1     -12.9092      2.00000
      2      -0.9317      2.00000
      3       2.7024      2.00000
      4       2.7024      2.00000
      5      11.2231      0.00000
      6      15.9199      0.00000
      7      19.9912      0.00000
      8      19.9912      0.00000
      9      24.9240      0.00000
     10      25.0078      0.00000
     11      25.0078      0.00000
     12      32.9507      0.00000
     13      34.4124      0.00000
     14      34.4124      0.00000
     15      37.8778      0.00000
     16      37.8778      0.00000

 k-point     5 :       0.5000    0.0000    0.0000
  band No.  band energies     occupation 
      1     -12.6690      2.00000
      2      -1.5170      2.00000
      3       2.6055      2.00000
      4       2.6055      2.00000
      5      11.2721      0.00000
      6      16.2212      0.00000
      7      19.8382      0.00000
      8      19.8382      0.00000
      9      24.5899      0.00000
     10      26.0946      0.00000
     11      26.0946      0.00000
     12      32.4089      0.00000
     13      34.6770      0.00000
     14      34.6770      0.00000
     15      36.5942      0.00000
     16      36.5942      0.00000

 k-point     6 :       0.1250    0.1250    0.0000
  band No.  band energies     occupation 
      1     -13.8366      2.00000
      2       2.2446      2.00000
      3       3.0582      2.00000
      4       3.0582      2.00000
      5       9.4907      0.00000
      6      16.8833      0.00000
      7      19.7143      0.00000
      8      19.7143      0.00000
      9      22.4195      0.00000
     10      25.4833      0.00000
     11      26.4029      0.00000
     12      28.8719      0.00000
     13      28.8719      0.00000
     14      30.2906      0.00000
     15      40.6056      0.00000
     16      41.7851      0.00000

 k-point     7 :       0.2500    0.1250    0.0000
  band No.  band energies     occupation 
      1     -13.4772      2.00000
      2       0.9653      2.00000
      3       2.7897      2.00000
      4       2.7984      2.00000
      5      10.7895      0.00000
      6      15.5555      0.00000
      7      19.8740      0.00000
      8      20.3021      0.00000
      9      21.5716      0.00000
     10      25.4506      0.00000
     11      27.7391      0.00000
     12      31.0022      0.00000
     13      31.0468      0.00000
     14      32.1242      0.00000
     15      38.5532      0.00000
     16      40.2668      0.00000

 k-point     8 :       0.3750    0.1250    0.0000
  band No.  band energies     occupation 
      1     -12.9778      2.00000
      2      -0.4332      2.00000
      3       2.3983      2.00000
      4       2.5684      2.00000
      5      11.7736      0.00000
      6      15.3528      0.00000
      7      18.9416      0.00000
      8      20.4373      0.00000
      9      22.8804      0.00000
     10      26.0974      0.00000
     11      27.1783      0.00000
     12      33.0714      0.00000
     13      33.9622      0.00000
     14      34.0765      0.00000
     15      36.8910      0.00000
     16      39.3142      0.00000

 k-point     9 :       0.5000    0.1250    0.0000
  band No.  band energies     occupation 
      1     -12.6342      2.00000
      2      -1.2383      2.00000
      3       2.0879      2.00000
      4       2.4913      2.00000
      5      11.9777      0.00000
      6      15.9730      0.00000
      7      18.4199      0.00000
      8      20.2602      0.00000
      9      24.3370      0.00000
     10      26.5865      0.00000
     11      26.8411      0.00000
     12      33.3184      0.00000
     13      34.0136      0.00000
     14      34.1841      0.00000
     15      36.9749      0.00000
     16      38.6935      0.00000

 k-point    10 :      -0.3750    0.1250    0.0000
  band No.  band energies     occupation 
      1     -12.7113      2.00000
      2      -1.0559      2.00000
      3       2.0226      2.00000
      4       2.6066      2.00000
      5      11.9898      0.00000
      6      15.8579      0.00000
      7      18.5337      0.00000
      8      20.3246      0.00000
      9      24.8508      0.00000
     10      25.1787      0.00000
     11      26.8677      0.00000
     12      33.5761      0.00000
     13      33.9434      0.00000
     14      35.2111      0.00000
     15      35.7499      0.00000
     16      39.7923      0.00000

 k-point    11 :      -0.2500    0.1250    0.0000
  band No.  band energies     occupation 
      1     -13.1434      2.00000
      2       0.0064      2.00000
      3       2.2588      2.00000
      4       2.8596      2.00000
      5      11.5671      0.00000
      6      15.4597      0.00000
      7      19.1535      0.00000
      8      20.7440      0.00000
      9      22.5607      0.00000
     10      24.8992      0.00000
     11      27.3282      0.00000
     12      32.0751      0.00000
     13      33.5531      0.00000
     14      34.2000      0.00000
     15      36.6427      0.00000
     16      40.1556      0.00000

 k-point    12 :      -0.1250    0.1250    0.0000
  band No.  band energies     occupation 
      1     -13.6233      2.00000
      2       1.3782      2.00000
      3       2.7496      2.00000
      4       3.1066      2.00000
      5      10.2739      0.00000
      6      16.2024      0.00000
      7      19.6610      0.00000
      8      20.2091      0.00000
      9      22.4654      0.00000
     10      24.3979      0.00000
     11      27.1895      0.00000
     12      29.5508      0.00000
     13      30.6887      0.00000
     14      31.8737      0.00000
     15      38.5336      0.00000
     16      41.4499      0.00000

 k-point    13 :       0.2500    0.2500    0.0000
  band No.  band energies     occupation 
      1     -13.2542      2.00000
      2       0.5785      2.00000
      3       2.5372      2.00000
      4       2.5372      2.00000
      5      11.6551      0.00000
      6      14.3718      0.00000
      7      19.0724      0.00000
      8      21.0120      0.00000
      9      21.0120      0.00000
     10      26.9192      0.00000
     11      31.0958      0.00000
     12      31.0958      0.00000
     13      31.7079      0.00000
     14      32.1489      0.00000
     15      39.6019      0.00000
     16      39.8618      0.00000

 k-point    14 :       0.3750    0.2500    0.0000
  band No.  band energies     occupation 
      1     -12.8740      2.00000
      2      -0.2087      2.00000
      3       2.0473      2.00000
      4       2.3039      2.00000
      5      12.7202      0.00000
      6      13.9200      0.00000
      7      17.7101      0.00000
      8      21.4073      0.00000
      9      21.8732      0.00000
     10      27.6997      0.00000
     11      31.1076      0.00000
     12      31.5806      0.00000
     13      33.3076      0.00000
     14      35.7735      0.00000
     15      37.5763      0.00000
     16      39.0564      0.00000

 k-point    15 :       0.5000    0.2500    0.0000
  band No.  band energies     occupation 
      1     -12.5420      2.00000
      2      -0.6828      2.00000
      3       1.2888      2.00000
      4       2.2340      2.00000
      5      13.0922      0.00000
      6      15.0749      0.00000
      7      16.8462      0.00000
      8      21.2697      0.00000
      9      22.4207      0.00000
     10      28.1027      0.00000
     11      30.5128      0.00000
     12      31.9078      0.00000
     13      33.1353      0.00000
     14      35.9489      0.00000
     15      37.9948      0.00000
     16      42.3586      0.00000

 k-point    16 :      -0.3750    0.2500    0.0000
  band No.  band energies     occupation 
      1     -12.4888      2.00000
      2      -0.6193      2.00000
      3       0.8049      2.00000
      4       2.3529      2.00000
      5      13.3538      0.00000
      6      15.6540      0.00000
      7      16.7358      0.00000
      8      21.0824      0.00000
      9      23.1415      0.00000
     10      26.0436      0.00000
     11      30.0466      0.00000
     12      32.6654      0.00000
     13      33.1009      0.00000
     14      36.4878      0.00000
     15      38.4511      0.00000
     16      41.3616      0.00000

 k-point    17 :      -0.2500    0.2500    0.0000
  band No.  band energies     occupation 
      1     -12.7516      2.00000
      2      -0.3361      2.00000
      3       1.1993      2.00000
      4       2.6084      2.00000
      5      12.9948      0.00000
      6      15.1705      0.00000
      7      17.6448      0.00000
      8      21.1368      0.00000
      9      23.4132      0.00000
     10      24.5715      0.00000
     11      29.5313      0.00000
     12      32.4103      0.00000
     13      33.7217      0.00000
     14      35.0713      0.00000
     15      37.8617      0.00000
     16      42.4828      0.00000

 k-point    18 :       0.3750    0.3750    0.0000
  band No.  band energies     occupation 
      1     -12.6505      2.00000
      2      -0.5819      2.00000
      3       2.0715      2.00000
      4       2.0715      2.00000
      5      12.8054      0.00000
      6      13.2811      0.00000
      7      16.9585      0.00000
      8      22.2056      0.00000
      9      22.2056      0.00000
     10      29.0478      0.00000
     11      30.2650      0.00000
     12      33.9080      0.00000
     13      33.9080      0.00000
     14      38.8904      0.00000
     15      38.8904      0.00000
     16      39.0943      0.00000

 k-point    19 :       0.5000    0.3750    0.0000
  band No.  band energies     occupation 
      1     -12.4389      2.00000
      2      -0.7555      2.00000
      3       1.4994      2.00000
      4       1.9908      2.00000
      5      12.8211      0.00000
      6      14.0253      0.00000
      7      16.5231      0.00000
      8      22.2690      0.00000
      9      22.2718      0.00000
     10      30.0542      0.00000
     11      30.1220      0.00000
     12      32.7576      0.00000
     13      33.6059      0.00000
     14      38.9248      0.00000
     15      39.3241      0.00000
     16      42.2513      0.00000

 k-point    20 :      -0.3750    0.3750    0.0000
  band No.  band energies     occupation 
      1     -12.3734      2.00000
      2      -0.3616      2.00000
      3       0.4647      2.00000
      4       2.1018      2.00000
      5      13.4074      0.00000
      6      15.3916      0.00000
      7      16.0305      0.00000
      8      21.7894      0.00000
      9      21.9226      0.00000
     10      28.6905      0.00000
     11      31.1264      0.00000
     12      31.9511      0.00000
     13      32.3412      0.00000
     14      39.3285      0.00000
     15      40.3758      0.00000
     16      41.5578      0.00000

 k-point    21 :       0.5000    0.5000    0.0000
  band No.  band energies     occupation 
      1     -12.3948      2.00000
      2      -0.9749      2.00000
      3       1.8930      2.00000
      4       1.8930      2.00000
      5      12.2785      0.00000
      6      13.5554      0.00000
      7      16.6500      0.00000
      8      22.6897      0.00000
      9      22.6897      0.00000
     10      29.1898      0.00000
     11      30.5076      0.00000
     12      34.5071      0.00000
     13      34.5071      0.00000
     14      38.0352      0.00000
     15      41.0573      0.00000
     16      41.0573      0.00000

 k-point    22 :       0.3750    0.2500    0.1250
  band No.  band energies     occupation 
      1     -13.1024      2.00000
      2       0.1753      2.00000
      3       2.0916      2.00000
      4       2.6537      2.00000
      5      12.0565      0.00000
      6      14.7681      0.00000
      7      18.6584      0.00000
      8      21.1320      0.00000
      9      21.5926      0.00000
     10      26.0157      0.00000
     11      29.5792      0.00000
     12      31.3232      0.00000
     13      32.7757      0.00000
     14      34.9554      0.00000
     15      36.6083      0.00000
     16      40.3533      0.00000

 k-point    23 :       0.5000    0.2500    0.1250
  band No.  band energies     occupation 
      1     -12.6905      2.00000
      2      -0.5610      2.00000
      3       1.4847      2.00000
      4       2.3870      2.00000
      5      12.9737      0.00000
      6      15.0707      0.00000
      7      17.5029      0.00000
      8      20.7498      0.00000
      9      23.2247      0.00000
     10      26.0196      0.00000
     11      29.7614      0.00000
     12      32.8065      0.00000
     13      33.1938      0.00000
     14      35.9918      0.00000
     15      36.6155      0.00000
     16      42.2377      0.00000

 k-point    24 :      -0.3750    0.2500    0.1250
  band No.  band energies     occupation 
      1     -12.5067      2.00000
      2      -0.8788      2.00000
      3       1.2662      2.00000
      4       2.2615      2.00000
      5      13.0856      0.00000
      6      15.7225      0.00000
      7      17.0649      0.00000
      8      20.5033      0.00000
      9      24.0861      0.00000
     10      25.7073      0.00000
     11      29.8802      0.00000
     12      32.5856      0.00000
     13      33.4041      0.00000
     14      35.3849      0.00000
     15      39.0387      0.00000
     16      39.6114      0.00000

 k-point    25 :       0.5000    0.3750    0.1250
  band No.  band energies     occupation 
      1     -12.5781      2.00000
      2      -0.5101      2.00000
      3       1.5247      2.00000
      4       1.9994      2.00000
      5      13.6434      0.00000
      6      13.8678      0.00000
      7      16.7310      0.00000
      8      21.1355      0.00000
      9      22.8404      0.00000
     10      28.0582      0.00000
     11      31.2718      0.00000
     12      32.4319      0.00000
     13      33.3515      0.00000
     14      37.4734      0.00000
     15      37.4892      0.00000
     16      41.8447      0.00000

 k-point    26 :      -0.3750    0.3750    0.1250
  band No.  band energies     occupation 
      1     -12.3938      2.00000
      2      -0.3687      2.00000
      3       0.6925      2.00000
      4       1.8591      2.00000
      5      13.9527      0.00000
      6      15.2737      0.00000
      7      16.0582      0.00000
      8      20.2489      0.00000
      9      23.6952      0.00000
     10      27.1269      0.00000
     11      30.9891      0.00000
     12      32.4177      0.00000
     13      33.6087      0.00000
     14      37.3977      0.00000
     15      40.1396      0.00000
     16      42.4746      0.00000

 k-point    27 :      -0.2500    0.3750    0.1250
  band No.  band energies     occupation 
      1     -12.4430      2.00000
      2      -0.2341      2.00000
      3       0.4689      2.00000
      4       2.0587      2.00000
      5      14.2004      0.00000
      6      15.1307      0.00000
      7      16.3718      0.00000
      8      20.2786      0.00000
      9      24.5432      0.00000
     10      25.0932      0.00000
     11      31.6752      0.00000
     12      32.3064      0.00000
     13      32.9526      0.00000
     14      37.9542      0.00000
     15      38.0678      0.00000
     16      43.0674      0.00000

 k-point    28 :      -0.3750    0.5000    0.1250
  band No.  band energies     occupation 
      1     -12.3628      2.00000
      2      -0.6614      2.00000
      3       1.3091      2.00000
      4       1.6682      2.00000
      5      13.2400      0.00000
      6      14.4623      0.00000
      7      16.2866      0.00000
      8      21.0162      0.00000
      9      23.3226      0.00000
     10      29.8482      0.00000
     11      29.9517      0.00000
     12      31.5496      0.00000
     13      34.8775      0.00000
     14      39.5957      0.00000
     15      40.2042      0.00000
     16      42.5622      0.00000

 k-point    29 :      -0.2500    0.5000    0.2500
  band No.  band energies     occupation 
      1     -12.3318      2.00000
      2       0.2007      2.00000
      3       0.2007      2.00000
      4       1.4548      2.00000
      5      15.0531      0.00000
      6      15.0531      0.00000
      7      15.8190      0.00000
      8      19.1488      0.00000
      9      25.5936      0.00000
     10      25.5936      0.00000
     11      30.1210      0.00000
     12      32.8024      0.00000
     13      35.4289      0.00000
     14      38.2986      0.00000
     15      41.4913      0.00000
     16      41.4913      0.00000


--------------------------------------------------------------------------------------------------------


 soft charge-density along one line, spin component           1
         0         1         2         3         4         5         6         7         8         9
 total charge-density along one line
 
 pseudopotential strength for first ion, spin component:           1
 12.072 -14.683   0.000   0.000   0.000  -0.000  -0.000  -0.000
-14.683  17.877  -0.000  -0.000  -0.000   0.000   0.000   0.000
  0.000  -0.000  -8.246  -0.000  -0.000   9.861   0.000   0.000
  0.000  -0.000  -0.000  -8.246  -0.000   0.000   9.861   0.000
  0.000  -0.000  -0.000  -0.000  -8.246   0.000   0.000   9.861
 -0.000   0.000   9.861   0.000   0.000 -11.627  -0.000  -0.000
 -0.000   0.000   0.000   9.861   0.000  -0.000 -11.627  -0.000
 -0.000   0.000   0.000   0.000   9.861  -0.000  -0.000 -11.627
 total augmentation occupancy for first ion, spin component:           1
  2.892   0.505   0.000   0.000   0.000   0.000   0.000   0.000
  0.505   0.103   0.000   0.000   0.000   0.000   0.000   0.000
  0.000   0.000   2.245   0.000   0.000   0.296   0.000   0.000
  0.000   0.000  -0.000   2.245   0.000  -0.000   0.296   0.000
  0.000   0.000   0.000   0.000   2.245   0.000   0.000   0.296
  0.000   0.000   0.296  -0.000   0.000   0.042   0.000   0.000
  0.000   0.000  -0.000   0.296   0.000  -0.000   0.042   0.000
  0.000   0.000   0.000   0.000   0.296   0.000   0.000   0.042


------------------------ aborting loop because EDIFF is reached ----------------------------------------


 


 total charge     
 
# of ion     s       p       d       tot
----------------------------------------
  1        1.563   3.574   0.000   5.137
  2        0.155   0.192   0.087   0.433
------------------------------------------------
tot        1.718   3.766   0.087   5.571
 
    CHARGE:  cpu time    0.0080: real time    0.0064
    FORLOC:  cpu time    0.0000: real time    0.0002
    FORNL :  cpu time    0.0040: real time    0.0050
    STRESS:  cpu time    0.0600: real time    0.0581
    FORCOR:  cpu time    0.0040: real time    0.0036
    FORHAR:  cpu time    0.0000: real time    0.0008
    MIXING:  cpu time    0.0000: real time    0.0003
    OFIELD:  cpu time    0.0000: real time    0.0000

  FORCE on cell =-STRESS in cart. coord.  units (eV):
  Direction    XX          YY          ZZ          XY          YZ          ZX
  --------------------------------------------------------------------------------------
  Alpha Z    20.20883    20.20883    20.20883
  Ewald    -120.71676  -120.71676  -120.71676    -0.00000    -0.00000    -0.00000
  Hartree    45.89019    45.89019    45.89019     0.00000     0.00000     0.00000
  E(xc)     -36.23577   -36.23577   -36.23577    -0.00000    -0.00000    -0.00000
  Local     -39.51097   -39.51099   -39.51091     0.00002     0.00003     0.00004
  n-local   -17.21498   -18.77340   -19.76414     0.59892     0.35256    -0.08946
  augment     6.87785     6.87786     6.87781    -0.00001    -0.00002    -0.00003
  Kinetic   134.76397   142.73620   148.70921     1.19706    -0.53520    -0.68066
  Fock        0.00000     0.00000     0.00000     0.00000     0.00000     0.00000
  -------------------------------------------------------------------------------------
  Total      -0.00102    -0.00102    -0.00102     0.00000    -0.00000    -0.00000
  in kB      -0.08999    -0.08999    -0.08999     0.00000    -0.00000    -0.00000
  external pressure =       -0.09 kB  Pullay stress =        0.00 kB


 VOLUME and BASIS-vectors are now :
 -----------------------------------------------------------------------------
  energy-cutoff  :      400.00
  volume of cell :       18.08
      direct lattice vectors                 reciprocal lattice vectors
     2.551153837  0.000000000  1.472909283     0.391979498 -0.138585666  0.000000000
     0.850384612  2.405251151  1.472909283     0.000000000  0.415756999  0.000000000
     0.000000000  0.000000000  2.945818566    -0.195989749 -0.138585666  0.339464219

  length of vectors
     2.945818673  2.945818875  2.945818566     0.415757037  0.415756999  0.415757050


 FORCES acting on ions
    electron-ion (+dipol)            ewald-force                    non-local-force                 convergence-correction
 -----------------------------------------------------------------------------------------------
   0.257E-12 0.520E-12 0.774E-12   0.723E-15 0.407E-15 0.104E-14   0.165E-23 0.000E+00 0.331E-23   0.319E-14 0.470E-14 -.130E-13
   -.347E-16 -.179E-15 -.563E-15   -.103E-15 -.538E-15 -.960E-15   -.162E-25 0.000E+00 0.827E-24   -.144E-15 0.472E-16 -.113E-16
 -----------------------------------------------------------------------------------------------
   0.257E-12 0.520E-12 0.773E-12   0.621E-15 -.131E-15 0.805E-16   0.164E-23 0.000E+00 0.414E-23   0.305E-14 0.475E-14 -.130E-13
 
 
 POSITION                                       TOTAL-FORCE (eV/Angst)
 -----------------------------------------------------------------------------------
      1.70077      1.20263      2.94582        -0.000000      0.000000      0.000000
      0.00000      0.00000      0.00000         0.000000      0.000000     -0.000000
 -----------------------------------------------------------------------------------
    total drift:                                0.000000      0.000000      0.000000


--------------------------------------------------------------------------------------------------------



  FREE ENERGIE OF THE ION-ELECTRON SYSTEM (eV)
  ---------------------------------------------------
  free  energy   TOTEN  =       -12.52227962 eV

  energy  without entropy=      -12.52227962  energy(sigma->0) =      -12.52227962
 


--------------------------------------------------------------------------------------------------------


    POTLOK:  cpu time    0.1960: real time    0.1963


--------------------------------------------------------------------------------------------------------




--------------------------------------------------------------------------------------------------------


  
 reached required accuracy - stopping structural energy minimisation
     LOOP+:  cpu time    3.2920: real time    3.3436
    4ORBIT:  cpu time    0.0000: real time    0.0000
 


 total charge     
 
# of ion     s       p       d       tot
----------------------------------------
  1        1.563   3.574   0.000   5.137
  2        0.155   0.192   0.087   0.433
------------------------------------------------
tot        1.718   3.766   0.087   5.571
 

 total amount of memory used by VASP on root node    33130. kBytes
========================================================================

   base      :      30000. kBytes
   nonl-proj :       2134. kBytes
   fftplans  :        198. kBytes
   grid      :        604. kBytes
   one-center:         16. kBytes
   wavefun   :        178. kBytes
 
  
  
 General timing and accounting informations for this job:
 ========================================================
  
                  Total CPU time used (sec):        3.764
                            User time (sec):        3.720
                          System time (sec):        0.044
                         Elapsed time (sec):        3.899
  
                   Maximum memory used (kb):       58784.
                   Average memory used (kb):           0.
  
                          Minor page faults:         8499
                          Major page faults:            9
                 Voluntary context switches:          854
