<?xml version="1.0" encoding="ISO-8859-1"?>
<modeling>
 <generator>
  <i name="program" type="string">vasp </i>
  <i name="version" type="string">5.4.1  </i>
  <i name="subversion" type="string">05Feb16 (build Oct 05 2016 16:10:00) complex                          parallel </i>
  <i name="platform" type="string">IFC91_ompi </i>
  <i name="date" type="string">2017 11 30 </i>
  <i name="time" type="string">13:55:06 </i>
 </generator>
 <incar>
  <i type="string" name="PREC">a</i>
  <i type="string" name="ALGO"> N</i>
  <i type="int" name="NELM">   100</i>
  <i type="int" name="NELMIN">     4</i>
  <i type="int" name="IBRION">     2</i>
  <i name="EDIFF">      0.00000100</i>
  <i name="EDIFFG">     -0.00500000</i>
  <i type="int" name="NSW">   100</i>
  <i type="int" name="ISIF">     3</i>
  <i type="logical" name="LREAL"> F  </i>
  <i type="int" name="ISMEAR">     0</i>
  <i name="SIGMA">      0.05000000</i>
  <i type="logical" name="LWAVE"> F  </i>
  <i type="logical" name="LCHARG"> F  </i>
  <i type="logical" name="LORBIT"> F  </i>
  <i type="logical" name="LASPH"> T  </i>
  <v type="int" name="KPOINT_BSE">    -1     0     0     0</v>
  <i type="int" name="NELM">   100</i>
  <i type="string" name="GGA"> PS</i>
  <i type="logical" name="LEPSILON"> F  </i>
  <i type="logical" name="LRPA"> F  </i>
  <i type="logical" name="LASPH"> T  </i>
 </incar>
 <kpoints>
  <generation param="Gamma">
   <v type="int" name="divisions">       8        8        8 </v>
   <v name="usershift">      0.00000000       0.00000000       0.00000000 </v>
   <v name="genvec1">      0.12500000       0.00000000       0.00000000 </v>
   <v name="genvec2">      0.00000000       0.12500000       0.00000000 </v>
   <v name="genvec3">      0.00000000       0.00000000       0.12500000 </v>
   <v name="energy_shift">      0.00000000       0.00000000       0.00000000 </v>
  </generation>
  <varray name="kpointlist" >
   <v>       0.00000000       0.00000000       0.00000000 </v>
   <v>       0.12500000       0.00000000       0.00000000 </v>
   <v>       0.25000000       0.00000000       0.00000000 </v>
   <v>       0.37500000       0.00000000       0.00000000 </v>
   <v>       0.50000000       0.00000000       0.00000000 </v>
   <v>       0.12500000       0.12500000       0.00000000 </v>
   <v>       0.25000000       0.12500000       0.00000000 </v>
   <v>       0.37500000       0.12500000       0.00000000 </v>
   <v>       0.50000000       0.12500000       0.00000000 </v>
   <v>      -0.37500000       0.12500000       0.00000000 </v>
   <v>      -0.25000000       0.12500000       0.00000000 </v>
   <v>      -0.12500000       0.12500000       0.00000000 </v>
   <v>       0.25000000       0.25000000       0.00000000 </v>
   <v>       0.37500000       0.25000000       0.00000000 </v>
   <v>       0.50000000       0.25000000       0.00000000 </v>
   <v>      -0.37500000       0.25000000       0.00000000 </v>
   <v>      -0.25000000       0.25000000       0.00000000 </v>
   <v>       0.37500000       0.37500000       0.00000000 </v>
   <v>       0.50000000       0.37500000       0.00000000 </v>
   <v>      -0.37500000       0.37500000       0.00000000 </v>
   <v>       0.50000000       0.50000000       0.00000000 </v>
   <v>       0.37500000       0.25000000       0.12500000 </v>
   <v>       0.50000000       0.25000000       0.12500000 </v>
   <v>      -0.37500000       0.25000000       0.12500000 </v>
   <v>       0.50000000       0.37500000       0.12500000 </v>
   <v>      -0.37500000       0.37500000       0.12500000 </v>
   <v>      -0.25000000       0.37500000       0.12500000 </v>
   <v>      -0.37500000       0.50000000       0.12500000 </v>
   <v>      -0.25000000       0.50000000       0.25000000 </v>
  </varray>
  <varray name="weights" >
   <v>       0.00195312 </v>
   <v>       0.01562500 </v>
   <v>       0.01562500 </v>
   <v>       0.01562500 </v>
   <v>       0.00781250 </v>
   <v>       0.01171875 </v>
   <v>       0.04687500 </v>
   <v>       0.04687500 </v>
   <v>       0.04687500 </v>
   <v>       0.04687500 </v>
   <v>       0.04687500 </v>
   <v>       0.02343750 </v>
   <v>       0.01171875 </v>
   <v>       0.04687500 </v>
   <v>       0.04687500 </v>
   <v>       0.04687500 </v>
   <v>       0.02343750 </v>
   <v>       0.01171875 </v>
   <v>       0.04687500 </v>
   <v>       0.02343750 </v>
   <v>       0.00585938 </v>
   <v>       0.04687500 </v>
   <v>       0.09375000 </v>
   <v>       0.04687500 </v>
   <v>       0.04687500 </v>
   <v>       0.09375000 </v>
   <v>       0.04687500 </v>
   <v>       0.02343750 </v>
   <v>       0.01171875 </v>
  </varray>
 </kpoints>
 <parameters>
  <separator name="general" >
   <i type="string" name="SYSTEM">unknown system</i>
   <i type="logical" name="LCOMPAT"> F  </i>
  </separator>
  <separator name="electronic" >
   <i type="string" name="PREC">a</i>
   <i name="ENMAX">    400.00000000</i>
   <i name="ENAUG">    605.39200000</i>
   <i name="EDIFF">      0.00000100</i>
   <i type="int" name="IALGO">    38</i>
   <i type="int" name="IWAVPR">    11</i>
   <i type="int" name="NBANDS">    16</i>
   <i name="NELECT">      8.00000000</i>
   <i type="int" name="TURBO">     0</i>
   <i type="int" name="IRESTART">     0</i>
   <i type="int" name="NREBOOT">     0</i>
   <i type="int" name="NMIN">     0</i>
   <i name="EREF">      0.00000000</i>
   <separator name="electronic smearing" >
    <i type="int" name="ISMEAR">     0</i>
    <i name="SIGMA">      0.05000000</i>
    <i name="KSPACING">      0.50000000</i>
    <i type="logical" name="KGAMMA"> T  </i>
   </separator>
   <separator name="electronic projectors" >
    <i type="logical" name="LREAL"> F  </i>
    <v name="ROPT">      0.00000000      0.00000000</v>
    <i type="int" name="LMAXPAW">  -100</i>
    <i type="int" name="LMAXMIX">     2</i>
    <i type="logical" name="NLSPLINE"> F  </i>
   </separator>
   <separator name="electronic startup" >
    <i type="int" name="ISTART">     0</i>
    <i type="int" name="ICHARG">     2</i>
    <i type="int" name="INIWAV">     1</i>
   </separator>
   <separator name="electronic spin" >
    <i type="int" name="ISPIN">     1</i>
    <i type="logical" name="LNONCOLLINEAR"> F  </i>
    <v name="MAGMOM">      1.00000000      1.00000000</v>
    <i name="NUPDOWN">     -1.00000000</i>
    <i type="logical" name="LSORBIT"> F  </i>
    <v name="SAXIS">      0.00000000      0.00000000      1.00000000</v>
    <i type="logical" name="LSPIRAL"> F  </i>
    <v name="QSPIRAL">      0.00000000      0.00000000      0.00000000</v>
    <i type="logical" name="LZEROZ"> F  </i>
   </separator>
   <separator name="electronic exchange-correlation" >
    <i type="logical" name="LASPH"> T  </i>
    <i type="logical" name="LMETAGGA"> F  </i>
   </separator>
   <separator name="electronic convergence" >
    <i type="int" name="NELM">   100</i>
    <i type="int" name="NELMDL">     0</i>
    <i type="int" name="NELMIN">     4</i>
    <i name="ENINI">    400.00000000</i>
    <separator name="electronic convergence detail" >
     <i type="logical" name="LDIAG"> T  </i>
     <i type="logical" name="LSUBROT"> F  </i>
     <i name="WEIMIN">      0.00100000</i>
     <i name="EBREAK">      0.00000002</i>
     <i name="DEPER">      0.30000000</i>
     <i type="int" name="NRMM">     4</i>
     <i name="TIME">      0.40000000</i>
    </separator>
   </separator>
   <separator name="electronic mixer" >
    <i name="AMIX">      0.40000000</i>
    <i name="BMIX">      1.00000000</i>
    <i name="AMIN">      0.10000000</i>
    <i name="AMIX_MAG">      1.60000000</i>
    <i name="BMIX_MAG">      1.00000000</i>
    <separator name="electronic mixer details" >
     <i type="int" name="IMIX">     4</i>
     <i type="logical" name="MIXFIRST"> F  </i>
     <i type="int" name="MAXMIX">   -45</i>
     <i name="WC">    100.00000000</i>
     <i type="int" name="INIMIX">     1</i>
     <i type="int" name="MIXPRE">     1</i>
     <i type="int" name="MREMOVE">     5</i>
    </separator>
   </separator>
   <separator name="electronic dipolcorrection" >
    <i type="logical" name="LDIPOL"> F  </i>
    <i type="logical" name="LMONO"> F  </i>
    <i type="int" name="IDIPOL">     0</i>
    <i name="EPSILON">      1.00000000</i>
    <v name="DIPOL">   -100.00000000   -100.00000000   -100.00000000</v>
    <i name="EFIELD">      0.00000000</i>
   </separator>
  </separator>
  <separator name="grids" >
   <i type="int" name="NGX">    20</i>
   <i type="int" name="NGY">    20</i>
   <i type="int" name="NGZ">    20</i>
   <i type="int" name="NGXF">    40</i>
   <i type="int" name="NGYF">    40</i>
   <i type="int" name="NGZF">    40</i>
   <i type="logical" name="ADDGRID"> F  </i>
  </separator>
  <separator name="ionic" >
   <i type="int" name="NSW">   100</i>
   <i type="int" name="IBRION">     2</i>
   <i type="int" name="ISIF">     3</i>
   <i name="PSTRESS">      0.00000000</i>
   <i name="EDIFFG">     -0.00500000</i>
   <i type="int" name="NFREE">     1</i>
   <i name="POTIM">      0.50000000</i>
   <i name="SMASS">     -3.00000000</i>
   <i name="SCALEE">      1.00000000</i>
  </separator>
  <separator name="ionic md" >
   <i name="TEBEG">      0.00010000</i>
   <i name="TEEND">      0.00010000</i>
   <i type="int" name="NBLOCK">     1</i>
   <i type="int" name="KBLOCK">   100</i>
   <i type="int" name="NPACO">   256</i>
   <i name="APACO">     16.00000000</i>
  </separator>
  <separator name="symmetry" >
   <i type="int" name="ISYM">     2</i>
   <i name="SYMPREC">      0.00001000</i>
  </separator>
  <separator name="dos" >
   <i type="logical" name="LORBIT"> F  </i>
   <v name="RWIGS">     -1.00000000     -1.00000000</v>
   <i type="int" name="NEDOS">   301</i>
   <i name="EMIN">     10.00000000</i>
   <i name="EMAX">    -10.00000000</i>
   <i name="EFERMI">      0.00000000</i>
  </separator>
  <separator name="writing" >
   <i type="int" name="NWRITE">     2</i>
   <i type="logical" name="LWAVE"> F  </i>
   <i type="logical" name="LCHARG"> F  </i>
   <i type="logical" name="LPARD"> F  </i>
   <i type="logical" name="LVTOT"> F  </i>
   <i type="logical" name="LVHAR"> F  </i>
   <i type="logical" name="LELF"> F  </i>
   <i type="logical" name="LOPTICS"> F  </i>
   <v name="STM">      0.00000000      0.00000000      0.00000000      0.00000000      0.00000000      0.00000000      0.00000000</v>
  </separator>
  <separator name="performance" >
   <i type="int" name="NPAR">    16</i>
   <i type="int" name="NSIM">     4</i>
   <i type="int" name="NBLK">    -1</i>
   <i type="logical" name="LPLANE"> T  </i>
   <i type="logical" name="LSCALAPACK"> T  </i>
   <i type="logical" name="LSCAAWARE"> F  </i>
   <i type="logical" name="LSCALU"> F  </i>
   <i type="logical" name="LASYNC"> F  </i>
   <i type="logical" name="LORBITALREAL"> F  </i>
  </separator>
  <separator name="miscellaneous" >
   <i type="int" name="IDIOT">     3</i>
   <i type="logical" name="LMUSIC"> F  </i>
   <v name="POMASS">     16.00000000     24.30500000</v>
   <v name="DARWINR">      0.00000000      0.00000000</v>
   <v name="DARWINV">      1.00000000      1.00000000</v>
   <i type="logical" name="LCORR"> T  </i>
  </separator>
  <i type="logical" name="GGA_COMPAT"> T  </i>
  <i type="logical" name="LBERRY"> F  </i>
  <i type="int" name="ICORELEVEL">     0</i>
  <i type="logical" name="LDAU"> F  </i>
  <i type="int" name="I_CONSTRAINED_M">     0</i>
  <separator name="electronic exchange-correlation" >
   <i type="string" name="GGA">PS</i>
   <i type="int" name="VOSKOWN">     0</i>
   <i type="logical" name="LHFCALC"> F  </i>
   <i type="string" name="PRECFOCK"></i>
   <i type="logical" name="LSYMGRAD"> F  </i>
   <i type="logical" name="LHFONE"> F  </i>
   <i type="logical" name="LRHFCALC"> F  </i>
   <i type="logical" name="LTHOMAS"> F  </i>
   <i type="logical" name="LMODELHF"> F  </i>
   <i name="ENCUT4O">     -1.00000000</i>
   <i type="int" name="EXXOEP">     0</i>
   <i type="int" name="FOURORBIT">     0</i>
   <i name="AEXX">      0.00000000</i>
   <i name="HFALPHA">      0.00000000</i>
   <i name="MCALPHA">      0.00000000</i>
   <i name="ALDAX">      1.00000000</i>
   <i name="AGGAX">      1.00000000</i>
   <i name="ALDAC">      1.00000000</i>
   <i name="AGGAC">      1.00000000</i>
   <i type="int" name="NKREDX">     1</i>
   <i type="int" name="NKREDY">     1</i>
   <i type="int" name="NKREDZ">     1</i>
   <i type="logical" name="SHIFTRED"> F  </i>
   <i type="logical" name="ODDONLY"> F  </i>
   <i type="logical" name="EVENONLY"> F  </i>
   <i type="int" name="LMAXFOCK">     0</i>
   <i type="int" name="NMAXFOCKAE">     0</i>
   <i type="logical" name="LFOCKAEDFT"> F  </i>
   <i name="HFSCREEN">      0.00000000</i>
   <i name="HFSCREENC">      0.00000000</i>
   <i type="int" name="NBANDSGWLOW">     0</i>
  </separator>
  <separator name="vdW DFT" >
   <i type="logical" name="LUSE_VDW"> F  </i>
   <i name="Zab_VDW">     -0.84910000</i>
   <i name="PARAM1">      0.12340000</i>
   <i name="PARAM2">      1.00000000</i>
   <i name="PARAM3">      0.00000000</i>
  </separator>
  <separator name="model GW" >
   <i type="int" name="MODEL_GW">     0</i>
   <i name="MODEL_EPS0">      5.42280926</i>
   <i name="MODEL_ALPHA">      1.00000000</i>
  </separator>
  <separator name="linear response parameters" >
   <i type="logical" name="LEPSILON"> F  </i>
   <i type="logical" name="LRPA"> F  </i>
   <i type="logical" name="LNABLA"> F  </i>
   <i type="logical" name="LVEL"> F  </i>
   <i type="int" name="KINTER">     0</i>
   <i name="CSHIFT">      0.10000000</i>
   <i name="OMEGAMAX">     -1.00000000</i>
   <i name="DEG_THRESHOLD">      0.00200000</i>
  </separator>
  <separator name="orbital magnetization" >
   <i type="logical" name="NUCIND"> F  </i>
   <v name="MAGPOS">      0.00000000      0.00000000      0.00000000</v>
   <i type="logical" name="LNICSALL"> T  </i>
   <i type="logical" name="ORBITALMAG"> F  </i>
   <i type="logical" name="LMAGBLOCH"> F  </i>
   <i type="logical" name="LCHIMAG"> F  </i>
   <i type="logical" name="LGAUGE"> T  </i>
   <i type="int" name="MAGATOM">     0</i>
   <v name="MAGDIPOL">      0.00000000      0.00000000      0.00000000</v>
   <v name="AVECCONST">      0.00000000      0.00000000      0.00000000</v>
  </separator>
  <separator name="response functions" >
   <i type="logical" name="LADDER"> T  </i>
   <i type="logical" name="LFXC"> F  </i>
   <i type="logical" name="LHARTREE"> T  </i>
   <i type="int" name="IBSE">     0</i>
   <v type="int" name="KPOINT">    -1     0     0     0</v>
   <i type="logical" name="LTCTE"> F  </i>
   <i type="logical" name="LTETE"> F  </i>
   <i type="logical" name="LTRIPLET"> F  </i>
   <i type="logical" name="LFXCEPS"> F  </i>
   <i type="logical" name="LFXHEG"> F  </i>
   <i type="int" name="NATURALO">     0</i>
   <i type="logical" name="L2ORDER"> F  </i>
   <i type="logical" name="LUSEW"> F  </i>
   <i name="ENCUTGW">     -2.00000000</i>
   <i name="ENCUTGWSOFT">     -2.00000000</i>
   <i name="ENCUTLF">     -1.00000000</i>
   <i type="int" name="LMAXMP2">    -1</i>
   <i name="SCISSOR">      0.00000000</i>
   <i type="int" name="NOMEGA">     0</i>
   <i type="int" name="NOMEGAR">     0</i>
   <i type="int" name="NBANDSGW">    -1</i>
   <i type="int" name="NBANDSO">    -1</i>
   <i type="int" name="NBANDSV">    -1</i>
   <i type="int" name="NELM">   100</i>
   <i type="int" name="NELMHF">     1</i>
   <i type="int" name="DIM">     3</i>
   <i type="int" name="ANTIRES">     0</i>
   <i name="OMEGAMAX">    -30.00000000</i>
   <i name="OMEGAMIN">    -30.00000000</i>
   <i name="OMEGATL">   -200.00000000</i>
   <i type="int" name="OMEGAGRID">     0</i>
   <i name="CSHIFT">     -0.10000000</i>
   <i type="logical" name="SELFENERGY"> F  </i>
   <i type="logical" name="LSPECTRAL"> F  </i>
   <i type="logical" name="LSPECTRALGW"> F  </i>
   <i type="logical" name="LSINGLES"> F  </i>
   <i type="logical" name="LFERMIGW"> F  </i>
   <i type="logical" name="ODDONLYGW"> F  </i>
   <i type="logical" name="EVENONLYGW"> F  </i>
   <i type="int" name="NKREDLFX">     1</i>
   <i type="int" name="NKREDLFY">     1</i>
   <i type="int" name="NKREDLFZ">     1</i>
   <i type="int" name="MAXMEM">  1800</i>
   <i type="int" name="TELESCOPE">     0</i>
   <i type="int" name="TAUPAR">     1</i>
   <i type="int" name="OMEGAPAR">    -1</i>
   <i name="LAMBDA">      1.00000000</i>
  </separator>
  <separator name="External order field" >
   <i name="OFIELD_KAPPA">      0.00000000</i>
   <v name="OFIELD_K">      0.00000000      0.00000000      0.00000000</v>
   <i name="OFIELD_Q6_NEAR">      0.00000000</i>
   <i name="OFIELD_Q6_FAR">      0.00000000</i>
   <i name="OFIELD_A">      0.00000000</i>
  </separator>
 </parameters>
 <atominfo>
  <atoms>       2 </atoms>
  <types>       2 </types>
  <array name="atoms" >
   <dimension dim="1">ion</dimension>
   <field type="string">element</field>
   <field type="int">atomtype</field>
   <set>
    <rc><c>O </c><c>   1</c></rc>
    <rc><c>Mg</c><c>   2</c></rc>
   </set>
  </array>
  <array name="atomtypes" >
   <dimension dim="1">type</dimension>
   <field type="int">atomspertype</field>
   <field type="string">element</field>
   <field>mass</field>
   <field>valence</field>
   <field type="string">pseudopotential</field>
   <set>
    <rc><c>   1</c><c>O </c><c>     16.00000000</c><c>      6.00000000</c><c>  PAW_PBE O 08Apr2002                   </c></rc>
    <rc><c>   1</c><c>Mg</c><c>     24.30500000</c><c>      2.00000000</c><c>  PAW_PBE Mg 13Apr2007                  </c></rc>
   </set>
  </array>
 </atominfo>
 <structure name="initialpos" >
  <crystal>
   <varray name="basis" >
    <v>       2.55115384       0.00000000       1.47290928 </v>
    <v>       0.85038461       2.40525115       1.47290928 </v>
    <v>       0.00000000       0.00000000       2.94581857 </v>
   </varray>
   <i name="volume">     18.07603085 </i>
   <varray name="rec_basis" >
    <v>       0.39197950      -0.13858567       0.00000000 </v>
    <v>       0.00000000       0.41575700       0.00000000 </v>
    <v>      -0.19598975      -0.13858567       0.33946422 </v>
   </varray>
  </crystal>
  <varray name="positions" >
   <v>       0.50000000       0.50000000       0.50000000 </v>
   <v>       0.00000000       0.00000000       0.00000000 </v>
  </varray>
 </structure>
 <calculation>
  <scstep>
   <time name="dav">    0.12    0.12</time>
   <time name="total">    0.32    0.32</time>
   <energy>
    <i name="alphaZ">     20.20883074 </i>
    <i name="ewald">   -362.15019870 </i>
    <i name="hartreedc">   -119.19598721 </i>
    <i name="XCdc">    -18.79551731 </i>
    <i name="pawpsdc">    410.34041496 </i>
    <i name="pawaedc">   -360.87495974 </i>
    <i name="eentropy">     -0.00000000 </i>
    <i name="bandstr">    -28.90375598 </i>
    <i name="atom">    453.31990516 </i>
    <i name="e_fr_energy">     -6.05126806 </i>
    <i name="e_wo_entrp">     -6.05126806 </i>
    <i name="e_0_energy">     -6.05126806 </i>
   </energy>
  </scstep>
  <scstep>
   <time name="dav">    0.15    0.15</time>
   <time name="total">    0.15    0.15</time>
   <energy>
    <i name="e_fr_energy">    -13.87415184 </i>
    <i name="e_wo_entrp">    -13.87415184 </i>
    <i name="e_0_energy">    -13.87415184 </i>
   </energy>
  </scstep>
  <scstep>
   <time name="dav">    0.12    0.11</time>
   <time name="total">    0.12    0.12</time>
   <energy>
    <i name="e_fr_energy">    -13.88790329 </i>
    <i name="e_wo_entrp">    -13.88790329 </i>
    <i name="e_0_energy">    -13.88790329 </i>
   </energy>
  </scstep>
  <scstep>
   <time name="dav">    0.20    0.19</time>
   <time name="total">    0.20    0.20</time>
   <energy>
    <i name="e_fr_energy">    -13.88791178 </i>
    <i name="e_wo_entrp">    -13.88791178 </i>
    <i name="e_0_energy">    -13.88791178 </i>
   </energy>
  </scstep>
  <scstep>
   <time name="dav">    0.11    0.11</time>
   <time name="total">    0.12    0.12</time>
   <energy>
    <i name="e_fr_energy">    -13.88791178 </i>
    <i name="e_wo_entrp">    -13.88791178 </i>
    <i name="e_0_energy">    -13.88791178 </i>
   </energy>
  </scstep>
  <scstep>
   <time name="dav">    0.10    0.10</time>
   <time name="total">    0.30    0.30</time>
   <energy>
    <i name="e_fr_energy">    -12.56145882 </i>
    <i name="e_wo_entrp">    -12.56145882 </i>
    <i name="e_0_energy">    -12.56145882 </i>
   </energy>
  </scstep>
  <scstep>
   <time name="dav">    0.11    0.11</time>
   <time name="total">    0.31    0.31</time>
   <energy>
    <i name="e_fr_energy">    -12.53645501 </i>
    <i name="e_wo_entrp">    -12.53645501 </i>
    <i name="e_0_energy">    -12.53645501 </i>
   </energy>
  </scstep>
  <scstep>
   <time name="dav">    0.13    0.13</time>
   <time name="total">    0.33    0.33</time>
   <energy>
    <i name="e_fr_energy">    -12.52236719 </i>
    <i name="e_wo_entrp">    -12.52236719 </i>
    <i name="e_0_energy">    -12.52236719 </i>
   </energy>
  </scstep>
  <scstep>
   <time name="dav">    0.13    0.13</time>
   <time name="total">    0.33    0.34</time>
   <energy>
    <i name="e_fr_energy">    -12.52227862 </i>
    <i name="e_wo_entrp">    -12.52227862 </i>
    <i name="e_0_energy">    -12.52227862 </i>
   </energy>
  </scstep>
  <scstep>
   <time name="dav">    0.10    0.11</time>
   <time name="total">    0.31    0.31</time>
   <energy>
    <i name="e_fr_energy">    -12.52227979 </i>
    <i name="e_wo_entrp">    -12.52227979 </i>
    <i name="e_0_energy">    -12.52227979 </i>
   </energy>
  </scstep>
  <scstep>
   <time name="dav">    0.14    0.14</time>
   <time name="total">    0.34    0.34</time>
   <energy>
    <i name="alphaZ">     20.20883074 </i>
    <i name="ewald">   -362.15019870 </i>
    <i name="hartreedc">   -137.67555688 </i>
    <i name="XCdc">    -17.34527971 </i>
    <i name="pawpsdc">    560.14927618 </i>
    <i name="pawaedc">   -510.96547700 </i>
    <i name="eentropy">     -0.00000000 </i>
    <i name="bandstr">    -18.06377941 </i>
    <i name="atom">    453.31990516 </i>
    <i name="e_fr_energy">    -12.52227962 </i>
    <i name="e_wo_entrp">    -12.52227962 </i>
    <i name="e_0_energy">    -12.52227962 </i>
   </energy>
  </scstep>
  <structure>
   <crystal>
    <varray name="basis" >
     <v>       2.55115384       0.00000000       1.47290928 </v>
     <v>       0.85038461       2.40525115       1.47290928 </v>
     <v>       0.00000000       0.00000000       2.94581857 </v>
    </varray>
    <i name="volume">     18.07603085 </i>
    <varray name="rec_basis" >
     <v>       0.39197950      -0.13858567       0.00000000 </v>
     <v>       0.00000000       0.41575700       0.00000000 </v>
     <v>      -0.19598975      -0.13858567       0.33946422 </v>
    </varray>
   </crystal>
   <varray name="positions" >
    <v>       0.50000000       0.50000000       0.50000000 </v>
    <v>       0.00000000       0.00000000       0.00000000 </v>
   </varray>
  </structure>
  <varray name="forces" >
   <v>      -0.00000000       0.00000000       0.00000000 </v>
   <v>       0.00000000       0.00000000      -0.00000000 </v>
  </varray>
  <varray name="stress" >
   <v>      -0.08998522      -0.00000000      -0.00000000 </v>
   <v>       0.00000000      -0.08998524      -0.00000000 </v>
   <v>       0.00000000      -0.00000000      -0.08998521 </v>
  </varray>
  <energy>
   <i name="e_fr_energy">    -12.52227962 </i>
   <i name="e_wo_entrp">    -12.52227962 </i>
   <i name="e_0_energy">     -0.00000000 </i>
  </energy>
  <time name="totalsc">    3.29    3.34</time>
  <eigenvalues>
   <array>
    <dimension dim="1">band</dimension>
    <dimension dim="2">kpoint</dimension>
    <dimension dim="3">spin</dimension>
    <field>eigene</field>
    <field>occ</field>
    <set>
     <set comment="spin 1">
      <set comment="kpoint 1">
       <r>  -14.0686    1.0000 </r>
       <r>    3.3035    1.0000 </r>
       <r>    3.3035    1.0000 </r>
       <r>    3.3035    1.0000 </r>
       <r>    8.2729    0.0000 </r>
       <r>   19.1379    0.0000 </r>
       <r>   19.1379    0.0000 </r>
       <r>   19.1379    0.0000 </r>
       <r>   23.0700    0.0000 </r>
       <r>   24.9908    0.0000 </r>
       <r>   24.9908    0.0000 </r>
       <r>   28.1408    0.0000 </r>
       <r>   28.1408    0.0000 </r>
       <r>   28.1408    0.0000 </r>
       <r>   42.5586    0.0000 </r>
       <r>   42.5586    0.0000 </r>
      </set>
      <set comment="kpoint 2">
       <r>  -13.8923    1.0000 </r>
       <r>    2.3260    1.0000 </r>
       <r>    3.1938    1.0000 </r>
       <r>    3.1938    1.0000 </r>
       <r>    9.1886    0.0000 </r>
       <r>   17.4373    0.0000 </r>
       <r>   19.5196    0.0000 </r>
       <r>   19.5196    0.0000 </r>
       <r>   24.0803    0.0000 </r>
       <r>   24.0803    0.0000 </r>
       <r>   25.3787    0.0000 </r>
       <r>   28.2399    0.0000 </r>
       <r>   29.7462    0.0000 </r>
       <r>   29.7462    0.0000 </r>
       <r>   40.4611    0.0000 </r>
       <r>   42.3454    0.0000 </r>
      </set>
      <set comment="kpoint 3">
       <r>  -13.4319    1.0000 </r>
       <r>    0.5533    1.0000 </r>
       <r>    2.9421    1.0000 </r>
       <r>    2.9421    1.0000 </r>
       <r>   10.6084    0.0000 </r>
       <r>   15.9537    0.0000 </r>
       <r>   20.0945    0.0000 </r>
       <r>   20.0945    0.0000 </r>
       <r>   23.6823    0.0000 </r>
       <r>   23.6823    0.0000 </r>
       <r>   25.7360    0.0000 </r>
       <r>   31.4889    0.0000 </r>
       <r>   32.4000    0.0000 </r>
       <r>   32.4000    0.0000 </r>
       <r>   38.2963    0.0000 </r>
       <r>   40.9090    0.0000 </r>
      </set>
      <set comment="kpoint 4">
       <r>  -12.9092    1.0000 </r>
       <r>   -0.9317    1.0000 </r>
       <r>    2.7024    1.0000 </r>
       <r>    2.7024    1.0000 </r>
       <r>   11.2231    0.0000 </r>
       <r>   15.9199    0.0000 </r>
       <r>   19.9912    0.0000 </r>
       <r>   19.9912    0.0000 </r>
       <r>   24.9240    0.0000 </r>
       <r>   25.0078    0.0000 </r>
       <r>   25.0078    0.0000 </r>
       <r>   32.9507    0.0000 </r>
       <r>   34.4124    0.0000 </r>
       <r>   34.4124    0.0000 </r>
       <r>   37.8778    0.0000 </r>
       <r>   37.8778    0.0000 </r>
      </set>
      <set comment="kpoint 5">
       <r>  -12.6690    1.0000 </r>
       <r>   -1.5170    1.0000 </r>
       <r>    2.6055    1.0000 </r>
       <r>    2.6055    1.0000 </r>
       <r>   11.2721    0.0000 </r>
       <r>   16.2212    0.0000 </r>
       <r>   19.8382    0.0000 </r>
       <r>   19.8382    0.0000 </r>
       <r>   24.5899    0.0000 </r>
       <r>   26.0946    0.0000 </r>
       <r>   26.0946    0.0000 </r>
       <r>   32.4089    0.0000 </r>
       <r>   34.6770    0.0000 </r>
       <r>   34.6770    0.0000 </r>
       <r>   36.5942    0.0000 </r>
       <r>   36.5942    0.0000 </r>
      </set>
      <set comment="kpoint 6">
       <r>  -13.8366    1.0000 </r>
       <r>    2.2446    1.0000 </r>
       <r>    3.0582    1.0000 </r>
       <r>    3.0582    1.0000 </r>
       <r>    9.4907    0.0000 </r>
       <r>   16.8833    0.0000 </r>
       <r>   19.7143    0.0000 </r>
       <r>   19.7143    0.0000 </r>
       <r>   22.4195    0.0000 </r>
       <r>   25.4833    0.0000 </r>
       <r>   26.4029    0.0000 </r>
       <r>   28.8719    0.0000 </r>
       <r>   28.8719    0.0000 </r>
       <r>   30.2906    0.0000 </r>
       <r>   40.6056    0.0000 </r>
       <r>   41.7851    0.0000 </r>
      </set>
      <set comment="kpoint 7">
       <r>  -13.4772    1.0000 </r>
       <r>    0.9653    1.0000 </r>
       <r>    2.7897    1.0000 </r>
       <r>    2.7984    1.0000 </r>
       <r>   10.7895    0.0000 </r>
       <r>   15.5555    0.0000 </r>
       <r>   19.8740    0.0000 </r>
       <r>   20.3021    0.0000 </r>
       <r>   21.5716    0.0000 </r>
       <r>   25.4506    0.0000 </r>
       <r>   27.7391    0.0000 </r>
       <r>   31.0022    0.0000 </r>
       <r>   31.0468    0.0000 </r>
       <r>   32.1242    0.0000 </r>
       <r>   38.5532    0.0000 </r>
       <r>   40.2668    0.0000 </r>
      </set>
      <set comment="kpoint 8">
       <r>  -12.9778    1.0000 </r>
       <r>   -0.4332    1.0000 </r>
       <r>    2.3983    1.0000 </r>
       <r>    2.5684    1.0000 </r>
       <r>   11.7736    0.0000 </r>
       <r>   15.3528    0.0000 </r>
       <r>   18.9416    0.0000 </r>
       <r>   20.4373    0.0000 </r>
       <r>   22.8804    0.0000 </r>
       <r>   26.0974    0.0000 </r>
       <r>   27.1783    0.0000 </r>
       <r>   33.0714    0.0000 </r>
       <r>   33.9622    0.0000 </r>
       <r>   34.0765    0.0000 </r>
       <r>   36.8910    0.0000 </r>
       <r>   39.3142    0.0000 </r>
      </set>
      <set comment="kpoint 9">
       <r>  -12.6342    1.0000 </r>
       <r>   -1.2383    1.0000 </r>
       <r>    2.0879    1.0000 </r>
       <r>    2.4913    1.0000 </r>
       <r>   11.9777    0.0000 </r>
       <r>   15.9730    0.0000 </r>
       <r>   18.4199    0.0000 </r>
       <r>   20.2602    0.0000 </r>
       <r>   24.3370    0.0000 </r>
       <r>   26.5865    0.0000 </r>
       <r>   26.8411    0.0000 </r>
       <r>   33.3184    0.0000 </r>
       <r>   34.0136    0.0000 </r>
       <r>   34.1841    0.0000 </r>
       <r>   36.9749    0.0000 </r>
       <r>   38.6935    0.0000 </r>
      </set>
      <set comment="kpoint 10">
       <r>  -12.7113    1.0000 </r>
       <r>   -1.0559    1.0000 </r>
       <r>    2.0226    1.0000 </r>
       <r>    2.6066    1.0000 </r>
       <r>   11.9898    0.0000 </r>
       <r>   15.8579    0.0000 </r>
       <r>   18.5337    0.0000 </r>
       <r>   20.3246    0.0000 </r>
       <r>   24.8508    0.0000 </r>
       <r>   25.1787    0.0000 </r>
       <r>   26.8677    0.0000 </r>
       <r>   33.5761    0.0000 </r>
       <r>   33.9434    0.0000 </r>
       <r>   35.2111    0.0000 </r>
       <r>   35.7499    0.0000 </r>
       <r>   39.7923    0.0000 </r>
      </set>
      <set comment="kpoint 11">
       <r>  -13.1434    1.0000 </r>
       <r>    0.0064    1.0000 </r>
       <r>    2.2588    1.0000 </r>
       <r>    2.8596    1.0000 </r>
       <r>   11.5671    0.0000 </r>
       <r>   15.4597    0.0000 </r>
       <r>   19.1535    0.0000 </r>
       <r>   20.7440    0.0000 </r>
       <r>   22.5607    0.0000 </r>
       <r>   24.8992    0.0000 </r>
       <r>   27.3282    0.0000 </r>
       <r>   32.0751    0.0000 </r>
       <r>   33.5531    0.0000 </r>
       <r>   34.2000    0.0000 </r>
       <r>   36.6427    0.0000 </r>
       <r>   40.1556    0.0000 </r>
      </set>
      <set comment="kpoint 12">
       <r>  -13.6233    1.0000 </r>
       <r>    1.3782    1.0000 </r>
       <r>    2.7496    1.0000 </r>
       <r>    3.1066    1.0000 </r>
       <r>   10.2739    0.0000 </r>
       <r>   16.2024    0.0000 </r>
       <r>   19.6610    0.0000 </r>
       <r>   20.2091    0.0000 </r>
       <r>   22.4654    0.0000 </r>
       <r>   24.3979    0.0000 </r>
       <r>   27.1895    0.0000 </r>
       <r>   29.5508    0.0000 </r>
       <r>   30.6887    0.0000 </r>
       <r>   31.8737    0.0000 </r>
       <r>   38.5336    0.0000 </r>
       <r>   41.4499    0.0000 </r>
      </set>
      <set comment="kpoint 13">
       <r>  -13.2542    1.0000 </r>
       <r>    0.5785    1.0000 </r>
       <r>    2.5372    1.0000 </r>
       <r>    2.5372    1.0000 </r>
       <r>   11.6551    0.0000 </r>
       <r>   14.3718    0.0000 </r>
       <r>   19.0724    0.0000 </r>
       <r>   21.0120    0.0000 </r>
       <r>   21.0120    0.0000 </r>
       <r>   26.9192    0.0000 </r>
       <r>   31.0958    0.0000 </r>
       <r>   31.0958    0.0000 </r>
       <r>   31.7079    0.0000 </r>
       <r>   32.1489    0.0000 </r>
       <r>   39.6019    0.0000 </r>
       <r>   39.8618    0.0000 </r>
      </set>
      <set comment="kpoint 14">
       <r>  -12.8740    1.0000 </r>
       <r>   -0.2087    1.0000 </r>
       <r>    2.0473    1.0000 </r>
       <r>    2.3039    1.0000 </r>
       <r>   12.7202    0.0000 </r>
       <r>   13.9200    0.0000 </r>
       <r>   17.7101    0.0000 </r>
       <r>   21.4073    0.0000 </r>
       <r>   21.8732    0.0000 </r>
       <r>   27.6997    0.0000 </r>
       <r>   31.1076    0.0000 </r>
       <r>   31.5806    0.0000 </r>
       <r>   33.3076    0.0000 </r>
       <r>   35.7735    0.0000 </r>
       <r>   37.5763    0.0000 </r>
       <r>   39.0564    0.0000 </r>
      </set>
      <set comment="kpoint 15">
       <r>  -12.5420    1.0000 </r>
       <r>   -0.6828    1.0000 </r>
       <r>    1.2888    1.0000 </r>
       <r>    2.2340    1.0000 </r>
       <r>   13.0922    0.0000 </r>
       <r>   15.0749    0.0000 </r>
       <r>   16.8462    0.0000 </r>
       <r>   21.2697    0.0000 </r>
       <r>   22.4207    0.0000 </r>
       <r>   28.1027    0.0000 </r>
       <r>   30.5128    0.0000 </r>
       <r>   31.9078    0.0000 </r>
       <r>   33.1353    0.0000 </r>
       <r>   35.9489    0.0000 </r>
       <r>   37.9948    0.0000 </r>
       <r>   42.3586    0.0000 </r>
      </set>
      <set comment="kpoint 16">
       <r>  -12.4888    1.0000 </r>
       <r>   -0.6193    1.0000 </r>
       <r>    0.8049    1.0000 </r>
       <r>    2.3529    1.0000 </r>
       <r>   13.3538    0.0000 </r>
       <r>   15.6540    0.0000 </r>
       <r>   16.7358    0.0000 </r>
       <r>   21.0824    0.0000 </r>
       <r>   23.1415    0.0000 </r>
       <r>   26.0436    0.0000 </r>
       <r>   30.0466    0.0000 </r>
       <r>   32.6654    0.0000 </r>
       <r>   33.1009    0.0000 </r>
       <r>   36.4878    0.0000 </r>
       <r>   38.4511    0.0000 </r>
       <r>   41.3616    0.0000 </r>
      </set>
      <set comment="kpoint 17">
       <r>  -12.7516    1.0000 </r>
       <r>   -0.3361    1.0000 </r>
       <r>    1.1993    1.0000 </r>
       <r>    2.6084    1.0000 </r>
       <r>   12.9948    0.0000 </r>
       <r>   15.1705    0.0000 </r>
       <r>   17.6448    0.0000 </r>
       <r>   21.1368    0.0000 </r>
       <r>   23.4132    0.0000 </r>
       <r>   24.5715    0.0000 </r>
       <r>   29.5313    0.0000 </r>
       <r>   32.4103    0.0000 </r>
       <r>   33.7217    0.0000 </r>
       <r>   35.0713    0.0000 </r>
       <r>   37.8617    0.0000 </r>
       <r>   42.4828    0.0000 </r>
      </set>
      <set comment="kpoint 18">
       <r>  -12.6505    1.0000 </r>
       <r>   -0.5819    1.0000 </r>
       <r>    2.0715    1.0000 </r>
       <r>    2.0715    1.0000 </r>
       <r>   12.8054    0.0000 </r>
       <r>   13.2811    0.0000 </r>
       <r>   16.9585    0.0000 </r>
       <r>   22.2056    0.0000 </r>
       <r>   22.2056    0.0000 </r>
       <r>   29.0478    0.0000 </r>
       <r>   30.2650    0.0000 </r>
       <r>   33.9080    0.0000 </r>
       <r>   33.9080    0.0000 </r>
       <r>   38.8904    0.0000 </r>
       <r>   38.8904    0.0000 </r>
       <r>   39.0943    0.0000 </r>
      </set>
      <set comment="kpoint 19">
       <r>  -12.4389    1.0000 </r>
       <r>   -0.7555    1.0000 </r>
       <r>    1.4994    1.0000 </r>
       <r>    1.9908    1.0000 </r>
       <r>   12.8211    0.0000 </r>
       <r>   14.0253    0.0000 </r>
       <r>   16.5231    0.0000 </r>
       <r>   22.2690    0.0000 </r>
       <r>   22.2718    0.0000 </r>
       <r>   30.0542    0.0000 </r>
       <r>   30.1220    0.0000 </r>
       <r>   32.7576    0.0000 </r>
       <r>   33.6059    0.0000 </r>
       <r>   38.9248    0.0000 </r>
       <r>   39.3241    0.0000 </r>
       <r>   42.2513    0.0000 </r>
      </set>
      <set comment="kpoint 20">
       <r>  -12.3734    1.0000 </r>
       <r>   -0.3616    1.0000 </r>
       <r>    0.4647    1.0000 </r>
       <r>    2.1018    1.0000 </r>
       <r>   13.4074    0.0000 </r>
       <r>   15.3916    0.0000 </r>
       <r>   16.0305    0.0000 </r>
       <r>   21.7894    0.0000 </r>
       <r>   21.9226    0.0000 </r>
       <r>   28.6905    0.0000 </r>
       <r>   31.1264    0.0000 </r>
       <r>   31.9511    0.0000 </r>
       <r>   32.3412    0.0000 </r>
       <r>   39.3285    0.0000 </r>
       <r>   40.3758    0.0000 </r>
       <r>   41.5578    0.0000 </r>
      </set>
      <set comment="kpoint 21">
       <r>  -12.3948    1.0000 </r>
       <r>   -0.9749    1.0000 </r>
       <r>    1.8930    1.0000 </r>
       <r>    1.8930    1.0000 </r>
       <r>   12.2785    0.0000 </r>
       <r>   13.5554    0.0000 </r>
       <r>   16.6500    0.0000 </r>
       <r>   22.6897    0.0000 </r>
       <r>   22.6897    0.0000 </r>
       <r>   29.1898    0.0000 </r>
       <r>   30.5076    0.0000 </r>
       <r>   34.5071    0.0000 </r>
       <r>   34.5071    0.0000 </r>
       <r>   38.0352    0.0000 </r>
       <r>   41.0573    0.0000 </r>
       <r>   41.0573    0.0000 </r>
      </set>
      <set comment="kpoint 22">
       <r>  -13.1024    1.0000 </r>
       <r>    0.1753    1.0000 </r>
       <r>    2.0916    1.0000 </r>
       <r>    2.6537    1.0000 </r>
       <r>   12.0565    0.0000 </r>
       <r>   14.7681    0.0000 </r>
       <r>   18.6584    0.0000 </r>
       <r>   21.1320    0.0000 </r>
       <r>   21.5926    0.0000 </r>
       <r>   26.0157    0.0000 </r>
       <r>   29.5792    0.0000 </r>
       <r>   31.3232    0.0000 </r>
       <r>   32.7757    0.0000 </r>
       <r>   34.9554    0.0000 </r>
       <r>   36.6083    0.0000 </r>
       <r>   40.3533    0.0000 </r>
      </set>
      <set comment="kpoint 23">
       <r>  -12.6905    1.0000 </r>
       <r>   -0.5610    1.0000 </r>
       <r>    1.4847    1.0000 </r>
       <r>    2.3870    1.0000 </r>
       <r>   12.9737    0.0000 </r>
       <r>   15.0707    0.0000 </r>
       <r>   17.5029    0.0000 </r>
       <r>   20.7498    0.0000 </r>
       <r>   23.2247    0.0000 </r>
       <r>   26.0196    0.0000 </r>
       <r>   29.7614    0.0000 </r>
       <r>   32.8065    0.0000 </r>
       <r>   33.1938    0.0000 </r>
       <r>   35.9918    0.0000 </r>
       <r>   36.6155    0.0000 </r>
       <r>   42.2377    0.0000 </r>
      </set>
      <set comment="kpoint 24">
       <r>  -12.5067    1.0000 </r>
       <r>   -0.8788    1.0000 </r>
       <r>    1.2662    1.0000 </r>
       <r>    2.2615    1.0000 </r>
       <r>   13.0856    0.0000 </r>
       <r>   15.7225    0.0000 </r>
       <r>   17.0649    0.0000 </r>
       <r>   20.5033    0.0000 </r>
       <r>   24.0861    0.0000 </r>
       <r>   25.7073    0.0000 </r>
       <r>   29.8802    0.0000 </r>
       <r>   32.5856    0.0000 </r>
       <r>   33.4041    0.0000 </r>
       <r>   35.3849    0.0000 </r>
       <r>   39.0387    0.0000 </r>
       <r>   39.6114    0.0000 </r>
      </set>
      <set comment="kpoint 25">
       <r>  -12.5781    1.0000 </r>
       <r>   -0.5101    1.0000 </r>
       <r>    1.5247    1.0000 </r>
       <r>    1.9994    1.0000 </r>
       <r>   13.6434    0.0000 </r>
       <r>   13.8678    0.0000 </r>
       <r>   16.7310    0.0000 </r>
       <r>   21.1355    0.0000 </r>
       <r>   22.8404    0.0000 </r>
       <r>   28.0582    0.0000 </r>
       <r>   31.2718    0.0000 </r>
       <r>   32.4319    0.0000 </r>
       <r>   33.3515    0.0000 </r>
       <r>   37.4734    0.0000 </r>
       <r>   37.4892    0.0000 </r>
       <r>   41.8447    0.0000 </r>
      </set>
      <set comment="kpoint 26">
       <r>  -12.3938    1.0000 </r>
       <r>   -0.3687    1.0000 </r>
       <r>    0.6925    1.0000 </r>
       <r>    1.8591    1.0000 </r>
       <r>   13.9527    0.0000 </r>
       <r>   15.2737    0.0000 </r>
       <r>   16.0582    0.0000 </r>
       <r>   20.2489    0.0000 </r>
       <r>   23.6952    0.0000 </r>
       <r>   27.1269    0.0000 </r>
       <r>   30.9891    0.0000 </r>
       <r>   32.4177    0.0000 </r>
       <r>   33.6087    0.0000 </r>
       <r>   37.3977    0.0000 </r>
       <r>   40.1396    0.0000 </r>
       <r>   42.4746    0.0000 </r>
      </set>
      <set comment="kpoint 27">
       <r>  -12.4430    1.0000 </r>
       <r>   -0.2341    1.0000 </r>
       <r>    0.4689    1.0000 </r>
       <r>    2.0587    1.0000 </r>
       <r>   14.2004    0.0000 </r>
       <r>   15.1307    0.0000 </r>
       <r>   16.3718    0.0000 </r>
       <r>   20.2786    0.0000 </r>
       <r>   24.5432    0.0000 </r>
       <r>   25.0932    0.0000 </r>
       <r>   31.6752    0.0000 </r>
       <r>   32.3064    0.0000 </r>
       <r>   32.9526    0.0000 </r>
       <r>   37.9542    0.0000 </r>
       <r>   38.0678    0.0000 </r>
       <r>   43.0674    0.0000 </r>
      </set>
      <set comment="kpoint 28">
       <r>  -12.3628    1.0000 </r>
       <r>   -0.6614    1.0000 </r>
       <r>    1.3091    1.0000 </r>
       <r>    1.6682    1.0000 </r>
       <r>   13.2400    0.0000 </r>
       <r>   14.4623    0.0000 </r>
       <r>   16.2866    0.0000 </r>
       <r>   21.0162    0.0000 </r>
       <r>   23.3226    0.0000 </r>
       <r>   29.8482    0.0000 </r>
       <r>   29.9517    0.0000 </r>
       <r>   31.5496    0.0000 </r>
       <r>   34.8775    0.0000 </r>
       <r>   39.5957    0.0000 </r>
       <r>   40.2042    0.0000 </r>
       <r>   42.5622    0.0000 </r>
      </set>
      <set comment="kpoint 29">
       <r>  -12.3318    1.0000 </r>
       <r>    0.2007    1.0000 </r>
       <r>    0.2007    1.0000 </r>
       <r>    1.4548    1.0000 </r>
       <r>   15.0531    0.0000 </r>
       <r>   15.0531    0.0000 </r>
       <r>   15.8190    0.0000 </r>
       <r>   19.1488    0.0000 </r>
       <r>   25.5936    0.0000 </r>
       <r>   25.5936    0.0000 </r>
       <r>   30.1210    0.0000 </r>
       <r>   32.8024    0.0000 </r>
       <r>   35.4289    0.0000 </r>
       <r>   38.2986    0.0000 </r>
       <r>   41.4913    0.0000 </r>
       <r>   41.4913    0.0000 </r>
      </set>
     </set>
    </set>
   </array>
  </eigenvalues>
  <separator name="orbital magnetization" >
   <v name="MAGDIPOLOUT">      0.00000000      0.00000000      0.00000000</v>
  </separator>
  <dos>
   <i name="efermi">      3.63161529 </i>
   <total>
    <array>
     <dimension dim="1">gridpoints</dimension>
     <dimension dim="2">spin</dimension>
     <field>energy</field>
     <field>total</field>
     <field>integrated</field>
     <set>
      <set comment="spin 1">
       <r>   -16.9254     0.0000     0.0000 </r>
       <r>   -16.7159     0.0000     0.0000 </r>
       <r>   -16.5065     0.0000     0.0000 </r>
       <r>   -16.2970     0.0000     0.0000 </r>
       <r>   -16.0875     0.0000     0.0000 </r>
       <r>   -15.8780     0.0000     0.0000 </r>
       <r>   -15.6685     0.0000     0.0000 </r>
       <r>   -15.4590     0.0000     0.0000 </r>
       <r>   -15.2495     0.0000     0.0000 </r>
       <r>   -15.0400     0.0000     0.0000 </r>
       <r>   -14.8305     0.0000     0.0000 </r>
       <r>   -14.6210     0.0000     0.0000 </r>
       <r>   -14.4115     0.0000     0.0000 </r>
       <r>   -14.2020     0.0000     0.0000 </r>
       <r>   -13.9925     0.0187     0.0039 </r>
       <r>   -13.7830     0.2536     0.0570 </r>
       <r>   -13.5735     0.2148     0.1020 </r>
       <r>   -13.3640     0.6087     0.2296 </r>
       <r>   -13.1545     0.3160     0.2958 </r>
       <r>   -12.9450     1.0970     0.5256 </r>
       <r>   -12.7355     0.9991     0.7349 </r>
       <r>   -12.5260     2.7651     1.3142 </r>
       <r>   -12.3165     3.1894     1.9824 </r>
       <r>   -12.1070     0.0842     2.0000 </r>
       <r>   -11.8975     0.0000     2.0000 </r>
       <r>   -11.6880     0.0000     2.0000 </r>
       <r>   -11.4785     0.0000     2.0000 </r>
       <r>   -11.2690     0.0000     2.0000 </r>
       <r>   -11.0595     0.0000     2.0000 </r>
       <r>   -10.8500     0.0000     2.0000 </r>
       <r>   -10.6405     0.0000     2.0000 </r>
       <r>   -10.4310     0.0000     2.0000 </r>
       <r>   -10.2215     0.0000     2.0000 </r>
       <r>   -10.0120     0.0000     2.0000 </r>
       <r>    -9.8025     0.0000     2.0000 </r>
       <r>    -9.5930     0.0000     2.0000 </r>
       <r>    -9.3835     0.0000     2.0000 </r>
       <r>    -9.1740     0.0000     2.0000 </r>
       <r>    -8.9645     0.0000     2.0000 </r>
       <r>    -8.7550     0.0000     2.0000 </r>
       <r>    -8.5455     0.0000     2.0000 </r>
       <r>    -8.3360     0.0000     2.0000 </r>
       <r>    -8.1265     0.0000     2.0000 </r>
       <r>    -7.9170     0.0000     2.0000 </r>
       <r>    -7.7075     0.0000     2.0000 </r>
       <r>    -7.4980     0.0000     2.0000 </r>
       <r>    -7.2885     0.0000     2.0000 </r>
       <r>    -7.0790     0.0000     2.0000 </r>
       <r>    -6.8695     0.0000     2.0000 </r>
       <r>    -6.6600     0.0000     2.0000 </r>
       <r>    -6.4505     0.0000     2.0000 </r>
       <r>    -6.2410     0.0000     2.0000 </r>
       <r>    -6.0315     0.0000     2.0000 </r>
       <r>    -5.8220     0.0000     2.0000 </r>
       <r>    -5.6125     0.0000     2.0000 </r>
       <r>    -5.4030     0.0000     2.0000 </r>
       <r>    -5.1935     0.0000     2.0000 </r>
       <r>    -4.9840     0.0000     2.0000 </r>
       <r>    -4.7745     0.0000     2.0000 </r>
       <r>    -4.5650     0.0000     2.0000 </r>
       <r>    -4.3555     0.0000     2.0000 </r>
       <r>    -4.1460     0.0000     2.0000 </r>
       <r>    -3.9365     0.0000     2.0000 </r>
       <r>    -3.7270     0.0000     2.0000 </r>
       <r>    -3.5175     0.0000     2.0000 </r>
       <r>    -3.3080     0.0000     2.0000 </r>
       <r>    -3.0985     0.0000     2.0000 </r>
       <r>    -2.8890     0.0000     2.0000 </r>
       <r>    -2.6795     0.0000     2.0000 </r>
       <r>    -2.4700     0.0000     2.0000 </r>
       <r>    -2.2605     0.0000     2.0000 </r>
       <r>    -2.0510     0.0000     2.0000 </r>
       <r>    -1.8415     0.0000     2.0000 </r>
       <r>    -1.6320     0.0000     2.0000 </r>
       <r>    -1.4225     0.0743     2.0156 </r>
       <r>    -1.2130     0.3415     2.0871 </r>
       <r>    -1.0035     0.5377     2.1997 </r>
       <r>    -0.7940     0.7271     2.3521 </r>
       <r>    -0.5845     1.7175     2.7119 </r>
       <r>    -0.3750     2.1622     3.1649 </r>
       <r>    -0.1655     1.7059     3.5223 </r>
       <r>     0.0439     0.4446     3.6154 </r>
       <r>     0.2534     0.7144     3.7651 </r>
       <r>     0.4629     0.3236     3.8329 </r>
       <r>     0.6724     0.8849     4.0183 </r>
       <r>     0.8819     1.0851     4.2456 </r>
       <r>     1.0914     0.4501     4.3399 </r>
       <r>     1.3009     0.9765     4.5445 </r>
       <r>     1.5104     1.8128     4.9242 </r>
       <r>     1.7199     0.8864     5.1099 </r>
       <r>     1.9294     1.0164     5.3229 </r>
       <r>     2.1389     3.4679     6.0494 </r>
       <r>     2.3484     2.4378     6.5601 </r>
       <r>     2.5579     2.3586     7.0542 </r>
       <r>     2.7674     2.1986     7.5149 </r>
       <r>     2.9769     1.4677     7.8223 </r>
       <r>     3.1864     0.6157     7.9513 </r>
       <r>     3.3959     0.2320     7.9999 </r>
       <r>     3.6054     0.0003     8.0000 </r>
       <r>     3.8149     0.0000     8.0000 </r>
       <r>     4.0244     0.0000     8.0000 </r>
       <r>     4.2339     0.0000     8.0000 </r>
       <r>     4.4434     0.0000     8.0000 </r>
       <r>     4.6529     0.0000     8.0000 </r>
       <r>     4.8624     0.0000     8.0000 </r>
       <r>     5.0719     0.0000     8.0000 </r>
       <r>     5.2814     0.0000     8.0000 </r>
       <r>     5.4909     0.0000     8.0000 </r>
       <r>     5.7004     0.0000     8.0000 </r>
       <r>     5.9099     0.0000     8.0000 </r>
       <r>     6.1194     0.0000     8.0000 </r>
       <r>     6.3289     0.0000     8.0000 </r>
       <r>     6.5384     0.0000     8.0000 </r>
       <r>     6.7479     0.0000     8.0000 </r>
       <r>     6.9574     0.0000     8.0000 </r>
       <r>     7.1669     0.0000     8.0000 </r>
       <r>     7.3764     0.0000     8.0000 </r>
       <r>     7.5859     0.0000     8.0000 </r>
       <r>     7.7954     0.0000     8.0000 </r>
       <r>     8.0049     0.0000     8.0000 </r>
       <r>     8.2144     0.0009     8.0002 </r>
       <r>     8.4239     0.0177     8.0039 </r>
       <r>     8.6334     0.0000     8.0039 </r>
       <r>     8.8429     0.0000     8.0039 </r>
       <r>     9.0524     0.0000     8.0039 </r>
       <r>     9.2619     0.1463     8.0346 </r>
       <r>     9.4714     0.0355     8.0420 </r>
       <r>     9.6809     0.0792     8.0586 </r>
       <r>     9.8904     0.0000     8.0586 </r>
       <r>    10.0999     0.0000     8.0586 </r>
       <r>    10.3094     0.1885     8.0981 </r>
       <r>    10.5189     0.0361     8.1056 </r>
       <r>    10.7284     0.1671     8.1406 </r>
       <r>    10.9379     0.4287     8.2305 </r>
       <r>    11.1474     0.0024     8.2310 </r>
       <r>    11.3569     0.2207     8.2772 </r>
       <r>    11.5664     0.2216     8.3236 </r>
       <r>    11.7759     0.5735     8.4438 </r>
       <r>    11.9854     0.6857     8.5874 </r>
       <r>    12.1949     0.8697     8.7696 </r>
       <r>    12.4044     0.0554     8.7812 </r>
       <r>    12.6139     0.0006     8.7814 </r>
       <r>    12.8234     0.7590     8.9404 </r>
       <r>    13.0329     1.3436     9.2219 </r>
       <r>    13.2424     1.0510     9.4420 </r>
       <r>    13.4519     0.8489     9.6199 </r>
       <r>    13.6614     0.3910     9.7018 </r>
       <r>    13.8709     0.4219     9.7902 </r>
       <r>    14.0804     1.9257    10.1936 </r>
       <r>    14.2899     0.4729    10.2927 </r>
       <r>    14.4994     0.3040    10.3564 </r>
       <r>    14.7089     0.0540    10.3677 </r>
       <r>    14.9184     0.4265    10.4570 </r>
       <r>    15.1279     1.7201    10.8174 </r>
       <r>    15.3374     1.5426    11.1406 </r>
       <r>    15.5469     1.1665    11.3849 </r>
       <r>    15.7564     1.0931    11.6139 </r>
       <r>    15.9659     1.0591    11.8358 </r>
       <r>    16.1754     1.4930    12.1486 </r>
       <r>    16.3849     0.7528    12.3063 </r>
       <r>    16.5943     0.6010    12.4322 </r>
       <r>    16.8038     0.9897    12.6396 </r>
       <r>    17.0133     0.6646    12.7788 </r>
       <r>    17.2228     0.4220    12.8672 </r>
       <r>    17.4323     0.0868    12.8854 </r>
       <r>    17.6418     1.0738    13.1103 </r>
       <r>    17.8513     0.5547    13.2266 </r>
       <r>    18.0608     0.0000    13.2266 </r>
       <r>    18.2703     0.0000    13.2266 </r>
       <r>    18.4798     0.4560    13.3221 </r>
       <r>    18.6893     0.8012    13.4899 </r>
       <r>    18.8988     0.1360    13.5184 </r>
       <r>    19.1083     0.5619    13.6361 </r>
       <r>    19.3178     0.5621    13.7539 </r>
       <r>    19.5273     0.1749    13.7905 </r>
       <r>    19.7368     0.5091    13.8972 </r>
       <r>    19.9463     0.6796    14.0396 </r>
       <r>    20.1558     0.5826    14.1616 </r>
       <r>    20.3653     2.8345    14.7555 </r>
       <r>    20.5748     0.9525    14.9550 </r>
       <r>    20.7843     1.1482    15.1956 </r>
       <r>    20.9938     0.3336    15.2654 </r>
       <r>    21.2033     1.8688    15.6569 </r>
       <r>    21.4128     0.7145    15.8066 </r>
       <r>    21.6223     0.9673    16.0093 </r>
       <r>    21.8318     0.3768    16.0882 </r>
       <r>    22.0413     0.6417    16.2226 </r>
       <r>    22.2508     0.4609    16.3192 </r>
       <r>    22.4603     1.2448    16.5800 </r>
       <r>    22.6698     0.6754    16.7215 </r>
       <r>    22.8793     0.6852    16.8650 </r>
       <r>    23.0888     0.3337    16.9349 </r>
       <r>    23.2983     1.3559    17.2190 </r>
       <r>    23.5078     0.4082    17.3045 </r>
       <r>    23.7173     0.9083    17.4948 </r>
       <r>    23.9268     0.2858    17.5547 </r>
       <r>    24.1363     0.6941    17.7001 </r>
       <r>    24.3458     0.3351    17.7703 </r>
       <r>    24.5553     0.7563    17.9288 </r>
       <r>    24.7648     0.3808    18.0085 </r>
       <r>    24.9743     1.0850    18.2358 </r>
       <r>    25.1838     0.9861    18.4424 </r>
       <r>    25.3933     0.3228    18.5100 </r>
       <r>    25.6028     0.7214    18.6612 </r>
       <r>    25.8123     0.6820    18.8041 </r>
       <r>    26.0218     0.8580    18.9838 </r>
       <r>    26.2313     1.5316    19.3047 </r>
       <r>    26.4408     0.0961    19.3248 </r>
       <r>    26.6503     0.4474    19.4185 </r>
       <r>    26.8598     0.5191    19.5273 </r>
       <r>    27.0693     0.5505    19.6426 </r>
       <r>    27.2788     1.5535    19.9681 </r>
       <r>    27.4883     0.4135    20.0547 </r>
       <r>    27.6978     0.2682    20.1109 </r>
       <r>    27.9073     0.6268    20.2422 </r>
       <r>    28.1168     0.7326    20.3957 </r>
       <r>    28.3263     0.3664    20.4724 </r>
       <r>    28.5358     0.0011    20.4727 </r>
       <r>    28.7453     0.2102    20.5167 </r>
       <r>    28.9548     0.2356    20.5661 </r>
       <r>    29.1643     0.1266    20.5926 </r>
       <r>    29.3738     0.0428    20.6016 </r>
       <r>    29.5833     0.6357    20.7347 </r>
       <r>    29.7928     1.2727    21.0014 </r>
       <r>    30.0023     1.1368    21.2395 </r>
       <r>    30.2118     1.3983    21.5325 </r>
       <r>    30.4213     0.2205    21.5787 </r>
       <r>    30.6308     0.5120    21.6859 </r>
       <r>    30.8403     0.2126    21.7305 </r>
       <r>    31.0498     1.5505    22.0553 </r>
       <r>    31.2593     1.3121    22.3302 </r>
       <r>    31.4688     0.7626    22.4900 </r>
       <r>    31.6783     1.0354    22.7069 </r>
       <r>    31.8878     0.5814    22.8287 </r>
       <r>    32.0973     1.0493    23.0485 </r>
       <r>    32.3068     0.8350    23.2234 </r>
       <r>    32.5163     2.3500    23.7158 </r>
       <r>    32.7258     1.0002    23.9253 </r>
       <r>    32.9353     1.9811    24.3403 </r>
       <r>    33.1447     1.5910    24.6737 </r>
       <r>    33.3542     2.1111    25.1159 </r>
       <r>    33.5637     1.3163    25.3917 </r>
       <r>    33.7732     1.8619    25.7818 </r>
       <r>    33.9827     1.0332    25.9982 </r>
       <r>    34.1922     1.4458    26.3011 </r>
       <r>    34.4017     0.5599    26.4184 </r>
       <r>    34.6112     0.3007    26.4814 </r>
       <r>    34.8207     0.1568    26.5143 </r>
       <r>    35.0302     0.6789    26.6565 </r>
       <r>    35.2397     0.5578    26.7734 </r>
       <r>    35.4492     0.6060    26.9003 </r>
       <r>    35.6587     0.0495    26.9107 </r>
       <r>    35.8682     0.8959    27.0984 </r>
       <r>    36.0777     1.3323    27.3775 </r>
       <r>    36.2872     0.0068    27.3789 </r>
       <r>    36.4967     0.2697    27.4354 </r>
       <r>    36.7062     2.0948    27.8743 </r>
       <r>    36.9157     0.3822    27.9543 </r>
       <r>    37.1252     0.5350    28.0664 </r>
       <r>    37.3347     0.0336    28.0734 </r>
       <r>    37.5442     1.8007    28.4507 </r>
       <r>    37.7537     0.4035    28.5352 </r>
       <r>    37.9632     0.8726    28.7180 </r>
       <r>    38.1727     1.0470    28.9374 </r>
       <r>    38.3822     0.2710    28.9942 </r>
       <r>    38.5917     1.0372    29.2114 </r>
       <r>    38.8012     0.5206    29.3205 </r>
       <r>    39.0107     0.8075    29.4897 </r>
       <r>    39.2202     0.8724    29.6724 </r>
       <r>    39.4297     1.1147    29.9060 </r>
       <r>    39.6392     0.6473    30.0416 </r>
       <r>    39.8487     0.5997    30.1672 </r>
       <r>    40.0582     0.1077    30.1898 </r>
       <r>    40.2677     1.7788    30.5624 </r>
       <r>    40.4772     0.9956    30.7710 </r>
       <r>    40.6867     0.1595    30.8044 </r>
       <r>    40.8962     0.0547    30.8159 </r>
       <r>    41.1057     0.1981    30.8574 </r>
       <r>    41.3152     0.0520    30.8683 </r>
       <r>    41.5247     0.8492    31.0462 </r>
       <r>    41.7342     0.2358    31.0956 </r>
       <r>    41.9437     0.5494    31.2107 </r>
       <r>    42.1532     0.0099    31.2128 </r>
       <r>    42.3627     1.6812    31.5650 </r>
       <r>    42.5722     1.5251    31.8845 </r>
       <r>    42.7817     0.1039    31.9062 </r>
       <r>    42.9912     0.0070    31.9077 </r>
       <r>    43.2007     0.4405    32.0000 </r>
       <r>    43.4102     0.0000    32.0000 </r>
       <r>    43.6197     0.0000    32.0000 </r>
       <r>    43.8292     0.0000    32.0000 </r>
       <r>    44.0387     0.0000    32.0000 </r>
       <r>    44.2482     0.0000    32.0000 </r>
       <r>    44.4577     0.0000    32.0000 </r>
       <r>    44.6672     0.0000    32.0000 </r>
       <r>    44.8767     0.0000    32.0000 </r>
       <r>    45.0862     0.0000    32.0000 </r>
       <r>    45.2957     0.0000    32.0000 </r>
       <r>    45.5052     0.0000    32.0000 </r>
       <r>    45.7147     0.0000    32.0000 </r>
       <r>    45.9242     0.0000    32.0000 </r>
      </set>
     </set>
    </array>
   </total>
   <partial>
    <array>
     <dimension dim="1">gridpoints</dimension>
     <dimension dim="2">spin</dimension>
     <dimension dim="3">ion</dimension>
     <field>energy</field>
     <field>  s</field>
     <field> py</field>
     <field> pz</field>
     <field> px</field>
     <field>dxy</field>
     <field>dyz</field>
     <field>dz2</field>
     <field>dxz</field>
     <field>dx2</field>
     <set>
      <set comment="ion 1">
       <set comment="spin 1">
        <r>   -16.9254     0.0000     0.0000     0.0000     0.0000     0.0000     0.0000     0.0000     0.0000     0.0000 </r>
        <r>   -16.7159     0.0000     0.0000     0.0000     0.0000     0.0000     0.0000     0.0000     0.0000     0.0000 </r>
        <r>   -16.5065     0.0000     0.0000     0.0000     0.0000     0.0000     0.0000     0.0000     0.0000     0.0000 </r>
        <r>   -16.2970     0.0000     0.0000     0.0000     0.0000     0.0000     0.0000     0.0000     0.0000     0.0000 </r>
        <r>   -16.0875     0.0000     0.0000     0.0000     0.0000     0.0000     0.0000     0.0000     0.0000     0.0000 </r>
        <r>   -15.8780     0.0000     0.0000     0.0000     0.0000     0.0000     0.0000     0.0000     0.0000     0.0000 </r>
        <r>   -15.6685     0.0000     0.0000     0.0000     0.0000     0.0000     0.0000     0.0000     0.0000     0.0000 </r>
        <r>   -15.4590     0.0000     0.0000     0.0000     0.0000     0.0000     0.0000     0.0000     0.0000     0.0000 </r>
        <r>   -15.2495     0.0000     0.0000     0.0000     0.0000     0.0000     0.0000     0.0000     0.0000     0.0000 </r>
        <r>   -15.0400     0.0000     0.0000     0.0000     0.0000     0.0000     0.0000     0.0000     0.0000     0.0000 </r>
        <r>   -14.8305     0.0000     0.0000     0.0000     0.0000     0.0000     0.0000     0.0000     0.0000     0.0000 </r>
        <r>   -14.6210     0.0000     0.0000     0.0000     0.0000     0.0000     0.0000     0.0000     0.0000     0.0000 </r>
        <r>   -14.4115     0.0000     0.0000     0.0000     0.0000     0.0000     0.0000     0.0000     0.0000     0.0000 </r>
        <r>   -14.2020     0.0000     0.0000     0.0000     0.0000     0.0000     0.0000     0.0000     0.0000     0.0000 </r>
        <r>   -13.9925     0.0126     0.0000     0.0000     0.0000     0.0000     0.0000     0.0000     0.0000     0.0000 </r>
        <r>   -13.7830     0.1734     0.0000     0.0000     0.0001     0.0000     0.0000     0.0000     0.0000     0.0000 </r>
        <r>   -13.5735     0.1500     0.0002     0.0000     0.0001     0.0000     0.0000     0.0000     0.0000     0.0000 </r>
        <r>   -13.3640     0.4316     0.0001     0.0000     0.0007     0.0000     0.0000     0.0000     0.0000     0.0000 </r>
        <r>   -13.1545     0.2306     0.0002     0.0000     0.0003     0.0000     0.0000     0.0000     0.0000     0.0000 </r>
        <r>   -12.9450     0.8094     0.0002     0.0001     0.0012     0.0000     0.0000     0.0000     0.0000     0.0000 </r>
        <r>   -12.7355     0.7555     0.0002     0.0000     0.0008     0.0000     0.0000     0.0000     0.0000     0.0000 </r>
        <r>   -12.5260     2.1371     0.0003     0.0001     0.0011     0.0000     0.0000     0.0000     0.0000     0.0000 </r>
        <r>   -12.3165     2.5225     0.0002     0.0000     0.0002     0.0000     0.0000     0.0000     0.0000     0.0000 </r>
        <r>   -12.1070     0.0672     0.0000     0.0000     0.0000     0.0000     0.0000     0.0000     0.0000     0.0000 </r>
        <r>   -11.8975     0.0000     0.0000     0.0000     0.0000     0.0000     0.0000     0.0000     0.0000     0.0000 </r>
        <r>   -11.6880     0.0000     0.0000     0.0000     0.0000     0.0000     0.0000     0.0000     0.0000     0.0000 </r>
        <r>   -11.4785     0.0000     0.0000     0.0000     0.0000     0.0000     0.0000     0.0000     0.0000     0.0000 </r>
        <r>   -11.2690     0.0000     0.0000     0.0000     0.0000     0.0000     0.0000     0.0000     0.0000     0.0000 </r>
        <r>   -11.0595     0.0000     0.0000     0.0000     0.0000     0.0000     0.0000     0.0000     0.0000     0.0000 </r>
        <r>   -10.8500     0.0000     0.0000     0.0000     0.0000     0.0000     0.0000     0.0000     0.0000     0.0000 </r>
        <r>   -10.6405     0.0000     0.0000     0.0000     0.0000     0.0000     0.0000     0.0000     0.0000     0.0000 </r>
        <r>   -10.4310     0.0000     0.0000     0.0000     0.0000     0.0000     0.0000     0.0000     0.0000     0.0000 </r>
        <r>   -10.2215     0.0000     0.0000     0.0000     0.0000     0.0000     0.0000     0.0000     0.0000     0.0000 </r>
        <r>   -10.0120     0.0000     0.0000     0.0000     0.0000     0.0000     0.0000     0.0000     0.0000     0.0000 </r>
        <r>    -9.8025     0.0000     0.0000     0.0000     0.0000     0.0000     0.0000     0.0000     0.0000     0.0000 </r>
        <r>    -9.5930     0.0000     0.0000     0.0000     0.0000     0.0000     0.0000     0.0000     0.0000     0.0000 </r>
        <r>    -9.3835     0.0000     0.0000     0.0000     0.0000     0.0000     0.0000     0.0000     0.0000     0.0000 </r>
        <r>    -9.1740     0.0000     0.0000     0.0000     0.0000     0.0000     0.0000     0.0000     0.0000     0.0000 </r>
        <r>    -8.9645     0.0000     0.0000     0.0000     0.0000     0.0000     0.0000     0.0000     0.0000     0.0000 </r>
        <r>    -8.7550     0.0000     0.0000     0.0000     0.0000     0.0000     0.0000     0.0000     0.0000     0.0000 </r>
        <r>    -8.5455     0.0000     0.0000     0.0000     0.0000     0.0000     0.0000     0.0000     0.0000     0.0000 </r>
        <r>    -8.3360     0.0000     0.0000     0.0000     0.0000     0.0000     0.0000     0.0000     0.0000     0.0000 </r>
        <r>    -8.1265     0.0000     0.0000     0.0000     0.0000     0.0000     0.0000     0.0000     0.0000     0.0000 </r>
        <r>    -7.9170     0.0000     0.0000     0.0000     0.0000     0.0000     0.0000     0.0000     0.0000     0.0000 </r>
        <r>    -7.7075     0.0000     0.0000     0.0000     0.0000     0.0000     0.0000     0.0000     0.0000     0.0000 </r>
        <r>    -7.4980     0.0000     0.0000     0.0000     0.0000     0.0000     0.0000     0.0000     0.0000     0.0000 </r>
        <r>    -7.2885     0.0000     0.0000     0.0000     0.0000     0.0000     0.0000     0.0000     0.0000     0.0000 </r>
        <r>    -7.0790     0.0000     0.0000     0.0000     0.0000     0.0000     0.0000     0.0000     0.0000     0.0000 </r>
        <r>    -6.8695     0.0000     0.0000     0.0000     0.0000     0.0000     0.0000     0.0000     0.0000     0.0000 </r>
        <r>    -6.6600     0.0000     0.0000     0.0000     0.0000     0.0000     0.0000     0.0000     0.0000     0.0000 </r>
        <r>    -6.4505     0.0000     0.0000     0.0000     0.0000     0.0000     0.0000     0.0000     0.0000     0.0000 </r>
        <r>    -6.2410     0.0000     0.0000     0.0000     0.0000     0.0000     0.0000     0.0000     0.0000     0.0000 </r>
        <r>    -6.0315     0.0000     0.0000     0.0000     0.0000     0.0000     0.0000     0.0000     0.0000     0.0000 </r>
        <r>    -5.8220     0.0000     0.0000     0.0000     0.0000     0.0000     0.0000     0.0000     0.0000     0.0000 </r>
        <r>    -5.6125     0.0000     0.0000     0.0000     0.0000     0.0000     0.0000     0.0000     0.0000     0.0000 </r>
        <r>    -5.4030     0.0000     0.0000     0.0000     0.0000     0.0000     0.0000     0.0000     0.0000     0.0000 </r>
        <r>    -5.1935     0.0000     0.0000     0.0000     0.0000     0.0000     0.0000     0.0000     0.0000     0.0000 </r>
        <r>    -4.9840     0.0000     0.0000     0.0000     0.0000     0.0000     0.0000     0.0000     0.0000     0.0000 </r>
        <r>    -4.7745     0.0000     0.0000     0.0000     0.0000     0.0000     0.0000     0.0000     0.0000     0.0000 </r>
        <r>    -4.5650     0.0000     0.0000     0.0000     0.0000     0.0000     0.0000     0.0000     0.0000     0.0000 </r>
        <r>    -4.3555     0.0000     0.0000     0.0000     0.0000     0.0000     0.0000     0.0000     0.0000     0.0000 </r>
        <r>    -4.1460     0.0000     0.0000     0.0000     0.0000     0.0000     0.0000     0.0000     0.0000     0.0000 </r>
        <r>    -3.9365     0.0000     0.0000     0.0000     0.0000     0.0000     0.0000     0.0000     0.0000     0.0000 </r>
        <r>    -3.7270     0.0000     0.0000     0.0000     0.0000     0.0000     0.0000     0.0000     0.0000     0.0000 </r>
        <r>    -3.5175     0.0000     0.0000     0.0000     0.0000     0.0000     0.0000     0.0000     0.0000     0.0000 </r>
        <r>    -3.3080     0.0000     0.0000     0.0000     0.0000     0.0000     0.0000     0.0000     0.0000     0.0000 </r>
        <r>    -3.0985     0.0000     0.0000     0.0000     0.0000     0.0000     0.0000     0.0000     0.0000     0.0000 </r>
        <r>    -2.8890     0.0000     0.0000     0.0000     0.0000     0.0000     0.0000     0.0000     0.0000     0.0000 </r>
        <r>    -2.6795     0.0000     0.0000     0.0000     0.0000     0.0000     0.0000     0.0000     0.0000     0.0000 </r>
        <r>    -2.4700     0.0000     0.0000     0.0000     0.0000     0.0000     0.0000     0.0000     0.0000     0.0000 </r>
        <r>    -2.2605     0.0000     0.0000     0.0000     0.0000     0.0000     0.0000     0.0000     0.0000     0.0000 </r>
        <r>    -2.0510     0.0000     0.0000     0.0000     0.0000     0.0000     0.0000     0.0000     0.0000     0.0000 </r>
        <r>    -1.8415     0.0000     0.0000     0.0000     0.0000     0.0000     0.0000     0.0000     0.0000     0.0000 </r>
        <r>    -1.6320     0.0000     0.0000     0.0000     0.0000     0.0000     0.0000     0.0000     0.0000     0.0000 </r>
        <r>    -1.4225     0.0000     0.0035     0.0000     0.0284     0.0000     0.0000     0.0000     0.0000     0.0000 </r>
        <r>    -1.2130     0.0007     0.0119     0.0000     0.1385     0.0000     0.0000     0.0000     0.0000     0.0000 </r>
        <r>    -1.0035     0.0037     0.0358     0.0000     0.2036     0.0000     0.0000     0.0000     0.0000     0.0000 </r>
        <r>    -0.7940     0.0030     0.0424     0.0003     0.2887     0.0000     0.0000     0.0000     0.0000     0.0000 </r>
        <r>    -0.5845     0.0105     0.1090     0.0021     0.6907     0.0000     0.0000     0.0000     0.0000     0.0000 </r>
        <r>    -0.3750     0.0309     0.0786     0.0145     0.9264     0.0000     0.0000     0.0000     0.0000     0.0000 </r>
        <r>    -0.1655     0.0204     0.2428     0.0098     0.5703     0.0000     0.0000     0.0000     0.0000     0.0000 </r>
        <r>     0.0439     0.0151     0.0647     0.0003     0.1501     0.0000     0.0000     0.0000     0.0000     0.0000 </r>
        <r>     0.2534     0.0198     0.0562     0.0531     0.2466     0.0000     0.0000     0.0000     0.0000     0.0000 </r>
        <r>     0.4629     0.0003     0.0753     0.0023     0.0938     0.0000     0.0000     0.0000     0.0000     0.0000 </r>
        <r>     0.6724     0.0116     0.2316     0.0168     0.2194     0.0000     0.0000     0.0000     0.0000     0.0000 </r>
        <r>     0.8819     0.0028     0.5039     0.0420     0.0482     0.0000     0.0000     0.0000     0.0000     0.0000 </r>
        <r>     1.0914     0.0206     0.0043     0.0000     0.2341     0.0000     0.0000     0.0000     0.0000     0.0000 </r>
        <r>     1.3009     0.0031     0.3740     0.0817     0.1137     0.0000     0.0000     0.0000     0.0000     0.0000 </r>
        <r>     1.5104     0.0129     0.6501     0.3049     0.1231     0.0000     0.0000     0.0000     0.0000     0.0000 </r>
        <r>     1.7199     0.0006     0.2559     0.2104     0.0757     0.0000     0.0000     0.0000     0.0000     0.0000 </r>
        <r>     1.9294     0.0000     0.0970     0.5449     0.0129     0.0000     0.0000     0.0000     0.0000     0.0000 </r>
        <r>     2.1389     0.0037     1.0530     1.0422     0.1730     0.0000     0.0000     0.0000     0.0000     0.0000 </r>
        <r>     2.3484     0.0090     0.3922     1.0256     0.2167     0.0000     0.0000     0.0000     0.0000     0.0000 </r>
        <r>     2.5579     0.0025     0.5465     1.0209     0.0567     0.0000     0.0000     0.0000     0.0000     0.0000 </r>
        <r>     2.7674     0.0003     0.4629     0.9951     0.0979     0.0000     0.0000     0.0000     0.0000     0.0000 </r>
        <r>     2.9769     0.0004     0.3337     0.6784     0.0446     0.0000     0.0000     0.0000     0.0000     0.0000 </r>
        <r>     3.1864     0.0000     0.1114     0.3103     0.0343     0.0000     0.0000     0.0000     0.0000     0.0000 </r>
        <r>     3.3959     0.0000     0.0718     0.0810     0.0213     0.0000     0.0000     0.0000     0.0000     0.0000 </r>
        <r>     3.6054     0.0000     0.0001     0.0001     0.0001     0.0000     0.0000     0.0000     0.0000     0.0000 </r>
        <r>     3.8149     0.0000     0.0000     0.0000     0.0000     0.0000     0.0000     0.0000     0.0000     0.0000 </r>
        <r>     4.0244     0.0000     0.0000     0.0000     0.0000     0.0000     0.0000     0.0000     0.0000     0.0000 </r>
        <r>     4.2339     0.0000     0.0000     0.0000     0.0000     0.0000     0.0000     0.0000     0.0000     0.0000 </r>
        <r>     4.4434     0.0000     0.0000     0.0000     0.0000     0.0000     0.0000     0.0000     0.0000     0.0000 </r>
        <r>     4.6529     0.0000     0.0000     0.0000     0.0000     0.0000     0.0000     0.0000     0.0000     0.0000 </r>
        <r>     4.8624     0.0000     0.0000     0.0000     0.0000     0.0000     0.0000     0.0000     0.0000     0.0000 </r>
        <r>     5.0719     0.0000     0.0000     0.0000     0.0000     0.0000     0.0000     0.0000     0.0000     0.0000 </r>
        <r>     5.2814     0.0000     0.0000     0.0000     0.0000     0.0000     0.0000     0.0000     0.0000     0.0000 </r>
        <r>     5.4909     0.0000     0.0000     0.0000     0.0000     0.0000     0.0000     0.0000     0.0000     0.0000 </r>
        <r>     5.7004     0.0000     0.0000     0.0000     0.0000     0.0000     0.0000     0.0000     0.0000     0.0000 </r>
        <r>     5.9099     0.0000     0.0000     0.0000     0.0000     0.0000     0.0000     0.0000     0.0000     0.0000 </r>
        <r>     6.1194     0.0000     0.0000     0.0000     0.0000     0.0000     0.0000     0.0000     0.0000     0.0000 </r>
        <r>     6.3289     0.0000     0.0000     0.0000     0.0000     0.0000     0.0000     0.0000     0.0000     0.0000 </r>
        <r>     6.5384     0.0000     0.0000     0.0000     0.0000     0.0000     0.0000     0.0000     0.0000     0.0000 </r>
        <r>     6.7479     0.0000     0.0000     0.0000     0.0000     0.0000     0.0000     0.0000     0.0000     0.0000 </r>
        <r>     6.9574     0.0000     0.0000     0.0000     0.0000     0.0000     0.0000     0.0000     0.0000     0.0000 </r>
        <r>     7.1669     0.0000     0.0000     0.0000     0.0000     0.0000     0.0000     0.0000     0.0000     0.0000 </r>
        <r>     7.3764     0.0000     0.0000     0.0000     0.0000     0.0000     0.0000     0.0000     0.0000     0.0000 </r>
        <r>     7.5859     0.0000     0.0000     0.0000     0.0000     0.0000     0.0000     0.0000     0.0000     0.0000 </r>
        <r>     7.7954     0.0000     0.0000     0.0000     0.0000     0.0000     0.0000     0.0000     0.0000     0.0000 </r>
        <r>     8.0049     0.0000     0.0000     0.0000     0.0000     0.0000     0.0000     0.0000     0.0000     0.0000 </r>
        <r>     8.2144     0.0002     0.0000     0.0000     0.0000     0.0000     0.0000     0.0000     0.0000     0.0000 </r>
        <r>     8.4239     0.0048     0.0000     0.0000     0.0000     0.0000     0.0000     0.0000     0.0000     0.0000 </r>
        <r>     8.6334     0.0000     0.0000     0.0000     0.0000     0.0000     0.0000     0.0000     0.0000     0.0000 </r>
        <r>     8.8429     0.0000     0.0000     0.0000     0.0000     0.0000     0.0000     0.0000     0.0000     0.0000 </r>
        <r>     9.0524     0.0000     0.0000     0.0000     0.0000     0.0000     0.0000     0.0000     0.0000     0.0000 </r>
        <r>     9.2619     0.0328     0.0017     0.0000     0.0138     0.0000     0.0000     0.0000     0.0000     0.0000 </r>
        <r>     9.4714     0.0076     0.0016     0.0000     0.0033     0.0000     0.0000     0.0000     0.0000     0.0000 </r>
        <r>     9.6809     0.0168     0.0037     0.0000     0.0074     0.0000     0.0000     0.0000     0.0000     0.0000 </r>
        <r>     9.8904     0.0000     0.0000     0.0000     0.0000     0.0000     0.0000     0.0000     0.0000     0.0000 </r>
        <r>    10.0999     0.0000     0.0000     0.0000     0.0000     0.0000     0.0000     0.0000     0.0000     0.0000 </r>
        <r>    10.3094     0.0349     0.0222     0.0000     0.0111     0.0000     0.0000     0.0000     0.0000     0.0000 </r>
        <r>    10.5189     0.0067     0.0042     0.0000     0.0022     0.0000     0.0000     0.0000     0.0000     0.0000 </r>
        <r>    10.7284     0.0284     0.0025     0.0000     0.0213     0.0000     0.0000     0.0000     0.0000     0.0000 </r>
        <r>    10.9379     0.0721     0.0058     0.0000     0.0790     0.0000     0.0000     0.0000     0.0000     0.0000 </r>
        <r>    11.1474     0.0003     0.0000     0.0000     0.0001     0.0000     0.0000     0.0000     0.0000     0.0000 </r>
        <r>    11.3569     0.0280     0.0006     0.0000     0.0052     0.0000     0.0000     0.0000     0.0000     0.0000 </r>
        <r>    11.5664     0.0312     0.0252     0.0000     0.0132     0.0000     0.0000     0.0000     0.0000     0.0000 </r>
        <r>    11.7759     0.0772     0.0398     0.0000     0.0582     0.0000     0.0000     0.0000     0.0000     0.0000 </r>
        <r>    11.9854     0.0755     0.0346     0.0002     0.0317     0.0000     0.0000     0.0000     0.0000     0.0000 </r>
        <r>    12.1949     0.1028     0.0397     0.0083     0.0921     0.0000     0.0000     0.0000     0.0000     0.0000 </r>
        <r>    12.4044     0.0000     0.0000     0.0000     0.0000     0.0000     0.0000     0.0000     0.0000     0.0000 </r>
        <r>    12.6139     0.0001     0.0000     0.0000     0.0001     0.0000     0.0000     0.0000     0.0000     0.0000 </r>
        <r>    12.8234     0.0471     0.0305     0.0000     0.0729     0.0000     0.0000     0.0000     0.0000     0.0000 </r>
        <r>    13.0329     0.0998     0.0813     0.0335     0.1035     0.0000     0.0000     0.0000     0.0000     0.0000 </r>
        <r>    13.2424     0.0629     0.0913     0.0228     0.0250     0.0000     0.0000     0.0000     0.0000     0.0000 </r>
        <r>    13.4519     0.0421     0.0847     0.0053     0.0176     0.0000     0.0000     0.0000     0.0000     0.0000 </r>
        <r>    13.6614     0.0038     0.0117     0.0155     0.0058     0.0000     0.0000     0.0000     0.0000     0.0000 </r>
        <r>    13.8709     0.0184     0.0115     0.0113     0.0512     0.0000     0.0000     0.0000     0.0000     0.0000 </r>
        <r>    14.0804     0.0598     0.1001     0.0547     0.1130     0.0000     0.0000     0.0000     0.0000     0.0000 </r>
        <r>    14.2899     0.0231     0.0572     0.0170     0.0312     0.0000     0.0000     0.0000     0.0000     0.0000 </r>
        <r>    14.4994     0.0079     0.0040     0.0056     0.0020     0.0000     0.0000     0.0000     0.0000     0.0000 </r>
        <r>    14.7089     0.0013     0.0013     0.0020     0.0007     0.0000     0.0000     0.0000     0.0000     0.0000 </r>
        <r>    14.9184     0.0000     0.0137     0.0206     0.0069     0.0000     0.0000     0.0000     0.0000     0.0000 </r>
        <r>    15.1279     0.0109     0.0901     0.0305     0.3746     0.0000     0.0000     0.0000     0.0000     0.0000 </r>
        <r>    15.3374     0.0152     0.0508     0.0015     0.3960     0.0000     0.0000     0.0000     0.0000     0.0000 </r>
        <r>    15.5469     0.0051     0.0437     0.0000     0.1834     0.0000     0.0000     0.0000     0.0000     0.0000 </r>
        <r>    15.7564     0.0001     0.0180     0.0017     0.3073     0.0000     0.0000     0.0000     0.0000     0.0000 </r>
        <r>    15.9659     0.0014     0.0362     0.0097     0.3389     0.0000     0.0000     0.0000     0.0000     0.0000 </r>
        <r>    16.1754     0.0005     0.1688     0.0164     0.1943     0.0000     0.0000     0.0000     0.0000     0.0000 </r>
        <r>    16.3849     0.0001     0.0614     0.0101     0.1100     0.0000     0.0000     0.0000     0.0000     0.0000 </r>
        <r>    16.5943     0.0004     0.0809     0.0056     0.0976     0.0000     0.0000     0.0000     0.0000     0.0000 </r>
        <r>    16.8038     0.0007     0.1096     0.0068     0.0470     0.0000     0.0000     0.0000     0.0000     0.0000 </r>
        <r>    17.0133     0.0001     0.0516     0.0014     0.0221     0.0000     0.0000     0.0000     0.0000     0.0000 </r>
        <r>    17.2228     0.0000     0.0112     0.0160     0.0064     0.0000     0.0000     0.0000     0.0000     0.0000 </r>
        <r>    17.4323     0.0000     0.0009     0.0007     0.0024     0.0000     0.0000     0.0000     0.0000     0.0000 </r>
        <r>    17.6418     0.0004     0.0360     0.0278     0.0151     0.0000     0.0000     0.0000     0.0000     0.0000 </r>
        <r>    17.8513     0.0002     0.0384     0.0000     0.0122     0.0000     0.0000     0.0000     0.0000     0.0000 </r>
        <r>    18.0608     0.0000     0.0000     0.0000     0.0000     0.0000     0.0000     0.0000     0.0000     0.0000 </r>
        <r>    18.2703     0.0000     0.0000     0.0000     0.0000     0.0000     0.0000     0.0000     0.0000     0.0000 </r>
        <r>    18.4798     0.0000     0.0115     0.0000     0.0003     0.0000     0.0000     0.0000     0.0000     0.0000 </r>
        <r>    18.6893     0.0005     0.0254     0.0104     0.0036     0.0000     0.0000     0.0000     0.0000     0.0000 </r>
        <r>    18.8988     0.0001     0.0030     0.0025     0.0007     0.0000     0.0000     0.0000     0.0000     0.0000 </r>
        <r>    19.1083     0.0016     0.0112     0.0000     0.0046     0.0000     0.0000     0.0000     0.0000     0.0000 </r>
        <r>    19.3178     0.0104     0.0223     0.0000     0.0056     0.0000     0.0000     0.0000     0.0000     0.0000 </r>
        <r>    19.5273     0.0000     0.0008     0.0009     0.0001     0.0000     0.0000     0.0000     0.0000     0.0000 </r>
        <r>    19.7368     0.0001     0.0126     0.0040     0.0061     0.0000     0.0000     0.0000     0.0000     0.0000 </r>
        <r>    19.9463     0.0002     0.0090     0.0013     0.0093     0.0000     0.0000     0.0000     0.0000     0.0000 </r>
[...]
       </set>
       <set comment="band 12">
        <r>  0.0235  0.0493  0.0185  0.0062  0.0000  0.0000  0.0000  0.0000  0.0000 </r>
        <r>  0.0000  0.0193  0.0261  0.0128  0.3048  0.0578  0.0372  0.0868  0.0918 </r>
       </set>
       <set comment="band 13">
        <r>  0.0000  0.0404  0.0745  0.0092  0.0000  0.0000  0.0000  0.0000  0.0000 </r>
        <r>  0.0177  0.0097  0.0036  0.0012  0.0661  0.1751  0.0275  0.2397  0.0548 </r>
       </set>
       <set comment="band 14">
        <r>  0.0178  0.0404  0.0152  0.0051  0.0000  0.0000  0.0000  0.0000  0.0000 </r>
        <r>  0.0000  0.0009  0.0159  0.0920  0.0129  0.0102  0.0183  0.0002  0.0001 </r>
       </set>
       <set comment="band 15">
        <r>  0.0000  0.0008  0.0138  0.0154  0.0000  0.0000  0.0000  0.0000  0.0000 </r>
        <r>  0.0453  0.0158  0.0059  0.0020  0.0760  0.0022  0.0102  0.4894  0.0778 </r>
       </set>
       <set comment="band 16">
        <r>  0.0309  0.0001  0.0000  0.0000  0.0000  0.0000  0.0000  0.0000  0.0000 </r>
        <r>  0.0000  0.0079  0.0397  0.0089  0.1286  0.0020  0.0612  0.1360  0.2241 </r>
       </set>
      </set>
      <set comment="kpoint 25">
       <set comment="band 1">
        <r>  0.7779  0.0001  0.0000  0.0005  0.0000  0.0000  0.0000  0.0000  0.0000 </r>
        <r>  0.0067  0.0000  0.0017  0.0063  0.0039  0.0001  0.0015  0.0001  0.0006 </r>
       </set>
       <set comment="band 2">
        <r>  0.0149  0.0701  0.0197  0.3812  0.0000  0.0000  0.0000  0.0000  0.0000 </r>
        <r>  0.0341  0.0213  0.0005  0.0280  0.0050  0.0014  0.0013  0.0003  0.0002 </r>
       </set>
       <set comment="band 3">
        <r>  0.0000  0.2029  0.3043  0.1014  0.0000  0.0000  0.0000  0.0000  0.0000 </r>
        <r>  0.0000  0.0176  0.0264  0.0088  0.0016  0.0003  0.0031  0.0006  0.0003 </r>
       </set>
       <set comment="band 4">
        <r>  0.0000  0.3379  0.3001  0.0161  0.0000  0.0000  0.0000  0.0000  0.0000 </r>
        <r>  0.0142  0.0012  0.0098  0.0152  0.0030  0.0055  0.0014  0.0009  0.0014 </r>
       </set>
       <set comment="band 5">
        <r>  0.0000  0.0333  0.0499  0.0166  0.0000  0.0000  0.0000  0.0000  0.0000 </r>
        <r>  0.0000  0.0056  0.0084  0.0028  0.0357  0.0001  0.1125  0.0002  0.0021 </r>
       </set>
       <set comment="band 6">
        <r>  0.0752  0.0233  0.0166  0.1929  0.0000  0.0000  0.0000  0.0000  0.0000 </r>
        <r>  0.2222  0.0015  0.0142  0.0229  0.0044  0.0001  0.0021  0.0014  0.0026 </r>
       </set>
       <set comment="band 7">
        <r>  0.0004  0.0945  0.0155  0.0479  0.0000  0.0000  0.0000  0.0000  0.0000 </r>
        <r>  0.1737  0.0444  0.0004  0.1115  0.0001  0.0032  0.0000  0.0004  0.0024 </r>
       </set>
       <set comment="band 8">
        <r>  0.0214  0.0039  0.0550  0.1007  0.0000  0.0000  0.0000  0.0000  0.0000 </r>
        <r>  0.0112  0.1299  0.1449  0.0224  0.0128  0.0000  0.0025  0.0143  0.0037 </r>
       </set>
       <set comment="band 9">
        <r>  0.0000  0.0551  0.0827  0.0276  0.0000  0.0000  0.0000  0.0000  0.0000 </r>
        <r>  0.0000  0.0790  0.1185  0.0395  0.0050  0.0054  0.0433  0.0107  0.0255 </r>
       </set>
       <set comment="band 10">
        <r>  0.0222  0.0067  0.0127  0.0063  0.0000  0.0000  0.0000  0.0000  0.0000 </r>
        <r>  0.0001  0.0306  0.0076  0.0092  0.0708  0.3522  0.0099  0.0014  0.0559 </r>
       </set>
       <set comment="band 11">
        <r>  0.0733  0.0735  0.0284  0.0084  0.0000  0.0000  0.0000  0.0000  0.0000 </r>
        <r>  0.0422  0.0099  0.0072  0.0000  0.2944  0.0415  0.1288  0.0002  0.1087 </r>
       </set>
       <set comment="band 12">
        <r>  0.0003  0.0000  0.0046  0.0135  0.0000  0.0000  0.0000  0.0000  0.0000 </r>
        <r>  0.0106  0.0231  0.0007  0.0289  0.0053  0.1079  0.0008  0.4511  0.1258 </r>
       </set>
       <set comment="band 13">
        <r>  0.0000  0.0003  0.0004  0.0001  0.0000  0.0000  0.0000  0.0000  0.0000 </r>
        <r>  0.0000  0.0442  0.0663  0.0221  0.0392  0.1176  0.0000  0.2352  0.3136 </r>
       </set>
       <set comment="band 14">
        <r>  0.0000  0.0117  0.0176  0.0059  0.0000  0.0000  0.0000  0.0000  0.0000 </r>
        <r>  0.0000  0.0097  0.0146  0.0049  0.0195  0.0142  0.0171  0.0283  0.0286 </r>
       </set>
       <set comment="band 15">
        <r>  0.0011  0.0078  0.0024  0.0016  0.0000  0.0000  0.0000  0.0000  0.0000 </r>
        <r>  0.0323  0.0484  0.0528  0.0075  0.0346  0.0079  0.0034  0.0726  0.0493 </r>
       </set>
       <set comment="band 16">
        <r>  0.0139  0.0142  0.0053  0.0019  0.0000  0.0000  0.0000  0.0000  0.0000 </r>
        <r>  0.0250  0.0160  0.0044  0.0861  0.0461  0.0065  0.0074  0.1100  0.0262 </r>
       </set>
      </set>
      <set comment="kpoint 26">
       <set comment="band 1">
        <r>  0.7945  0.0000  0.0000  0.0001  0.0000  0.0000  0.0000  0.0000  0.0000 </r>
        <r>  0.0009  0.0019  0.0010  0.0057  0.0043  0.0004  0.0015  0.0002  0.0006 </r>
       </set>
       <set comment="band 2">
        <r>  0.0017  0.0148  0.0006  0.4680  0.0000  0.0000  0.0000  0.0000  0.0000 </r>
        <r>  0.0252  0.0338  0.0007  0.0254  0.0024  0.0009  0.0002  0.0001  0.0024 </r>
       </set>
       <set comment="band 3">
        <r>  0.0011  0.4630  0.0657  0.0172  0.0000  0.0000  0.0000  0.0000  0.0000 </r>
        <r>  0.0133  0.0051  0.0137  0.0341  0.0003  0.0001  0.0084  0.0002  0.0000 </r>
       </set>
       <set comment="band 4">
        <r>  0.0000  0.0781  0.5645  0.0006  0.0000  0.0000  0.0000  0.0000  0.0000 </r>
        <r>  0.0205  0.0028  0.0172  0.0008  0.0023  0.0100  0.0002  0.0027  0.0001 </r>
       </set>
       <set comment="band 5">
        <r>  0.0225  0.1007  0.0578  0.0005  0.0000  0.0000  0.0000  0.0000  0.0000 </r>
        <r>  0.0191  0.0298  0.0007  0.0402  0.0259  0.0000  0.0514  0.0015  0.0056 </r>
       </set>
       <set comment="band 6">
        <r>  0.0159  0.0011  0.0005  0.3109  0.0000  0.0000  0.0000  0.0000  0.0000 </r>
        <r>  0.1508  0.0017  0.0089  0.0260  0.0070  0.0000  0.0179  0.0046  0.0071 </r>
       </set>
       <set comment="band 7">
        <r>  0.0002  0.1401  0.0184  0.0201  0.0000  0.0000  0.0000  0.0000  0.0000 </r>
        <r>  0.2414  0.0396  0.0008  0.0372  0.0003  0.0064  0.0012  0.0009  0.0117 </r>
       </set>
       <set comment="band 8">
        <r>  0.0560  0.0014  0.0490  0.0325  0.0000  0.0000  0.0000  0.0000  0.0000 </r>
        <r>  0.0123  0.0948  0.2003  0.0190  0.0047  0.0001  0.0234  0.0028  0.0017 </r>
       </set>
       <set comment="band 9">
        <r>  0.0153  0.0224  0.0646  0.0225  0.0000  0.0000  0.0000  0.0000  0.0000 </r>
        <r>  0.0035  0.0515  0.1300  0.0380  0.0006  0.0012  0.1278  0.0016  0.0121 </r>
       </set>
       <set comment="band 10">
        <r>  0.0093  0.0069  0.0176  0.0204  0.0000  0.0000  0.0000  0.0000  0.0000 </r>
        <r>  0.0013  0.0630  0.0000  0.0399  0.0409  0.1672  0.0001  0.0710  0.0415 </r>
       </set>
       <set comment="band 11">
        <r>  0.0575  0.0464  0.0024  0.0009  0.0000  0.0000  0.0000  0.0000  0.0000 </r>
        <r>  0.0073  0.0191  0.0137  0.0278  0.2957  0.0421  0.0718  0.0997  0.0932 </r>
       </set>
       <set comment="band 12">
        <r>  0.0042  0.0309  0.0765  0.0196  0.0000  0.0000  0.0000  0.0000  0.0000 </r>
        <r>  0.0017  0.0282  0.0045  0.0057  0.1302  0.3883  0.0198  0.1177  0.0101 </r>
       </set>
       <set comment="band 13">
        <r>  0.0001  0.0098  0.0062  0.0000  0.0000  0.0000  0.0000  0.0000  0.0000 </r>
        <r>  0.0180  0.0453  0.0050  0.0119  0.0217  0.0127  0.0060  0.2699  0.4095 </r>
       </set>
       <set comment="band 14">
        <r>  0.0016  0.0172  0.0041  0.0030  0.0000  0.0000  0.0000  0.0000  0.0000 </r>
        <r>  0.0020  0.0039  0.0205  0.0477  0.0107  0.0021  0.0040  0.0077  0.0106 </r>
       </set>
       <set comment="band 15">
        <r>  0.0006  0.0006  0.0004  0.0069  0.0000  0.0000  0.0000  0.0000  0.0000 </r>
        <r>  0.0527  0.0158  0.0186  0.0018  0.0163  0.0264  0.0003  0.4578  0.0001 </r>
       </set>
       <set comment="band 16">
        <r>  0.0083  0.0195  0.0009  0.0020  0.0000  0.0000  0.0000  0.0000  0.0000 </r>
        <r>  0.0330  0.0033  0.0241  0.0312  0.0484  0.0075  0.0528  0.0033  0.2559 </r>
       </set>
      </set>
      <set comment="kpoint 27">
       <set comment="band 1">
        <r>  0.7900  0.0001  0.0000  0.0001  0.0000  0.0000  0.0000  0.0000  0.0000 </r>
        <r>  0.0007  0.0074  0.0002  0.0037  0.0032  0.0006  0.0010  0.0003  0.0004 </r>
       </set>
       <set comment="band 2">
        <r>  0.0057  0.3112  0.0217  0.1556  0.0000  0.0000  0.0000  0.0000  0.0000 </r>
        <r>  0.0579  0.0111  0.0121  0.0055  0.0003  0.0000  0.0102  0.0000  0.0000 </r>
       </set>
       <set comment="band 3">
        <r>  0.0000  0.1768  0.0000  0.3536  0.0000  0.0000  0.0000  0.0000  0.0000 </r>
        <r>  0.0000  0.0227  0.0000  0.0453  0.0008  0.0002  0.0000  0.0003  0.0061 </r>
       </set>
       <set comment="band 4">
        <r>  0.0001  0.0201  0.6296  0.0101  0.0000  0.0000  0.0000  0.0000  0.0000 </r>
        <r>  0.0134  0.0044  0.0091  0.0022  0.0006  0.0137  0.0002  0.0068  0.0001 </r>
       </set>
       <set comment="band 5">
        <r>  0.0489  0.1286  0.0382  0.0643  0.0000  0.0000  0.0000  0.0000  0.0000 </r>
        <r>  0.0077  0.0771  0.0001  0.0385  0.0180  0.0007  0.0161  0.0004  0.0022 </r>
       </set>
       <set comment="band 6">
        <r>  0.0000  0.0936  0.0000  0.1871  0.0000  0.0000  0.0000  0.0000  0.0000 </r>
        <r>  0.0000  0.0219  0.0000  0.0437  0.0060  0.0058  0.0000  0.0116  0.0478 </r>
       </set>
       <set comment="band 7">
        <r>  0.0002  0.0795  0.0351  0.0397  0.0000  0.0000  0.0000  0.0000  0.0000 </r>
        <r>  0.3954  0.0204  0.0069  0.0102  0.0014  0.0017  0.0037  0.0009  0.0002 </r>
       </set>
       <set comment="band 8">
        <r>  0.0445  0.0261  0.0385  0.0130  0.0000  0.0000  0.0000  0.0000  0.0000 </r>
        <r>  0.0001  0.0401  0.2700  0.0200  0.0003  0.0010  0.0325  0.0005  0.0000 </r>
       </set>
       <set comment="band 9">
        <r>  0.0389  0.0000  0.0337  0.0000  0.0000  0.0000  0.0000  0.0000  0.0000 </r>
        <r>  0.0068  0.0323  0.0994  0.0162  0.0000  0.0006  0.2572  0.0003  0.0000 </r>
       </set>
       <set comment="band 10">
        <r>  0.0000  0.0198  0.0000  0.0395  0.0000  0.0000  0.0000  0.0000  0.0000 </r>
        <r>  0.0000  0.0370  0.0000  0.0739  0.0025  0.0753  0.0000  0.1507  0.0199 </r>
       </set>
       <set comment="band 11">
        <r>  0.0348  0.0249  0.0336  0.0124  0.0000  0.0000  0.0000  0.0000  0.0000 </r>
        <r>  0.0038  0.0429  0.0066  0.0215  0.4339  0.0774  0.0263  0.0387  0.0542 </r>
       </set>
       <set comment="band 12">
        <r>  0.0000  0.0060  0.0000  0.0121  0.0000  0.0000  0.0000  0.0000  0.0000 </r>
        <r>  0.0000  0.0636  0.0000  0.1272  0.0382  0.0524  0.0000  0.1048  0.3055 </r>
       </set>
       <set comment="band 13">
        <r>  0.0013  0.0334  0.1126  0.0167  0.0000  0.0000  0.0000  0.0000  0.0000 </r>
        <r>  0.0037  0.0052  0.0176  0.0026  0.0903  0.3556  0.0199  0.1778  0.0113 </r>
       </set>
       <set comment="band 14">
        <r>  0.0038  0.0048  0.0020  0.0024  0.0000  0.0000  0.0000  0.0000  0.0000 </r>
        <r>  0.1125  0.0012  0.0262  0.0006  0.1124  0.0151  0.0417  0.0075  0.0140 </r>
       </set>
       <set comment="band 15">
        <r>  0.0000  0.0135  0.0000  0.0269  0.0000  0.0000  0.0000  0.0000  0.0000 </r>
        <r>  0.0000  0.0023  0.0000  0.0046  0.0220  0.0188  0.0000  0.0375  0.1763 </r>
       </set>
       <set comment="band 16">
        <r>  0.0431  0.0011  0.0149  0.0005  0.0000  0.0000  0.0000  0.0000  0.0000 </r>
        <r>  0.0112  0.0270  0.0111  0.0135  0.1410  0.0202  0.1573  0.0102  0.0176 </r>
       </set>
      </set>
      <set comment="kpoint 28">
       <set comment="band 1">
        <r>  0.7975  0.0000  0.0000  0.0000  0.0000  0.0000  0.0000  0.0000  0.0000 </r>
        <r>  0.0030  0.0012  0.0018  0.0006  0.0060  0.0001  0.0022  0.0001  0.0007 </r>
       </set>
       <set comment="band 2">
        <r>  0.0000  0.1568  0.0000  0.3137  0.0000  0.0000  0.0000  0.0000  0.0000 </r>
        <r>  0.0000  0.0287  0.0000  0.0573  0.0001  0.0003  0.0000  0.0007  0.0009 </r>
       </set>
       <set comment="band 3">
        <r>  0.0000  0.1982  0.2973  0.0991  0.0000  0.0000  0.0000  0.0000  0.0000 </r>
        <r>  0.0000  0.0193  0.0289  0.0096  0.0010  0.0000  0.0033  0.0000  0.0001 </r>
       </set>
       <set comment="band 4">
        <r>  0.0002  0.2096  0.3143  0.1048  0.0000  0.0000  0.0000  0.0000  0.0000 </r>
        <r>  0.0314  0.0080  0.0120  0.0040  0.0014  0.0042  0.0005  0.0021  0.0002 </r>
       </set>
       <set comment="band 5">
        <r>  0.0000  0.0333  0.0500  0.0167  0.0000  0.0000  0.0000  0.0000  0.0000 </r>
        <r>  0.0000  0.0045  0.0067  0.0022  0.0340  0.0000  0.1148  0.0000  0.0043 </r>
       </set>
       <set comment="band 6">
        <r>  0.0405  0.0192  0.0288  0.0096  0.0000  0.0000  0.0000  0.0000  0.0000 </r>
        <r>  0.4327  0.0069  0.0104  0.0035  0.0007  0.0010  0.0003  0.0005  0.0001 </r>
       </set>
       <set comment="band 7">
        <r>  0.0000  0.1389  0.0000  0.2778  0.0000  0.0000  0.0000  0.0000  0.0000 </r>
        <r>  0.0000  0.0365  0.0000  0.0731  0.0009  0.0027  0.0000  0.0053  0.0071 </r>
       </set>
       <set comment="band 8">
        <r>  0.0463  0.0451  0.0676  0.0225  0.0000  0.0000  0.0000  0.0000  0.0000 </r>
        <r>  0.0231  0.1026  0.1540  0.0513  0.0141  0.0019  0.0053  0.0010  0.0018 </r>
       </set>
       <set comment="band 9">
        <r>  0.0000  0.0682  0.1023  0.0341  0.0000  0.0000  0.0000  0.0000  0.0000 </r>
        <r>  0.0000  0.0961  0.1442  0.0481  0.0114  0.0000  0.0385  0.0000  0.0014 </r>
       </set>
       <set comment="band 10">
        <r>  0.1015  0.0032  0.0049  0.0016  0.0000  0.0000  0.0000  0.0000  0.0000 </r>
        <r>  0.0230  0.0146  0.0219  0.0073  0.3121  0.0866  0.1170  0.0433  0.0390 </r>
       </set>
       <set comment="band 11">
        <r>  0.0000  0.0080  0.0000  0.0160  0.0000  0.0000  0.0000  0.0000  0.0000 </r>
        <r>  0.0000  0.0245  0.0000  0.0490  0.0213  0.0640  0.0000  0.1280  0.1706 </r>
       </set>
       <set comment="band 12">
        <r>  0.0097  0.0311  0.0466  0.0155  0.0000  0.0000  0.0000  0.0000  0.0000 </r>
        <r>  0.0072  0.0002  0.0003  0.0001  0.0624  0.4197  0.0234  0.2099  0.0078 </r>
       </set>
       <set comment="band 13">
        <r>  0.0000  0.0000  0.0000  0.0000  0.0000  0.0000  0.0000  0.0000  0.0000 </r>
        <r>  0.0000  0.0000  0.0000  0.0000  0.0500  0.1501  0.0000  0.3002  0.4002 </r>
       </set>
       <set comment="band 14">
        <r>  0.0000  0.0000  0.0000  0.0000  0.0000  0.0000  0.0000  0.0000  0.0000 </r>
        <r>  0.0000  0.0000  0.0000  0.0000  0.0144  0.0433  0.0000  0.0865  0.1153 </r>
       </set>
       <set comment="band 15">
        <r>  0.0000  0.0004  0.0000  0.0007  0.0000  0.0000  0.0000  0.0000  0.0000 </r>
        <r>  0.0000  0.0343  0.0000  0.0687  0.0177  0.0532  0.0000  0.1065  0.1420 </r>
       </set>
       <set comment="band 16">
        <r>  0.0000  0.0096  0.0000  0.0191  0.0000  0.0000  0.0000  0.0000  0.0000 </r>
        <r>  0.0000  0.0140  0.0000  0.0280  0.0202  0.0606  0.0000  0.1211  0.1615 </r>
       </set>
      </set>
      <set comment="kpoint 29">
       <set comment="band 1">
        <r>  0.8004  0.0000  0.0000  0.0000  0.0000  0.0000  0.0000  0.0000  0.0000 </r>
        <r>  0.0000  0.0024  0.0036  0.0012  0.0039  0.0013  0.0015  0.0007  0.0005 </r>
       </set>
       <set comment="band 2">
        <r>  0.0000  0.3401  0.1548  0.0205  0.0000  0.0000  0.0000  0.0000  0.0000 </r>
        <r>  0.0000  0.0005  0.0219  0.0506  0.0003  0.0004  0.0025  0.0007  0.0017 </r>
       </set>
       <set comment="band 3">
        <r>  0.0000  0.0035  0.1030  0.4090  0.0000  0.0000  0.0000  0.0000  0.0000 </r>
        <r>  0.0000  0.0482  0.0146  0.0103  0.0013  0.0006  0.0017  0.0011  0.0010 </r>
       </set>
       <set comment="band 4">
        <r>  0.0000  0.2030  0.3046  0.1015  0.0000  0.0000  0.0000  0.0000  0.0000 </r>
        <r>  0.0594  0.0000  0.0000  0.0000  0.0027  0.0080  0.0010  0.0040  0.0003 </r>
       </set>
       <set comment="band 5">
        <r>  0.0000  0.1912  0.0652  0.0311  0.0000  0.0000  0.0000  0.0000  0.0000 </r>
        <r>  0.0000  0.0001  0.0138  0.0471  0.0016  0.0069  0.0257  0.0138  0.0277 </r>
       </set>
       <set comment="band 6">
        <r>  0.0000  0.0004  0.0785  0.2085  0.0000  0.0000  0.0000  0.0000  0.0000 </r>
        <r>  0.0000  0.0406  0.0167  0.0038  0.0195  0.0057  0.0310  0.0114  0.0080 </r>
       </set>
       <set comment="band 7">
        <r>  0.0000  0.0579  0.0869  0.0290  0.0000  0.0000  0.0000  0.0000  0.0000 </r>
        <r>  0.4380  0.0000  0.0000  0.0000  0.0015  0.0044  0.0005  0.0022  0.0002 </r>
       </set>
       <set comment="band 8">
        <r>  0.1018  0.0000  0.0000  0.0000  0.0000  0.0000  0.0000  0.0000  0.0000 </r>
        <r>  0.0000  0.1159  0.1739  0.0580  0.0077  0.0026  0.0029  0.0013  0.0010 </r>
       </set>
       <set comment="band 9">
        <r>  0.0000  0.0466  0.0018  0.0539  0.0000  0.0000  0.0000  0.0000  0.0000 </r>
        <r>  0.0000  0.0395  0.0033  0.1444  0.0040  0.0312  0.0051  0.0623  0.0912 </r>
       </set>
       <set comment="band 10">
        <r>  0.0000  0.0216  0.0494  0.0314  0.0000  0.0000  0.0000  0.0000  0.0000 </r>
        <r>  0.0000  0.0853  0.0903  0.0115  0.0498  0.0011  0.1402  0.0023  0.0003 </r>
       </set>
       <set comment="band 11">
        <r>  0.0787  0.0000  0.0000  0.0000  0.0000  0.0000  0.0000  0.0000  0.0000 </r>
        <r>  0.0000  0.0249  0.0374  0.0125  0.3096  0.1032  0.1161  0.0516  0.0387 </r>
       </set>
       <set comment="band 12">
        <r>  0.0000  0.0593  0.0890  0.0297  0.0000  0.0000  0.0000  0.0000  0.0000 </r>
        <r>  0.0093  0.0000  0.0000  0.0000  0.1157  0.3470  0.0434  0.1735  0.0145 </r>
       </set>
       <set comment="band 13">
        <r>  0.0000  0.0000  0.0000  0.0000  0.0000  0.0000  0.0000  0.0000  0.0000 </r>
        <r>  0.0000  0.0000  0.0000  0.0000  0.0619  0.1857  0.0000  0.3714  0.4953 </r>
       </set>
       <set comment="band 14">
        <r>  0.0000  0.0000  0.0000  0.0000  0.0000  0.0000  0.0000  0.0000  0.0000 </r>
        <r>  0.0000  0.0000  0.0000  0.0000  0.0000  0.0000  0.0000  0.0000  0.0000 </r>
       </set>
       <set comment="band 15">
        <r>  0.0000  0.0000  0.0000  0.0000  0.0000  0.0000  0.0000  0.0000  0.0000 </r>
        <r>  0.0000  0.1225  0.0503  0.0113  0.0201  0.0059  0.0321  0.0118  0.0083 </r>
       </set>
       <set comment="band 16">
        <r>  0.0000  0.0000  0.0000  0.0000  0.0000  0.0000  0.0000  0.0000  0.0000 </r>
        <r>  0.0000  0.0003  0.0417  0.1421  0.0016  0.0071  0.0266  0.0142  0.0286 </r>
       </set>
      </set>
     </set>
    </set>
   </array>
  </projected>
 </calculation>
 <structure name="finalpos" >
  <crystal>
   <varray name="basis" >
    <v>       2.55115384       0.00000000       1.47290928 </v>
    <v>       0.85038461       2.40525115       1.47290928 </v>
    <v>       0.00000000       0.00000000       2.94581857 </v>
   </varray>
   <i name="volume">     18.07603085 </i>
   <varray name="rec_basis" >
    <v>       0.39197950      -0.13858567       0.00000000 </v>
    <v>       0.00000000       0.41575700       0.00000000 </v>
    <v>      -0.19598975      -0.13858567       0.33946422 </v>
   </varray>
  </crystal>
  <varray name="positions" >
   <v>       0.50000000       0.50000000       0.50000000 </v>
   <v>       0.00000000       0.00000000       0.00000000 </v>
  </varray>
 </structure>
</modeling>
