       N       E                     dE             d eps       ncg     rms          ort
DAV:   1     0.154511324136E+03    0.15451E+03   -0.45367E+03    36   0.307E+02
DAV:   2     0.346291496474E+02   -0.11988E+03   -0.11988E+03    36   0.101E+02
DAV:   3     0.977962491977E+01   -0.24850E+02   -0.24850E+02    36   0.604E+01
DAV:   4     0.396880123809E+01   -0.58108E+01   -0.58107E+01    36   0.233E+01
DAV:   5     0.140952399952E+01   -0.25593E+01   -0.22928E+01    36   0.881E+00
SDA:   6     0.125766283889E+01   -0.15186E+00   -0.19200E+01    36   0.480E+01 0.000E+00
DMP:   7    -0.456158593995E-01   -0.13033E+01   -0.71946E+00    36   0.119E+01 0.160E+01
DMP:   8    -0.429343313976E+00   -0.38373E+00   -0.11861E+00    36   0.319E+00-0.601E-01
DMP:   9    -0.500684389948E+00   -0.71341E-01   -0.82632E-01    36   0.220E+00-0.349E-01
DMP:  10    -0.559887874415E+00   -0.59203E-01   -0.48041E-01    36   0.937E-01 0.692E-01
DMP:  11    -0.589870394194E+00   -0.29983E-01   -0.13227E-01    36   0.226E-01 0.274E-01
DMP:  12    -0.597610306218E+00   -0.77399E-02   -0.52847E-02    36   0.113E-01 0.509E-02
DMP:  13    -0.601088031237E+00   -0.34777E-02   -0.25398E-02    36   0.489E-02 0.383E-02
DMP:  14    -0.602806573696E+00   -0.17185E-02   -0.96472E-03    36   0.160E-02 0.213E-02
DMP:  15    -0.603410436557E+00   -0.60386E-03   -0.35021E-03    36   0.632E-03 0.638E-03
DMP:  16    -0.603945523640E+00   -0.53509E-03   -0.10952E-02    36   0.142E-02 0.346E-02
DMP:  17    -0.607774330614E+00   -0.38288E-02   -0.60811E-02    36   0.707E-02 0.213E-01
DMP:  18    -0.617929869338E+00   -0.10156E-01   -0.98815E-02    36   0.110E-01 0.359E-01
DMP:  19    -0.629051126622E+00   -0.11121E-01   -0.77837E-02    36   0.837E-02 0.290E-01
DMP:  20    -0.636328400913E+00   -0.72773E-02   -0.42001E-02    36   0.437E-02 0.161E-01
DMP:  21    -0.639926818780E+00   -0.35984E-02   -0.18600E-02    36   0.187E-02 0.727E-02
DMP:  22    -0.641454567085E+00   -0.15277E-02   -0.73828E-03    36   0.721E-03 0.295E-02
DMP:  23    -0.642047676013E+00   -0.59311E-03   -0.27322E-03    36   0.258E-03 0.111E-02
DMP:  24    -0.642264093492E+00   -0.21642E-03   -0.95698E-04    36   0.873E-04 0.398E-03
DMP:  25    -0.642339027174E+00   -0.74934E-04   -0.31813E-04    36   0.280E-04 0.135E-03
DMP:  26    -0.642363640559E+00   -0.24613E-04   -0.10001E-04    36   0.843E-05 0.434E-04
   1 F= -.64236364E+00 E0= -.62308183E+00  d E =-.642364E+00  mag=     2.0000
