<?xml version="1.0" encoding="ISO-8859-1"?>
<modeling>
 <generator>
  <i name="program" type="string">vasp </i>
  <i name="version" type="string">5.4.4.18Apr17-6-g9f103f2a35  </i>
  <i name="subversion" type="string">(build Nov 08 2019 15:19:53) gamma-only         parallel </i>
  <i name="platform" type="string">LinuxIFC </i>
  <i name="date" type="string">2020 11 30 </i>
  <i name="time" type="string">09:30:47 </i>
 </generator>
 <incar>
  <i type="string" name="PREC">accurate</i>
  <i type="string" name="ALGO"> D</i>
  <i type="int" name="ISPIN">     2</i>
  <i type="int" name="NELM">   300</i>
  <i type="int" name="IBRION">     2</i>
  <i name="EDIFF">      0.00005000</i>
  <i type="int" name="NSW">    99</i>
  <i type="int" name="ISIF">     2</i>
  <i name="ENCUT">    520.00000000</i>
  <v name="MAGMOM">      0.60000000</v>
  <i type="string" name="LREAL"> Auto</i>
  <i type="int" name="ISMEAR">     0</i>
  <i name="SIGMA">      0.05000000</i>
  <i type="logical" name="LWAVE"> F  </i>
  <i type="int" name="LORBIT">    11</i>
  <i type="logical" name="LASPH"> T  </i>
  <v type="int" name="KPOINT_BSE">    -1     0     0     0</v>
  <i type="int" name="NELM">   300</i>
  <i type="logical" name="LASPH"> T  </i>
 </incar>
 <structure name="primitive_cell" >
  <crystal>
   <varray name="basis" >
    <v>      10.00000000       0.00000000       0.00000000 </v>
    <v>       0.00000000      10.00000000       0.00000000 </v>
    <v>       0.00000000       0.00000000      10.00000000 </v>
   </varray>
   <i name="volume">   1000.00000000 </i>
   <varray name="rec_basis" >
    <v>       0.10000000       0.00000000       0.00000000 </v>
    <v>       0.00000000       0.10000000       0.00000000 </v>
    <v>       0.00000000       0.00000000       0.10000000 </v>
   </varray>
  </crystal>
  <varray name="positions" >
   <v>      -0.50000000      -0.50000000      -0.50000000 </v>
  </varray>
 </structure>
 <varray name="primitive_index" >
  <v type="int" >        1 </v>
 </varray>
 <kpoints>
  <generation param="Gamma">
   <v type="int" name="divisions">       1        1        1 </v>
   <v name="usershift">      0.00000000       0.00000000       0.00000000 </v>
   <v name="genvec1">      1.00000000       0.00000000       0.00000000 </v>
   <v name="genvec2">      0.00000000       1.00000000       0.00000000 </v>
   <v name="genvec3">      0.00000000       0.00000000       1.00000000 </v>
   <v name="shift">      0.00000000       0.00000000       0.00000000 </v>
  </generation>
  <varray name="kpointlist" >
   <v>       0.00000000       0.00000000       0.00000000 </v>
  </varray>
  <varray name="weights" >
   <v>       1.00000000 </v>
  </varray>
 </kpoints>
 <parameters>
  <separator name="general" >
   <i type="string" name="SYSTEM">unknown system</i>
   <i type="logical" name="LCOMPAT"> F  </i>
  </separator>
  <separator name="electronic" >
   <i type="string" name="PREC">accura</i>
   <i name="ENMAX">    520.00000000</i>
   <i name="ENAUG">    391.91400000</i>
   <i name="EDIFF">      0.00005000</i>
   <i type="int" name="IALGO">    53</i>
   <i type="int" name="IWAVPR">    11</i>
   <i type="int" name="NBANDS">    36</i>
   <i name="NELECT">     14.00000000</i>
   <i type="int" name="TURBO">     0</i>
   <i type="int" name="IRESTART">     0</i>
   <i type="int" name="NREBOOT">     0</i>
   <i type="int" name="NMIN">     0</i>
   <i name="EREF">      0.00000000</i>
   <separator name="electronic smearing" >
    <i type="int" name="ISMEAR">     0</i>
    <i name="SIGMA">      0.05000000</i>
    <i name="KSPACING">      0.50000000</i>
    <i type="logical" name="KGAMMA"> T  </i>
   </separator>
   <separator name="electronic projectors" >
    <i type="logical" name="LREAL"> T  </i>
    <v name="ROPT">     -0.00025000</v>
    <i type="int" name="LMAXPAW">  -100</i>
    <i type="int" name="LMAXMIX">     2</i>
    <i type="logical" name="NLSPLINE"> F  </i>
   </separator>
   <separator name="electronic startup" >
    <i type="int" name="ISTART">     0</i>
    <i type="int" name="ICHARG">     2</i>
    <i type="int" name="INIWAV">     1</i>
   </separator>
   <separator name="electronic spin" >
    <i type="int" name="ISPIN">     2</i>
    <i type="logical" name="LNONCOLLINEAR"> F  </i>
    <v name="MAGMOM">      0.60000000</v>
    <i name="NUPDOWN">     -1.00000000</i>
    <i type="logical" name="LSORBIT"> F  </i>
    <v name="SAXIS">      0.00000000      0.00000000      1.00000000</v>
    <i type="logical" name="LSPIRAL"> F  </i>
    <v name="QSPIRAL">      0.00000000      0.00000000      0.00000000</v>
    <i type="logical" name="LZEROZ"> F  </i>
   </separator>
   <separator name="electronic exchange-correlation" >
    <i type="logical" name="LASPH"> T  </i>
    <i type="logical" name="LMETAGGA"> F  </i>
   </separator>
   <separator name="electronic convergence" >
    <i type="int" name="NELM">   300</i>
    <i type="int" name="NELMDL">    -5</i>
    <i type="int" name="NELMIN">     2</i>
    <i name="ENINI">    520.00000000</i>
    <separator name="electronic convergence detail" >
     <i type="logical" name="LDIAG"> T  </i>
     <i type="logical" name="LSUBROT"> F  </i>
     <i name="WEIMIN">      0.00100000</i>
     <i name="EBREAK">      0.00000035</i>
     <i name="DEPER">      0.30000000</i>
     <i type="int" name="NRMM">     4</i>
     <i name="TIME">      0.40000000</i>
    </separator>
   </separator>
   <separator name="electronic mixer" >
    <i name="AMIX">      0.40000000</i>
    <i name="BMIX">      1.00000000</i>
    <i name="AMIN">      0.10000000</i>
    <i name="AMIX_MAG">      1.60000000</i>
    <i name="BMIX_MAG">      1.00000000</i>
    <separator name="electronic mixer details" >
     <i type="int" name="IMIX">     4</i>
     <i type="logical" name="MIXFIRST"> F  </i>
     <i type="int" name="MAXMIX">   -45</i>
     <i name="WC">    100.00000000</i>
     <i type="int" name="INIMIX">     1</i>
     <i type="int" name="MIXPRE">     1</i>
     <i type="int" name="MREMOVE">     5</i>
    </separator>
   </separator>
   <separator name="electronic dipolcorrection" >
    <i type="logical" name="LDIPOL"> F  </i>
    <i type="logical" name="LMONO"> F  </i>
    <i type="int" name="IDIPOL">     0</i>
    <i name="EPSILON">      1.00000000</i>
    <v name="DIPOL">   -100.00000000   -100.00000000   -100.00000000</v>
    <i name="EFIELD">      0.00000000</i>
   </separator>
  </separator>
  <separator name="grids" >
   <i type="int" name="NGX">    80</i>
   <i type="int" name="NGY">    80</i>
   <i type="int" name="NGZ">    80</i>
   <i type="int" name="NGXF">   160</i>
   <i type="int" name="NGYF">   160</i>
   <i type="int" name="NGZF">   160</i>
   <i type="logical" name="ADDGRID"> F  </i>
  </separator>
  <separator name="ionic" >
   <i type="int" name="NSW">    99</i>
   <i type="int" name="IBRION">     2</i>
   <i type="int" name="MDALGO">     0</i>
   <i type="int" name="ISIF">     2</i>
   <i name="PSTRESS">      0.00000000</i>
   <i name="EDIFFG">      0.00050000</i>
   <i type="int" name="NFREE">     1</i>
   <i name="POTIM">      0.50000000</i>
   <i name="SMASS">     -3.00000000</i>
   <i name="SCALEE">      1.00000000</i>
  </separator>
  <separator name="ionic md" >
   <i name="TEBEG">      0.00010000</i>
   <i name="TEEND">      0.00010000</i>
   <i type="int" name="NBLOCK">     1</i>
   <i type="int" name="KBLOCK">    99</i>
   <i type="int" name="NPACO">   256</i>
   <i name="APACO">     16.00000000</i>
  </separator>
  <separator name="symmetry" >
   <i type="int" name="ISYM">     2</i>
   <i name="SYMPREC">      0.00001000</i>
  </separator>
  <separator name="dos" >
   <i type="int" name="LORBIT">    11</i>
   <v name="RWIGS">     -1.00000000</v>
   <i type="int" name="NEDOS">   301</i>
   <i name="EMIN">     10.00000000</i>
   <i name="EMAX">    -10.00000000</i>
   <i name="EFERMI">      0.00000000</i>
  </separator>
  <separator name="writing" >
   <i type="int" name="NWRITE">     2</i>
   <i type="logical" name="LWAVE"> F  </i>
   <i type="logical" name="LDOWNSAMPLE"> F  </i>
   <i type="logical" name="LCHARG"> T  </i>
   <i type="logical" name="LPARD"> F  </i>
   <i type="logical" name="LVTOT"> F  </i>
   <i type="logical" name="LVHAR"> F  </i>
   <i type="logical" name="LELF"> F  </i>
   <i type="logical" name="LOPTICS"> F  </i>
   <v name="STM">      0.00000000      0.00000000      0.00000000      0.00000000      0.00000000      0.00000000      0.00000000</v>
  </separator>
  <separator name="performance" >
   <i type="int" name="NPAR">    36</i>
   <i type="int" name="NSIM">     4</i>
   <i type="int" name="NBLK">    -1</i>
   <i type="logical" name="LPLANE"> T  </i>
   <i type="logical" name="LSCALAPACK"> T  </i>
   <i type="logical" name="LSCAAWARE"> F  </i>
   <i type="logical" name="LSCALU"> F  </i>
   <i type="logical" name="LASYNC"> F  </i>
   <i type="logical" name="LORBITALREAL"> F  </i>
  </separator>
  <separator name="miscellaneous" >
   <i type="int" name="IDIOT">     3</i>
   <i type="int" name="ISPECIAL">     0</i>
   <i type="logical" name="LMUSIC"> F  </i>
   <v name="POMASS">    207.20000000</v>
   <v name="DARWINR">      0.00000000</v>
   <v name="DARWINV">      1.00000000</v>
   <i type="logical" name="LCORR"> T  </i>
  </separator>
  <i type="logical" name="GGA_COMPAT"> T  </i>
  <i type="logical" name="LBERRY"> F  </i>
  <i type="int" name="ICORELEVEL">     0</i>
  <i type="logical" name="LDAU"> F  </i>
  <i type="int" name="I_CONSTRAINED_M">     0</i>
  <separator name="electronic exchange-correlation" >
   <i type="string" name="GGA">--</i>
   <i type="int" name="VOSKOWN">     0</i>
   <i type="logical" name="LHFCALC"> F  </i>
   <i type="string" name="PRECFOCK"></i>
   <i type="logical" name="LSYMGRAD"> F  </i>
   <i type="logical" name="LHFONE"> F  </i>
   <i type="logical" name="LRHFCALC"> F  </i>
   <i type="logical" name="LTHOMAS"> F  </i>
   <i type="logical" name="LMODELHF"> F  </i>
   <i name="ENCUT4O">     -1.00000000</i>
   <i type="int" name="EXXOEP">     0</i>
   <i type="int" name="FOURORBIT">     0</i>
   <i name="AEXX">      0.00000000</i>
   <i name="HFALPHA">      0.00000000</i>
   <i name="MCALPHA">      0.00000000</i>
   <i name="ALDAX">      1.00000000</i>
   <i name="AGGAX">      1.00000000</i>
   <i name="ALDAC">      1.00000000</i>
   <i name="AGGAC">      1.00000000</i>
   <i type="int" name="NKREDX">     1</i>
   <i type="int" name="NKREDY">     1</i>
   <i type="int" name="NKREDZ">     1</i>
   <i type="logical" name="SHIFTRED"> F  </i>
   <i type="logical" name="ODDONLY"> F  </i>
   <i type="logical" name="EVENONLY"> F  </i>
   <i type="int" name="LMAXFOCK">     0</i>
   <i type="int" name="NMAXFOCKAE">     0</i>
   <i type="logical" name="LFOCKAEDFT"> F  </i>
   <i name="HFSCREEN">      0.00000000</i>
   <i name="HFSCREENC">      0.00000000</i>
   <i type="int" name="NBANDSGWLOW">     0</i>
  </separator>
  <separator name="vdW DFT" >
   <i type="logical" name="LUSE_VDW"> F  </i>
   <i name="Zab_VDW">     -0.84910000</i>
   <i name="PARAM1">      0.12340000</i>
   <i name="PARAM2">      1.00000000</i>
   <i name="PARAM3">      0.00000000</i>
  </separator>
  <separator name="model GW" >
   <i type="int" name="MODEL_GW">     0</i>
   <i name="MODEL_EPS0">    600.00000000</i>
   <i name="MODEL_ALPHA">      1.00000000</i>
  </separator>
  <separator name="linear response parameters" >
   <i type="logical" name="LEPSILON"> F  </i>
   <i type="logical" name="LRPA"> F  </i>
   <i type="logical" name="LNABLA"> F  </i>
   <i type="logical" name="LVEL"> F  </i>
   <i type="int" name="KINTER">     0</i>
   <i name="CSHIFT">      0.10000000</i>
   <i name="OMEGAMAX">     -1.00000000</i>
   <i name="DEG_THRESHOLD">      0.00200000</i>
   <i name="RTIME">     -0.10000000</i>
   <i name="WPLASMAI">      0.00000000</i>
   <v name="DFIELD">      0.00000000      0.00000000      0.00000000</v>
   <v name="WPLASMA">      0.00000000      0.00000000      0.00000000      0.00000000      0.00000000      0.00000000      0.00000000      0.00000000      0.00000000</v>
  </separator>
  <separator name="orbital magnetization" >
   <i type="logical" name="NUCIND"> F  </i>
   <v name="MAGPOS">      0.00000000      0.00000000      0.00000000</v>
   <i type="logical" name="LNICSALL"> T  </i>
   <i type="logical" name="ORBITALMAG"> F  </i>
   <i type="logical" name="LMAGBLOCH"> F  </i>
   <i type="logical" name="LCHIMAG"> F  </i>
   <i type="logical" name="LGAUGE"> T  </i>
   <i type="int" name="MAGATOM">     0</i>
   <v name="MAGDIPOL">      0.00000000      0.00000000      0.00000000</v>
   <v name="AVECCONST">      0.00000000      0.00000000      0.00000000</v>
  </separator>
  <separator name="response functions" >
   <i type="logical" name="LADDER"> F  </i>
   <i type="logical" name="LRPAFORCE"> F  </i>
   <i type="logical" name="LFXC"> F  </i>
   <i type="logical" name="LHARTREE"> T  </i>
   <i type="int" name="IBSE">     0</i>
   <v type="int" name="KPOINT">    -1     0     0     0</v>
   <i type="logical" name="LTCTE"> F  </i>
   <i type="logical" name="LTETE"> F  </i>
   <i type="logical" name="LTRIPLET"> F  </i>
   <i type="logical" name="LFXCEPS"> F  </i>
   <i type="logical" name="LFXHEG"> F  </i>
   <i type="int" name="NATURALO">     2</i>
   <i type="logical" name="L2ORDER"> F  </i>
   <i type="logical" name="LMP2LT"> F  </i>
   <i type="logical" name="LUSEW"> F  </i>
   <i name="ENCUTGW">     -2.00000000</i>
   <i name="ENCUTGWSOFT">     -2.00000000</i>
   <i name="ENCUTLF">     -1.00000000</i>
   <i type="int" name="LMAXMP2">    -1</i>
   <i name="SCISSOR">      0.00000000</i>
   <i type="int" name="NOMEGA">     0</i>
   <i type="int" name="NOMEGAR">     0</i>
   <i type="int" name="NBANDSGW">    -1</i>
   <i type="int" name="NBANDSO">    -1</i>
   <i type="int" name="NBANDSV">    -1</i>
   <i type="int" name="NELM">   300</i>
   <i type="int" name="NELMHF">     1</i>
   <i type="int" name="DIM">     3</i>
   <i type="int" name="ANTIRES">     0</i>
   <i name="OMEGAMAX">    -30.00000000</i>
   <i name="OMEGAMIN">    -30.00000000</i>
   <i name="OMEGATL">   -200.00000000</i>
   <i type="int" name="OMEGAGRID">   140</i>
   <i name="CSHIFT">     -0.10000000</i>
   <i type="logical" name="SELFENERGY"> F  </i>
   <i type="logical" name="LSPECTRAL"> F  </i>
   <i type="logical" name="LSPECTRALGW"> F  </i>
   <i type="logical" name="LSINGLES"> F  </i>
   <i type="logical" name="LFERMIGW"> F  </i>
   <i type="logical" name="ODDONLYGW"> F  </i>
   <i type="logical" name="EVENONLYGW"> F  </i>
   <i type="int" name="NKREDLFX">     1</i>
   <i type="int" name="NKREDLFY">     1</i>
   <i type="int" name="NKREDLFZ">     1</i>
   <i type="int" name="MAXMEM">  2800</i>
   <i type="int" name="TELESCOPE">     0</i>
   <i type="int" name="TAUPAR">     1</i>
   <i type="int" name="OMEGAPAR">    -1</i>
   <i name="LAMBDA">      1.00000000</i>
  </separator>
  <separator name="External order field" >
   <i name="OFIELD_KAPPA">      0.00000000</i>
   <v name="OFIELD_K">      0.00000000      0.00000000      0.00000000</v>
   <i name="OFIELD_Q6_NEAR">      0.00000000</i>
   <i name="OFIELD_Q6_FAR">      0.00000000</i>
   <i name="OFIELD_A">      0.00000000</i>
  </separator>
 </parameters>
 <atominfo>
  <atoms>       1 </atoms>
  <types>       1 </types>
  <array name="atoms" >
   <dimension dim="1">ion</dimension>
   <field type="string">element</field>
   <field type="int">atomtype</field>
   <set>
    <rc><c>Pb</c><c>   1</c></rc>
   </set>
  </array>
  <array name="atomtypes" >
   <dimension dim="1">type</dimension>
   <field type="int">atomspertype</field>
   <field type="string">element</field>
   <field>mass</field>
   <field>valence</field>
   <field type="string">pseudopotential</field>
   <set>
    <rc><c>   1</c><c>Pb</c><c>    207.20000000</c><c>     14.00000000</c><c>  PAW_PBE Pb_d 06Sep2000                </c></rc>
   </set>
  </array>
 </atominfo>
 <structure name="initialpos" >
  <crystal>
   <varray name="basis" >
    <v>      10.00000000       0.00000000       0.00000000 </v>
    <v>       0.00000000      10.00000000       0.00000000 </v>
    <v>       0.00000000       0.00000000      10.00000000 </v>
   </varray>
   <i name="volume">   1000.00000000 </i>
   <varray name="rec_basis" >
    <v>       0.10000000       0.00000000       0.00000000 </v>
    <v>       0.00000000       0.10000000       0.00000000 </v>
    <v>       0.00000000       0.00000000       0.10000000 </v>
   </varray>
  </crystal>
  <varray name="positions" >
   <v>       0.50000000       0.50000000       0.50000000 </v>
  </varray>
 </structure>
 <calculation>
  <scstep>
   <time name="total">    1.08    1.09</time>
   <energy>
    <i name="alphaZ">      1.64068492 </i>
    <i name="ewald">   -400.39350411 </i>
    <i name="hartreedc">  -1078.38570525 </i>
    <i name="XCdc">     36.44116859 </i>
    <i name="pawpsdc">   1435.38678758 </i>
    <i name="pawaedc">  -1418.71847069 </i>
    <i name="eentropy">     -0.00000000 </i>
    <i name="bandstr">    -83.07440828 </i>
    <i name="atom">   1661.61477137 </i>
    <i name="e_fr_energy">    154.51132414 </i>
    <i name="e_wo_entrp">    154.51132414 </i>
    <i name="e_0_energy">    154.51132414 </i>
   </energy>
  </scstep>
  <scstep>
   <time name="total">    0.44    0.44</time>
   <energy>
    <i name="e_fr_energy">     34.62914965 </i>
    <i name="e_wo_entrp">     34.62914965 </i>
    <i name="e_0_energy">     34.62914965 </i>
   </energy>
  </scstep>
  <scstep>
   <time name="total">    0.45    0.45</time>
   <energy>
    <i name="e_fr_energy">      9.77962492 </i>
    <i name="e_wo_entrp">      9.77962492 </i>
    <i name="e_0_energy">      9.77962492 </i>
   </energy>
  </scstep>
  <scstep>
   <time name="total">    0.58    0.58</time>
   <energy>
    <i name="e_fr_energy">      3.96880124 </i>
    <i name="e_wo_entrp">      3.96989356 </i>
    <i name="e_0_energy">      3.96934740 </i>
   </energy>
  </scstep>
  <scstep>
   <time name="total">    0.81    0.81</time>
   <energy>
    <i name="e_fr_energy">      1.40952400 </i>
    <i name="e_wo_entrp">      1.40954424 </i>
    <i name="e_0_energy">      1.40953412 </i>
   </energy>
  </scstep>
  <scstep>
   <time name="total">    1.13    1.14</time>
   <energy>
    <i name="e_fr_energy">      1.25766284 </i>
    <i name="e_wo_entrp">      1.25766284 </i>
    <i name="e_0_energy">      1.25766284 </i>
   </energy>
  </scstep>
  <scstep>
   <time name="total">    1.09    1.09</time>
   <energy>
    <i name="e_fr_energy">     -0.04561586 </i>
    <i name="e_wo_entrp">     -0.04561586 </i>
    <i name="e_0_energy">     -0.04561586 </i>
   </energy>
  </scstep>
  <scstep>
   <time name="total">    1.10    1.10</time>
   <energy>
    <i name="e_fr_energy">     -0.42934331 </i>
    <i name="e_wo_entrp">     -0.42934331 </i>
    <i name="e_0_energy">     -0.42934331 </i>
   </energy>
  </scstep>
  <scstep>
   <time name="total">    1.11    1.11</time>
   <energy>
    <i name="e_fr_energy">     -0.50068439 </i>
    <i name="e_wo_entrp">     -0.50068439 </i>
    <i name="e_0_energy">     -0.50068439 </i>
   </energy>
  </scstep>
  <scstep>
   <time name="total">    1.10    1.11</time>
   <energy>
    <i name="e_fr_energy">     -0.55988787 </i>
    <i name="e_wo_entrp">     -0.55988787 </i>
    <i name="e_0_energy">     -0.55988787 </i>
   </energy>
  </scstep>
  <scstep>
   <time name="total">    1.09    1.09</time>
   <energy>
    <i name="e_fr_energy">     -0.58987039 </i>
    <i name="e_wo_entrp">     -0.58987039 </i>
    <i name="e_0_energy">     -0.58987039 </i>
   </energy>
  </scstep>
  <scstep>
   <time name="total">    1.09    1.09</time>
   <energy>
    <i name="e_fr_energy">     -0.59761031 </i>
    <i name="e_wo_entrp">     -0.59761031 </i>
    <i name="e_0_energy">     -0.59761031 </i>
   </energy>
  </scstep>
  <scstep>
   <time name="total">    1.11    1.11</time>
   <energy>
    <i name="e_fr_energy">     -0.60108803 </i>
    <i name="e_wo_entrp">     -0.60108803 </i>
    <i name="e_0_energy">     -0.60108803 </i>
   </energy>
  </scstep>
  <scstep>
   <time name="total">    1.09    1.09</time>
   <energy>
    <i name="e_fr_energy">     -0.60280657 </i>
    <i name="e_wo_entrp">     -0.60280416 </i>
    <i name="e_0_energy">     -0.60280537 </i>
   </energy>
  </scstep>
  <scstep>
   <time name="total">    1.10    1.10</time>
   <energy>
    <i name="e_fr_energy">     -0.60341044 </i>
    <i name="e_wo_entrp">     -0.60308441 </i>
    <i name="e_0_energy">     -0.60324743 </i>
   </energy>
  </scstep>
  <scstep>
   <time name="total">    1.11    1.11</time>
   <energy>
    <i name="e_fr_energy">     -0.60394552 </i>
    <i name="e_wo_entrp">     -0.59975226 </i>
    <i name="e_0_energy">     -0.60184889 </i>
   </energy>
  </scstep>
  <scstep>
   <time name="total">    1.10    1.10</time>
   <energy>
    <i name="e_fr_energy">     -0.60777433 </i>
    <i name="e_wo_entrp">     -0.59322174 </i>
    <i name="e_0_energy">     -0.60049804 </i>
   </energy>
  </scstep>
  <scstep>
   <time name="total">    1.09    1.09</time>
   <energy>
    <i name="e_fr_energy">     -0.61792987 </i>
    <i name="e_wo_entrp">     -0.59221111 </i>
    <i name="e_0_energy">     -0.60507049 </i>
   </energy>
  </scstep>
  <scstep>
   <time name="total">    1.11    1.11</time>
   <energy>
    <i name="e_fr_energy">     -0.62905113 </i>
    <i name="e_wo_entrp">     -0.59618217 </i>
    <i name="e_0_energy">     -0.61261665 </i>
   </energy>
  </scstep>
  <scstep>
   <time name="total">    1.09    1.09</time>
   <energy>
    <i name="e_fr_energy">     -0.63632840 </i>
    <i name="e_wo_entrp">     -0.60001007 </i>
    <i name="e_0_energy">     -0.61816923 </i>
   </energy>
  </scstep>
  <scstep>
   <time name="total">    1.09    1.09</time>
   <energy>
    <i name="e_fr_energy">     -0.63992682 </i>
    <i name="e_wo_entrp">     -0.60218215 </i>
    <i name="e_0_energy">     -0.62105449 </i>
   </energy>
  </scstep>
  <scstep>
   <time name="total">    1.09    1.09</time>
   <energy>
    <i name="e_fr_energy">     -0.64145457 </i>
    <i name="e_wo_entrp">     -0.60317137 </i>
    <i name="e_0_energy">     -0.62231297 </i>
   </energy>
  </scstep>
  <scstep>
   <time name="total">    1.10    1.10</time>
   <energy>
    <i name="e_fr_energy">     -0.64204768 </i>
    <i name="e_wo_entrp">     -0.60357379 </i>
    <i name="e_0_energy">     -0.62281073 </i>
   </energy>
  </scstep>
  <scstep>
   <time name="total">    1.11    1.12</time>
   <energy>
    <i name="e_fr_energy">     -0.64226409 </i>
    <i name="e_wo_entrp">     -0.60372642 </i>
    <i name="e_0_energy">     -0.62299526 </i>
   </energy>
  </scstep>
  <scstep>
   <time name="total">    1.10    1.10</time>
   <energy>
    <i name="e_fr_energy">     -0.64233903 </i>
    <i name="e_wo_entrp">     -0.60378128 </i>
    <i name="e_0_energy">     -0.62306015 </i>
   </energy>
  </scstep>
  <scstep>
   <time name="total">    1.17    1.17</time>
   <energy>
    <i name="alphaZ">      1.64068492 </i>
    <i name="ewald">   -400.39350411 </i>
    <i name="hartreedc">  -1080.49914694 </i>
    <i name="XCdc">     36.78076510 </i>
    <i name="pawpsdc">   1445.35590127 </i>
    <i name="pawaedc">  -1428.73367643 </i>
    <i name="eentropy">     -0.03856361 </i>
    <i name="bandstr">   -236.36960109 </i>
    <i name="atom">   1661.61477137 </i>
    <i name="e_fr_energy">     -0.64236364 </i>
    <i name="e_wo_entrp">     -0.60380003 </i>
    <i name="e_0_energy">     -0.62308183 </i>
   </energy>
  </scstep>
  <structure>
   <crystal>
    <varray name="basis" >
     <v>      10.00000000       0.00000000       0.00000000 </v>
     <v>       0.00000000      10.00000000       0.00000000 </v>
     <v>       0.00000000       0.00000000      10.00000000 </v>
    </varray>
    <i name="volume">   1000.00000000 </i>
    <varray name="rec_basis" >
     <v>       0.10000000       0.00000000       0.00000000 </v>
     <v>       0.00000000       0.10000000       0.00000000 </v>
     <v>       0.00000000       0.00000000       0.10000000 </v>
    </varray>
   </crystal>
   <varray name="positions" >
    <v>       0.50000000       0.50000000       0.50000000 </v>
   </varray>
  </structure>
  <varray name="forces" >
   <v>       0.00000000       0.00000000       0.00000000 </v>
  </varray>
  <varray name="stress" >
   <v>       0.02378303       0.00000000       0.00000000 </v>
   <v>      -0.00000000       0.02378303       0.00000000 </v>
   <v>      -0.00000000      -0.00000000       0.02378303 </v>
  </varray>
  <energy>
   <i name="e_fr_energy">     -0.64236364 </i>
   <i name="e_wo_entrp">     -0.62308183 </i>
   <i name="e_0_energy">     -0.03856361 </i>
  </energy>
  <time name="totalsc">   35.00   35.19</time>
  <eigenvalues>
   <array>
    <dimension dim="1">band</dimension>
    <dimension dim="2">kpoint</dimension>
    <dimension dim="3">spin</dimension>
    <field>eigene</field>
    <field>occ</field>
    <set>
     <set comment="spin 1">
      <set comment="kpoint 1">
       <r>  -20.7277    1.0000 </r>
       <r>  -20.7277    1.0000 </r>
       <r>  -20.7277    1.0000 </r>
       <r>  -20.7276    1.0000 </r>
       <r>  -20.7276    1.0000 </r>
       <r>  -12.0004    1.0000 </r>
       <r>   -3.5507    0.6693 </r>
       <r>   -3.5507    0.6692 </r>
       <r>   -3.5507    0.6615 </r>
       <r>   -0.6728    0.0000 </r>
       <r>    0.7069    0.0000 </r>
       <r>    0.7070    0.0000 </r>
       <r>    1.1642    0.0000 </r>
       <r>    1.1649    0.0000 </r>
       <r>    1.1674    0.0000 </r>
       <r>    1.2871    0.0000 </r>
       <r>    1.5628    0.0000 </r>
       <r>    1.5629    0.0000 </r>
       <r>    1.5631    0.0000 </r>
       <r>    2.3924    0.0000 </r>
       <r>    2.3939    0.0000 </r>
       <r>    2.3984    0.0000 </r>
       <r>    2.4339    0.0000 </r>
       <r>    2.4363    0.0000 </r>
       <r>    2.9679    0.0000 </r>
       <r>    2.9749    0.0000 </r>
       <r>    3.0050    0.0000 </r>
       <r>    3.1651    0.0000 </r>
       <r>    3.4889    0.0000 </r>
       <r>    3.5972    0.0000 </r>
       <r>    3.6129    0.0000 </r>
       <r>    3.6169    0.0000 </r>
       <r>    4.1131    0.0000 </r>
       <r>    4.1237    0.0000 </r>
       <r>    4.2469    0.0000 </r>
       <r>    4.3653    0.0000 </r>
      </set>
     </set>
     <set comment="spin 2">
      <set comment="kpoint 1">
       <r>  -20.5293    1.0000 </r>
       <r>  -20.5293    1.0000 </r>
       <r>  -20.5292    1.0000 </r>
       <r>  -20.5292    1.0000 </r>
       <r>  -20.5292    1.0000 </r>
       <r>  -10.9833    1.0000 </r>
       <r>   -2.3185    0.0000 </r>
       <r>   -2.3184    0.0000 </r>
       <r>   -2.3183    0.0000 </r>
       <r>    0.1249    0.0000 </r>
       <r>    1.5135    0.0000 </r>
       <r>    1.5136    0.0000 </r>
       <r>    1.8007    0.0000 </r>
       <r>    1.9087    0.0000 </r>
       <r>    1.9091    0.0000 </r>
       <r>    1.9092    0.0000 </r>
       <r>    2.5684    0.0000 </r>
       <r>    2.5685    0.0000 </r>
       <r>    2.5690    0.0000 </r>
       <r>    3.0113    0.0000 </r>
       <r>    3.0116    0.0000 </r>
       <r>    3.1365    0.0000 </r>
       <r>    3.1369    0.0000 </r>
       <r>    3.1369    0.0000 </r>
       <r>    3.6584    0.0000 </r>
       <r>    3.6645    0.0000 </r>
       <r>    3.6699    0.0000 </r>
       <r>    3.6836    0.0000 </r>
       <r>    4.2631    0.0000 </r>
       <r>    4.2673    0.0000 </r>
       <r>    4.2681    0.0000 </r>
       <r>    4.4028    0.0000 </r>
       <r>    4.8900    0.0000 </r>
       <r>    4.9571    0.0000 </r>
       <r>    5.0127    0.0000 </r>
       <r>    5.0294    0.0000 </r>
      </set>
     </set>
    </set>
   </array>
  </eigenvalues>
  <separator name="orbital magnetization" >
   <v name="MAGDIPOLOUT">      0.00000000      0.00000000      0.00000000</v>
  </separator>
  <dos>
   <i name="efermi">     -3.53549175 </i>
   <total>
    <array>
     <dimension dim="1">gridpoints</dimension>
     <dimension dim="2">spin</dimension>
     <field>energy</field>
     <field>total</field>
     <field>integrated</field>
     <set>
      <set comment="spin 1">
       <r>   -22.0155     0.0000     0.0000 </r>
       <r>   -21.9211     0.0000     0.0000 </r>
       <r>   -21.8266     0.0000     0.0000 </r>
       <r>   -21.7322     0.0000     0.0000 </r>
       <r>   -21.6377     0.0000     0.0000 </r>
       <r>   -21.5433     0.0000     0.0000 </r>
       <r>   -21.4489     0.0000     0.0000 </r>
       <r>   -21.3544     0.0000     0.0000 </r>
       <r>   -21.2600     0.0000     0.0000 </r>
       <r>   -21.1655     0.0000     0.0000 </r>
       <r>   -21.0711     0.0000     0.0000 </r>
       <r>   -20.9766     0.0000     0.0000 </r>
       <r>   -20.8822     0.0003     0.0000 </r>
       <r>   -20.7878     2.3590     0.2228 </r>
       <r>   -20.6933    41.8094     4.1714 </r>
       <r>   -20.5989     8.7665     4.9993 </r>
       <r>   -20.5044     0.0071     5.0000 </r>
       <r>   -20.4100     0.0000     5.0000 </r>
       <r>   -20.3155     0.0000     5.0000 </r>
       <r>   -20.2211     0.0000     5.0000 </r>
       <r>   -20.1267     0.0000     5.0000 </r>
       <r>   -20.0322     0.0000     5.0000 </r>
       <r>   -19.9378     0.0000     5.0000 </r>
       <r>   -19.8433     0.0000     5.0000 </r>
       <r>   -19.7489     0.0000     5.0000 </r>
       <r>   -19.6544     0.0000     5.0000 </r>
       <r>   -19.5600     0.0000     5.0000 </r>
       <r>   -19.4656     0.0000     5.0000 </r>
       <r>   -19.3711     0.0000     5.0000 </r>
       <r>   -19.2767     0.0000     5.0000 </r>
       <r>   -19.1822     0.0000     5.0000 </r>
       <r>   -19.0878     0.0000     5.0000 </r>
       <r>   -18.9934     0.0000     5.0000 </r>
       <r>   -18.8989     0.0000     5.0000 </r>
       <r>   -18.8045     0.0000     5.0000 </r>
       <r>   -18.7100     0.0000     5.0000 </r>
       <r>   -18.6156     0.0000     5.0000 </r>
       <r>   -18.5211     0.0000     5.0000 </r>
       <r>   -18.4267     0.0000     5.0000 </r>
       <r>   -18.3323     0.0000     5.0000 </r>
       <r>   -18.2378     0.0000     5.0000 </r>
       <r>   -18.1434     0.0000     5.0000 </r>
       <r>   -18.0489     0.0000     5.0000 </r>
       <r>   -17.9545     0.0000     5.0000 </r>
       <r>   -17.8600     0.0000     5.0000 </r>
       <r>   -17.7656     0.0000     5.0000 </r>
       <r>   -17.6712     0.0000     5.0000 </r>
       <r>   -17.5767     0.0000     5.0000 </r>
       <r>   -17.4823     0.0000     5.0000 </r>
       <r>   -17.3878     0.0000     5.0000 </r>
       <r>   -17.2934     0.0000     5.0000 </r>
       <r>   -17.1989     0.0000     5.0000 </r>
       <r>   -17.1045     0.0000     5.0000 </r>
       <r>   -17.0101     0.0000     5.0000 </r>
       <r>   -16.9156     0.0000     5.0000 </r>
       <r>   -16.8212     0.0000     5.0000 </r>
       <r>   -16.7267     0.0000     5.0000 </r>
       <r>   -16.6323     0.0000     5.0000 </r>
       <r>   -16.5378     0.0000     5.0000 </r>
       <r>   -16.4434     0.0000     5.0000 </r>
       <r>   -16.3490     0.0000     5.0000 </r>
       <r>   -16.2545     0.0000     5.0000 </r>
       <r>   -16.1601     0.0000     5.0000 </r>
       <r>   -16.0656     0.0000     5.0000 </r>
       <r>   -15.9712     0.0000     5.0000 </r>
       <r>   -15.8768     0.0000     5.0000 </r>
       <r>   -15.7823     0.0000     5.0000 </r>
       <r>   -15.6879     0.0000     5.0000 </r>
       <r>   -15.5934     0.0000     5.0000 </r>
       <r>   -15.4990     0.0000     5.0000 </r>
       <r>   -15.4045     0.0000     5.0000 </r>
       <r>   -15.3101     0.0000     5.0000 </r>
       <r>   -15.2157     0.0000     5.0000 </r>
       <r>   -15.1212     0.0000     5.0000 </r>
       <r>   -15.0268     0.0000     5.0000 </r>
       <r>   -14.9323     0.0000     5.0000 </r>
       <r>   -14.8379     0.0000     5.0000 </r>
       <r>   -14.7434     0.0000     5.0000 </r>
       <r>   -14.6490     0.0000     5.0000 </r>
       <r>   -14.5546     0.0000     5.0000 </r>
       <r>   -14.4601     0.0000     5.0000 </r>
       <r>   -14.3657     0.0000     5.0000 </r>
       <r>   -14.2712     0.0000     5.0000 </r>
       <r>   -14.1768     0.0000     5.0000 </r>
       <r>   -14.0823     0.0000     5.0000 </r>
       <r>   -13.9879     0.0000     5.0000 </r>
       <r>   -13.8935     0.0000     5.0000 </r>
       <r>   -13.7990     0.0000     5.0000 </r>
       <r>   -13.7046     0.0000     5.0000 </r>
       <r>   -13.6101     0.0000     5.0000 </r>
       <r>   -13.5157     0.0000     5.0000 </r>
       <r>   -13.4212     0.0000     5.0000 </r>
       <r>   -13.3268     0.0000     5.0000 </r>
       <r>   -13.2324     0.0000     5.0000 </r>
       <r>   -13.1379     0.0000     5.0000 </r>
       <r>   -13.0435     0.0000     5.0000 </r>
       <r>   -12.9490     0.0000     5.0000 </r>
       <r>   -12.8546     0.0000     5.0000 </r>
       <r>   -12.7602     0.0000     5.0000 </r>
       <r>   -12.6657     0.0000     5.0000 </r>
       <r>   -12.5713     0.0000     5.0000 </r>
       <r>   -12.4768     0.0000     5.0000 </r>
       <r>   -12.3824     0.0000     5.0000 </r>
       <r>   -12.2879     0.0000     5.0000 </r>
       <r>   -12.1935     0.0000     5.0000 </r>
       <r>   -12.0991     0.0278     5.0026 </r>
       <r>   -12.0046     4.7628     5.4524 </r>
       <r>   -11.9102     5.7410     5.9946 </r>
       <r>   -11.8157     0.0567     6.0000 </r>
       <r>   -11.7213     0.0000     6.0000 </r>
       <r>   -11.6268     0.0000     6.0000 </r>
       <r>   -11.5324     0.0000     6.0000 </r>
       <r>   -11.4380     0.0000     6.0000 </r>
       <r>   -11.3435     0.0000     6.0000 </r>
       <r>   -11.2491     0.0000     6.0000 </r>
       <r>   -11.1546     0.0000     6.0000 </r>
       <r>   -11.0602     0.0000     6.0000 </r>
       <r>   -10.9657     0.0000     6.0000 </r>
       <r>   -10.8713     0.0000     6.0000 </r>
       <r>   -10.7769     0.0000     6.0000 </r>
       <r>   -10.6824     0.0000     6.0000 </r>
       <r>   -10.5880     0.0000     6.0000 </r>
       <r>   -10.4935     0.0000     6.0000 </r>
       <r>   -10.3991     0.0000     6.0000 </r>
       <r>   -10.3047     0.0000     6.0000 </r>
       <r>   -10.2102     0.0000     6.0000 </r>
       <r>   -10.1158     0.0000     6.0000 </r>
       <r>   -10.0213     0.0000     6.0000 </r>
       <r>    -9.9269     0.0000     6.0000 </r>
       <r>    -9.8324     0.0000     6.0000 </r>
       <r>    -9.7380     0.0000     6.0000 </r>
       <r>    -9.6436     0.0000     6.0000 </r>
       <r>    -9.5491     0.0000     6.0000 </r>
       <r>    -9.4547     0.0000     6.0000 </r>
       <r>    -9.3602     0.0000     6.0000 </r>
       <r>    -9.2658     0.0000     6.0000 </r>
       <r>    -9.1713     0.0000     6.0000 </r>
       <r>    -9.0769     0.0000     6.0000 </r>
       <r>    -8.9825     0.0000     6.0000 </r>
       <r>    -8.8880     0.0000     6.0000 </r>
       <r>    -8.7936     0.0000     6.0000 </r>
       <r>    -8.6991     0.0000     6.0000 </r>
       <r>    -8.6047     0.0000     6.0000 </r>
       <r>    -8.5102     0.0000     6.0000 </r>
       <r>    -8.4158     0.0000     6.0000 </r>
       <r>    -8.3214     0.0000     6.0000 </r>
       <r>    -8.2269     0.0000     6.0000 </r>
       <r>    -8.1325     0.0000     6.0000 </r>
       <r>    -8.0380     0.0000     6.0000 </r>
       <r>    -7.9436     0.0000     6.0000 </r>
       <r>    -7.8491     0.0000     6.0000 </r>
       <r>    -7.7547     0.0000     6.0000 </r>
       <r>    -7.6603     0.0000     6.0000 </r>
       <r>    -7.5658     0.0000     6.0000 </r>
       <r>    -7.4714     0.0000     6.0000 </r>
       <r>    -7.3769     0.0000     6.0000 </r>
       <r>    -7.2825     0.0000     6.0000 </r>
       <r>    -7.1881     0.0000     6.0000 </r>
       <r>    -7.0936     0.0000     6.0000 </r>
       <r>    -6.9992     0.0000     6.0000 </r>
       <r>    -6.9047     0.0000     6.0000 </r>
       <r>    -6.8103     0.0000     6.0000 </r>
       <r>    -6.7158     0.0000     6.0000 </r>
       <r>    -6.6214     0.0000     6.0000 </r>
       <r>    -6.5270     0.0000     6.0000 </r>
       <r>    -6.4325     0.0000     6.0000 </r>
       <r>    -6.3381     0.0000     6.0000 </r>
       <r>    -6.2436     0.0000     6.0000 </r>
       <r>    -6.1492     0.0000     6.0000 </r>
       <r>    -6.0547     0.0000     6.0000 </r>
       <r>    -5.9603     0.0000     6.0000 </r>
       <r>    -5.8659     0.0000     6.0000 </r>
       <r>    -5.7714     0.0000     6.0000 </r>
       <r>    -5.6770     0.0000     6.0000 </r>
       <r>    -5.5825     0.0000     6.0000 </r>
       <r>    -5.4881     0.0000     6.0000 </r>
       <r>    -5.3936     0.0000     6.0000 </r>
       <r>    -5.2992     0.0000     6.0000 </r>
       <r>    -5.2048     0.0000     6.0000 </r>
       <r>    -5.1103     0.0000     6.0000 </r>
       <r>    -5.0159     0.0000     6.0000 </r>
       <r>    -4.9214     0.0000     6.0000 </r>
       <r>    -4.8270     0.0000     6.0000 </r>
       <r>    -4.7325     0.0000     6.0000 </r>
       <r>    -4.6381     0.0000     6.0000 </r>
       <r>    -4.5437     0.0000     6.0000 </r>
       <r>    -4.4492     0.0000     6.0000 </r>
       <r>    -4.3548     0.0000     6.0000 </r>
       <r>    -4.2603     0.0000     6.0000 </r>
       <r>    -4.1659     0.0000     6.0000 </r>
       <r>    -4.0715     0.0000     6.0000 </r>
       <r>    -3.9770     0.0000     6.0000 </r>
       <r>    -3.8826     0.0000     6.0000 </r>
       <r>    -3.7881     0.0000     6.0000 </r>
       <r>    -3.6937     0.0008     6.0001 </r>
       <r>    -3.5992     2.6985     6.2549 </r>
       <r>    -3.5048    25.9851     8.7090 </r>
       <r>    -3.4104     3.0799     8.9999 </r>
       <r>    -3.3159     0.0011     9.0000 </r>
       <r>    -3.2215     0.0000     9.0000 </r>
       <r>    -3.1270     0.0000     9.0000 </r>
       <r>    -3.0326     0.0000     9.0000 </r>
       <r>    -2.9381     0.0000     9.0000 </r>
       <r>    -2.8437     0.0000     9.0000 </r>
       <r>    -2.7493     0.0000     9.0000 </r>
       <r>    -2.6548     0.0000     9.0000 </r>
       <r>    -2.5604     0.0000     9.0000 </r>
       <r>    -2.4659     0.0000     9.0000 </r>
       <r>    -2.3715     0.0000     9.0000 </r>
       <r>    -2.2770     0.0000     9.0000 </r>
       <r>    -2.1826     0.0000     9.0000 </r>
       <r>    -2.0882     0.0000     9.0000 </r>
       <r>    -1.9937     0.0000     9.0000 </r>
       <r>    -1.8993     0.0000     9.0000 </r>
       <r>    -1.8048     0.0000     9.0000 </r>
       <r>    -1.7104     0.0000     9.0000 </r>
       <r>    -1.6160     0.0000     9.0000 </r>
       <r>    -1.5215     0.0000     9.0000 </r>
       <r>    -1.4271     0.0000     9.0000 </r>
       <r>    -1.3326     0.0000     9.0000 </r>
       <r>    -1.2382     0.0000     9.0000 </r>
       <r>    -1.1437     0.0000     9.0000 </r>
       <r>    -1.0493     0.0000     9.0000 </r>
       <r>    -0.9549     0.0000     9.0000 </r>
       <r>    -0.8604     0.0000     9.0000 </r>
       <r>    -0.7660     0.0444     9.0042 </r>
       <r>    -0.6715     5.3969     9.5139 </r>
       <r>    -0.5771     5.1112     9.9966 </r>
       <r>    -0.4826     0.0360    10.0000 </r>
       <r>    -0.3882     0.0000    10.0000 </r>
       <r>    -0.2938     0.0000    10.0000 </r>
       <r>    -0.1993     0.0000    10.0000 </r>
       <r>    -0.1049     0.0000    10.0000 </r>
       <r>    -0.0104     0.0000    10.0000 </r>
       <r>     0.0840     0.0000    10.0000 </r>
       <r>     0.1785     0.0000    10.0000 </r>
       <r>     0.2729     0.0000    10.0000 </r>
       <r>     0.3673     0.0000    10.0000 </r>
       <r>     0.4618     0.0000    10.0000 </r>
       <r>     0.5562     0.0002    10.0000 </r>
       <r>     0.6507     1.1804    10.1115 </r>
       <r>     0.7451    17.0288    11.7197 </r>
       <r>     0.8396     2.9657    11.9998 </r>
       <r>     0.9340     0.0019    12.0000 </r>
       <r>     1.0284     0.0017    12.0002 </r>
       <r>     1.1229     3.6231    12.3423 </r>
       <r>     1.2173    26.1232    14.8095 </r>
       <r>     1.3118    10.0323    15.7569 </r>
       <r>     1.4062     2.5697    15.9996 </r>
       <r>     1.5006     1.2451    16.1172 </r>
       <r>     1.5951    24.7591    18.4555 </r>
       <r>     1.6895     5.7596    18.9995 </r>
       <r>     1.7840     0.0054    19.0000 </r>
       <r>     1.8784     0.0000    19.0000 </r>
       <r>     1.9729     0.0000    19.0000 </r>
       <r>     2.0673     0.0000    19.0000 </r>
       <r>     2.1617     0.0000    19.0000 </r>
       <r>     2.2562     0.0014    19.0001 </r>
       <r>     2.3506     3.5420    19.3346 </r>
       <r>     2.4451    38.6694    22.9867 </r>
       <r>     2.5395    10.6953    23.9968 </r>
       <r>     2.6340     0.0342    24.0000 </r>
       <r>     2.7284     0.0000    24.0000 </r>
       <r>     2.8228     0.0003    24.0000 </r>
       <r>     2.9173     1.4238    24.1345 </r>
       <r>     3.0117    23.1408    26.3200 </r>
       <r>     3.1062     7.6837    27.0456 </r>
       <r>     3.2006     8.4393    27.8427 </r>
       <r>     3.2951     1.6647    27.9999 </r>
       <r>     3.3895     0.0273    28.0025 </r>
       <r>     3.4839     4.6859    28.4450 </r>
       <r>     3.5784    12.1669    29.5941 </r>
       <r>     3.6728    24.2239    31.8818 </r>
       <r>     3.7673     1.2509    32.0000 </r>
       <r>     3.8617     0.0002    32.0000 </r>
       <r>     3.9562     0.0001    32.0000 </r>
       <r>     4.0506     0.6126    32.0579 </r>
       <r>     4.1450    15.7518    33.5455 </r>
       <r>     4.2395     9.2177    34.4160 </r>
       <r>     4.3339     8.0948    35.1805 </r>
       <r>     4.4284     8.2829    35.9628 </r>
       <r>     4.5228     0.3940    36.0000 </r>
       <r>     4.6172     0.0000    36.0000 </r>
       <r>     4.7117     0.0000    36.0000 </r>
       <r>     4.8061     0.0000    36.0000 </r>
       <r>     4.9006     0.0000    36.0000 </r>
       <r>     4.9950     0.0000    36.0000 </r>
       <r>     5.0895     0.0000    36.0000 </r>
       <r>     5.1839     0.0000    36.0000 </r>
       <r>     5.2783     0.0000    36.0000 </r>
       <r>     5.3728     0.0000    36.0000 </r>
       <r>     5.4672     0.0000    36.0000 </r>
       <r>     5.5617     0.0000    36.0000 </r>
       <r>     5.6561     0.0000    36.0000 </r>
       <r>     5.7506     0.0000    36.0000 </r>
       <r>     5.8450     0.0000    36.0000 </r>
       <r>     5.9394     0.0000    36.0000 </r>
       <r>     6.0339     0.0000    36.0000 </r>
       <r>     6.1283     0.0000    36.0000 </r>
       <r>     6.2228     0.0000    36.0000 </r>
       <r>     6.3172     0.0000    36.0000 </r>
      </set>
      <set comment="spin 2">
       <r>   -22.0155     0.0000     0.0000 </r>
       <r>   -21.9211     0.0000     0.0000 </r>
       <r>   -21.8266     0.0000     0.0000 </r>
       <r>   -21.7322     0.0000     0.0000 </r>
       <r>   -21.6377     0.0000     0.0000 </r>
       <r>   -21.5433     0.0000     0.0000 </r>
       <r>   -21.4489     0.0000     0.0000 </r>
       <r>   -21.3544     0.0000     0.0000 </r>
       <r>   -21.2600     0.0000     0.0000 </r>
       <r>   -21.1655     0.0000     0.0000 </r>
       <r>   -21.0711     0.0000     0.0000 </r>
       <r>   -20.9766     0.0000     0.0000 </r>
       <r>   -20.8822     0.0000     0.0000 </r>
       <r>   -20.7878     0.0000     0.0000 </r>
       <r>   -20.6933     0.0001     0.0000 </r>
       <r>   -20.5989     1.2949     0.1223 </r>
       <r>   -20.5044    38.8697     3.7932 </r>
       <r>   -20.4100    12.7580     4.9981 </r>
       <r>   -20.3155     0.0197     5.0000 </r>
       <r>   -20.2211     0.0000     5.0000 </r>
       <r>   -20.1267     0.0000     5.0000 </r>
       <r>   -20.0322     0.0000     5.0000 </r>
       <r>   -19.9378     0.0000     5.0000 </r>
       <r>   -19.8433     0.0000     5.0000 </r>
       <r>   -19.7489     0.0000     5.0000 </r>
       <r>   -19.6544     0.0000     5.0000 </r>
       <r>   -19.5600     0.0000     5.0000 </r>
       <r>   -19.4656     0.0000     5.0000 </r>
       <r>   -19.3711     0.0000     5.0000 </r>
       <r>   -19.2767     0.0000     5.0000 </r>
       <r>   -19.1822     0.0000     5.0000 </r>
       <r>   -19.0878     0.0000     5.0000 </r>
       <r>   -18.9934     0.0000     5.0000 </r>
       <r>   -18.8989     0.0000     5.0000 </r>
       <r>   -18.8045     0.0000     5.0000 </r>
       <r>   -18.7100     0.0000     5.0000 </r>
       <r>   -18.6156     0.0000     5.0000 </r>
       <r>   -18.5211     0.0000     5.0000 </r>
       <r>   -18.4267     0.0000     5.0000 </r>
       <r>   -18.3323     0.0000     5.0000 </r>
       <r>   -18.2378     0.0000     5.0000 </r>
       <r>   -18.1434     0.0000     5.0000 </r>
       <r>   -18.0489     0.0000     5.0000 </r>
       <r>   -17.9545     0.0000     5.0000 </r>
       <r>   -17.8600     0.0000     5.0000 </r>
       <r>   -17.7656     0.0000     5.0000 </r>
       <r>   -17.6712     0.0000     5.0000 </r>
       <r>   -17.5767     0.0000     5.0000 </r>
       <r>   -17.4823     0.0000     5.0000 </r>
       <r>   -17.3878     0.0000     5.0000 </r>
       <r>   -17.2934     0.0000     5.0000 </r>
       <r>   -17.1989     0.0000     5.0000 </r>
       <r>   -17.1045     0.0000     5.0000 </r>
       <r>   -17.0101     0.0000     5.0000 </r>
       <r>   -16.9156     0.0000     5.0000 </r>
       <r>   -16.8212     0.0000     5.0000 </r>
       <r>   -16.7267     0.0000     5.0000 </r>
       <r>   -16.6323     0.0000     5.0000 </r>
       <r>   -16.5378     0.0000     5.0000 </r>
       <r>   -16.4434     0.0000     5.0000 </r>
       <r>   -16.3490     0.0000     5.0000 </r>
       <r>   -16.2545     0.0000     5.0000 </r>
       <r>   -16.1601     0.0000     5.0000 </r>
       <r>   -16.0656     0.0000     5.0000 </r>
       <r>   -15.9712     0.0000     5.0000 </r>
       <r>   -15.8768     0.0000     5.0000 </r>
       <r>   -15.7823     0.0000     5.0000 </r>
       <r>   -15.6879     0.0000     5.0000 </r>
       <r>   -15.5934     0.0000     5.0000 </r>
       <r>   -15.4990     0.0000     5.0000 </r>
       <r>   -15.4045     0.0000     5.0000 </r>
       <r>   -15.3101     0.0000     5.0000 </r>
       <r>   -15.2157     0.0000     5.0000 </r>
       <r>   -15.1212     0.0000     5.0000 </r>
       <r>   -15.0268     0.0000     5.0000 </r>
       <r>   -14.9323     0.0000     5.0000 </r>
       <r>   -14.8379     0.0000     5.0000 </r>
       <r>   -14.7434     0.0000     5.0000 </r>
       <r>   -14.6490     0.0000     5.0000 </r>
       <r>   -14.5546     0.0000     5.0000 </r>
       <r>   -14.4601     0.0000     5.0000 </r>
       <r>   -14.3657     0.0000     5.0000 </r>
       <r>   -14.2712     0.0000     5.0000 </r>
       <r>   -14.1768     0.0000     5.0000 </r>
       <r>   -14.0823     0.0000     5.0000 </r>
       <r>   -13.9879     0.0000     5.0000 </r>
       <r>   -13.8935     0.0000     5.0000 </r>
       <r>   -13.7990     0.0000     5.0000 </r>
       <r>   -13.7046     0.0000     5.0000 </r>
       <r>   -13.6101     0.0000     5.0000 </r>
       <r>   -13.5157     0.0000     5.0000 </r>
       <r>   -13.4212     0.0000     5.0000 </r>
       <r>   -13.3268     0.0000     5.0000 </r>
       <r>   -13.2324     0.0000     5.0000 </r>
       <r>   -13.1379     0.0000     5.0000 </r>
       <r>   -13.0435     0.0000     5.0000 </r>
       <r>   -12.9490     0.0000     5.0000 </r>
       <r>   -12.8546     0.0000     5.0000 </r>
       <r>   -12.7602     0.0000     5.0000 </r>
       <r>   -12.6657     0.0000     5.0000 </r>
       <r>   -12.5713     0.0000     5.0000 </r>
       <r>   -12.4768     0.0000     5.0000 </r>
       <r>   -12.3824     0.0000     5.0000 </r>
       <r>   -12.2879     0.0000     5.0000 </r>
       <r>   -12.1935     0.0000     5.0000 </r>
       <r>   -12.0991     0.0000     5.0000 </r>
       <r>   -12.0046     0.0000     5.0000 </r>
       <r>   -11.9102     0.0000     5.0000 </r>
       <r>   -11.8157     0.0000     5.0000 </r>
       <r>   -11.7213     0.0000     5.0000 </r>
       <r>   -11.6268     0.0000     5.0000 </r>
       <r>   -11.5324     0.0000     5.0000 </r>
       <r>   -11.4380     0.0000     5.0000 </r>
       <r>   -11.3435     0.0000     5.0000 </r>
       <r>   -11.2491     0.0000     5.0000 </r>
       <r>   -11.1546     0.0000     5.0000 </r>
       <r>   -11.0602     0.1568     5.0148 </r>
       <r>   -10.9657     7.1499     5.6901 </r>
       <r>   -10.8713     3.2736     5.9992 </r>
       <r>   -10.7769     0.0081     6.0000 </r>
       <r>   -10.6824     0.0000     6.0000 </r>
       <r>   -10.5880     0.0000     6.0000 </r>
       <r>   -10.4935     0.0000     6.0000 </r>
       <r>   -10.3991     0.0000     6.0000 </r>
       <r>   -10.3047     0.0000     6.0000 </r>
       <r>   -10.2102     0.0000     6.0000 </r>
       <r>   -10.1158     0.0000     6.0000 </r>
       <r>   -10.0213     0.0000     6.0000 </r>
       <r>    -9.9269     0.0000     6.0000 </r>
       <r>    -9.8324     0.0000     6.0000 </r>
       <r>    -9.7380     0.0000     6.0000 </r>
       <r>    -9.6436     0.0000     6.0000 </r>
       <r>    -9.5491     0.0000     6.0000 </r>
       <r>    -9.4547     0.0000     6.0000 </r>
       <r>    -9.3602     0.0000     6.0000 </r>
       <r>    -9.2658     0.0000     6.0000 </r>
       <r>    -9.1713     0.0000     6.0000 </r>
       <r>    -9.0769     0.0000     6.0000 </r>
       <r>    -8.9825     0.0000     6.0000 </r>
       <r>    -8.8880     0.0000     6.0000 </r>
       <r>    -8.7936     0.0000     6.0000 </r>
       <r>    -8.6991     0.0000     6.0000 </r>
       <r>    -8.6047     0.0000     6.0000 </r>
       <r>    -8.5102     0.0000     6.0000 </r>
       <r>    -8.4158     0.0000     6.0000 </r>
       <r>    -8.3214     0.0000     6.0000 </r>
       <r>    -8.2269     0.0000     6.0000 </r>
       <r>    -8.1325     0.0000     6.0000 </r>
       <r>    -8.0380     0.0000     6.0000 </r>
       <r>    -7.9436     0.0000     6.0000 </r>
       <r>    -7.8491     0.0000     6.0000 </r>
       <r>    -7.7547     0.0000     6.0000 </r>
       <r>    -7.6603     0.0000     6.0000 </r>
       <r>    -7.5658     0.0000     6.0000 </r>
       <r>    -7.4714     0.0000     6.0000 </r>
       <r>    -7.3769     0.0000     6.0000 </r>
       <r>    -7.2825     0.0000     6.0000 </r>
       <r>    -7.1881     0.0000     6.0000 </r>
       <r>    -7.0936     0.0000     6.0000 </r>
       <r>    -6.9992     0.0000     6.0000 </r>
       <r>    -6.9047     0.0000     6.0000 </r>
       <r>    -6.8103     0.0000     6.0000 </r>
       <r>    -6.7158     0.0000     6.0000 </r>
       <r>    -6.6214     0.0000     6.0000 </r>
       <r>    -6.5270     0.0000     6.0000 </r>
       <r>    -6.4325     0.0000     6.0000 </r>
       <r>    -6.3381     0.0000     6.0000 </r>
       <r>    -6.2436     0.0000     6.0000 </r>
       <r>    -6.1492     0.0000     6.0000 </r>
       <r>    -6.0547     0.0000     6.0000 </r>
       <r>    -5.9603     0.0000     6.0000 </r>
       <r>    -5.8659     0.0000     6.0000 </r>
       <r>    -5.7714     0.0000     6.0000 </r>
       <r>    -5.6770     0.0000     6.0000 </r>
       <r>    -5.5825     0.0000     6.0000 </r>
       <r>    -5.4881     0.0000     6.0000 </r>
       <r>    -5.3936     0.0000     6.0000 </r>
       <r>    -5.2992     0.0000     6.0000 </r>
       <r>    -5.2048     0.0000     6.0000 </r>
       <r>    -5.1103     0.0000     6.0000 </r>
       <r>    -5.0159     0.0000     6.0000 </r>
       <r>    -4.9214     0.0000     6.0000 </r>
       <r>    -4.8270     0.0000     6.0000 </r>
       <r>    -4.7325     0.0000     6.0000 </r>
       <r>    -4.6381     0.0000     6.0000 </r>
       <r>    -4.5437     0.0000     6.0000 </r>
       <r>    -4.4492     0.0000     6.0000 </r>
       <r>    -4.3548     0.0000     6.0000 </r>
       <r>    -4.2603     0.0000     6.0000 </r>
       <r>    -4.1659     0.0000     6.0000 </r>
       <r>    -4.0715     0.0000     6.0000 </r>
       <r>    -3.9770     0.0000     6.0000 </r>
       <r>    -3.8826     0.0000     6.0000 </r>
       <r>    -3.7881     0.0000     6.0000 </r>
       <r>    -3.6937     0.0000     6.0000 </r>
       <r>    -3.5992     0.0000     6.0000 </r>
       <r>    -3.5048     0.0000     6.0000 </r>
       <r>    -3.4104     0.0000     6.0000 </r>
       <r>    -3.3159     0.0000     6.0000 </r>
       <r>    -3.2215     0.0000     6.0000 </r>
       <r>    -3.1270     0.0000     6.0000 </r>
       <r>    -3.0326     0.0000     6.0000 </r>
       <r>    -2.9381     0.0000     6.0000 </r>
       <r>    -2.8437     0.0000     6.0000 </r>
       <r>    -2.7493     0.0000     6.0000 </r>
       <r>    -2.6548     0.0000     6.0000 </r>
       <r>    -2.5604     0.0000     6.0000 </r>
       <r>    -2.4659     0.0005     6.0000 </r>
       <r>    -2.3715     2.1133     6.1996 </r>
       <r>    -2.2770    25.8028     8.6365 </r>
       <r>    -2.1826     3.8469     8.9998 </r>
       <r>    -2.0882     0.0020     9.0000 </r>
       <r>    -1.9937     0.0000     9.0000 </r>
       <r>    -1.8993     0.0000     9.0000 </r>
       <r>    -1.8048     0.0000     9.0000 </r>
       <r>    -1.7104     0.0000     9.0000 </r>
       <r>    -1.6160     0.0000     9.0000 </r>
       <r>    -1.5215     0.0000     9.0000 </r>
       <r>    -1.4271     0.0000     9.0000 </r>
       <r>    -1.3326     0.0000     9.0000 </r>
       <r>    -1.2382     0.0000     9.0000 </r>
       <r>    -1.1437     0.0000     9.0000 </r>
       <r>    -1.0493     0.0000     9.0000 </r>
       <r>    -0.9549     0.0000     9.0000 </r>
       <r>    -0.8604     0.0000     9.0000 </r>
       <r>    -0.7660     0.0000     9.0000 </r>
       <r>    -0.6715     0.0000     9.0000 </r>
       <r>    -0.5771     0.0000     9.0000 </r>
       <r>    -0.4826     0.0000     9.0000 </r>
       <r>    -0.3882     0.0000     9.0000 </r>
       <r>    -0.2938     0.0000     9.0000 </r>
       <r>    -0.1993     0.0000     9.0000 </r>
       <r>    -0.1049     0.0000     9.0000 </r>
       <r>    -0.0104     0.0007     9.0001 </r>
       <r>     0.0840     1.3107     9.1239 </r>
       <r>     0.1785     8.5904     9.9351 </r>
       <r>     0.2729     0.6865    10.0000 </r>
       <r>     0.3673     0.0001    10.0000 </r>
       <r>     0.4618     0.0000    10.0000 </r>
       <r>     0.5562     0.0000    10.0000 </r>
       <r>     0.6507     0.0000    10.0000 </r>
       <r>     0.7451     0.0000    10.0000 </r>
       <r>     0.8396     0.0000    10.0000 </r>
       <r>     0.9340     0.0000    10.0000 </r>
       <r>     1.0284     0.0000    10.0000 </r>
       <r>     1.1229     0.0000    10.0000 </r>
       <r>     1.2173     0.0000    10.0000 </r>
       <r>     1.3118     0.0000    10.0000 </r>
       <r>     1.4062     0.0254    10.0024 </r>
       <r>     1.5006     7.5520    10.7156 </r>
       <r>     1.5951    13.3765    11.9789 </r>
       <r>     1.6895     0.2318    12.0008 </r>
       <r>     1.7840     3.3664    12.3188 </r>
       <r>     1.8784    13.2143    13.5668 </r>
       <r>     1.9729    24.6389    15.8937 </r>
       <r>     2.0673     1.1253    16.0000 </r>
       <r>     2.1617     0.0001    16.0000 </r>
       <r>     2.2562     0.0000    16.0000 </r>
       <r>     2.3506     0.0000    16.0000 </r>
       <r>     2.4451     0.0075    16.0007 </r>
       <r>     2.5395     6.5071    16.6153 </r>
       <r>     2.6340    24.2237    18.9030 </r>
       <r>     2.7284     1.0269    19.0000 </r>
       <r>     2.8228     0.0001    19.0000 </r>
       <r>     2.9173     0.0816    19.0077 </r>
       <r>     3.0117    10.5682    20.0058 </r>
       <r>     3.1062    16.5936    21.5729 </r>
       <r>     3.2006    24.5724    23.8936 </r>
       <r>     3.2951     1.1264    24.0000 </r>
       <r>     3.3895     0.0001    24.0000 </r>
       <r>     3.4839     0.0000    24.0000 </r>
       <r>     3.5784     0.2707    24.0256 </r>
       <r>     3.6728    22.6634    26.1660 </r>
       <r>     3.7673    19.2637    27.9853 </r>
       <r>     3.8617     0.1561    28.0000 </r>
       <r>     3.9562     0.0000    28.0000 </r>
       <r>     4.0506     0.0000    28.0000 </r>
       <r>     4.1450     0.0100    28.0009 </r>
       <r>     4.2395     7.1614    28.6773 </r>
       <r>     4.3339    23.9818    30.9422 </r>
       <r>     4.4284     8.7161    31.7653 </r>
       <r>     4.5228     2.4810    31.9997 </r>
       <r>     4.6172     0.0036    32.0000 </r>
       <r>     4.7117     0.0000    32.0000 </r>
       <r>     4.8061     0.0938    32.0089 </r>
       <r>     4.9006     7.0380    32.6736 </r>
       <r>     4.9950    17.5514    34.3312 </r>
       <r>     5.0895    17.0394    35.9404 </r>
       <r>     5.1839     0.6310    36.0000 </r>
       <r>     5.2783     0.0001    36.0000 </r>
       <r>     5.3728     0.0000    36.0000 </r>
       <r>     5.4672     0.0000    36.0000 </r>
       <r>     5.5617     0.0000    36.0000 </r>
       <r>     5.6561     0.0000    36.0000 </r>
       <r>     5.7506     0.0000    36.0000 </r>
       <r>     5.8450     0.0000    36.0000 </r>
       <r>     5.9394     0.0000    36.0000 </r>
       <r>     6.0339     0.0000    36.0000 </r>
       <r>     6.1283     0.0000    36.0000 </r>
       <r>     6.2228     0.0000    36.0000 </r>
       <r>     6.3172     0.0000    36.0000 </r>
      </set>
     </set>
    </array>
   </total>
   <partial>
    <array>
     <dimension dim="1">gridpoints</dimension>
     <dimension dim="2">spin</dimension>
     <dimension dim="3">ion</dimension>
     <field>energy</field>
     <field>    s</field>
     <field>   py</field>
     <field>   pz</field>
     <field>   px</field>
     <field>  dxy</field>
     <field>  dyz</field>
     <field>  dz2</field>
     <field>  dxz</field>
     <field>x2-y2</field>
     <set>
      <set comment="ion 1">
       <set comment="spin 1">
        <r>   -22.0155     0.0000     0.0000     0.0000     0.0000     0.0000     0.0000     0.0000     0.0000     0.0000 </r>
        <r>   -21.9211     0.0000     0.0000     0.0000     0.0000     0.0000     0.0000     0.0000     0.0000     0.0000 </r>
        <r>   -21.8266     0.0000     0.0000     0.0000     0.0000     0.0000     0.0000     0.0000     0.0000     0.0000 </r>
        <r>   -21.7322     0.0000     0.0000     0.0000     0.0000     0.0000     0.0000     0.0000     0.0000     0.0000 </r>
        <r>   -21.6377     0.0000     0.0000     0.0000     0.0000     0.0000     0.0000     0.0000     0.0000     0.0000 </r>
        <r>   -21.5433     0.0000     0.0000     0.0000     0.0000     0.0000     0.0000     0.0000     0.0000     0.0000 </r>
        <r>   -21.4489     0.0000     0.0000     0.0000     0.0000     0.0000     0.0000     0.0000     0.0000     0.0000 </r>
        <r>   -21.3544     0.0000     0.0000     0.0000     0.0000     0.0000     0.0000     0.0000     0.0000     0.0000 </r>
        <r>   -21.2600     0.0000     0.0000     0.0000     0.0000     0.0000     0.0000     0.0000     0.0000     0.0000 </r>
        <r>   -21.1655     0.0000     0.0000     0.0000     0.0000     0.0000     0.0000     0.0000     0.0000     0.0000 </r>
        <r>   -21.0711     0.0000     0.0000     0.0000     0.0000     0.0000     0.0000     0.0000     0.0000     0.0000 </r>
        <r>   -20.9766     0.0000     0.0000     0.0000     0.0000     0.0000     0.0000     0.0000     0.0000     0.0000 </r>
        <r>   -20.8822     0.0000     0.0000     0.0000     0.0000     0.0001     0.0001     0.0001     0.0001     0.0001 </r>
        <r>   -20.7878     0.0000     0.0000     0.0000     0.0000     0.4618     0.4618     0.4615     0.4618     0.4615 </r>
        <r>   -20.6933     0.0000     0.0000     0.0000     0.0000     8.1830     8.1830     8.1824     8.1830     8.1824 </r>
        <r>   -20.5989     0.0000     0.0000     0.0000     0.0000     1.7154     1.7154     1.7163     1.7154     1.7163 </r>
        <r>   -20.5044     0.0000     0.0000     0.0000     0.0000     0.0014     0.0014     0.0014     0.0014     0.0014 </r>
        <r>   -20.4100     0.0000     0.0000     0.0000     0.0000     0.0000     0.0000     0.0000     0.0000     0.0000 </r>
        <r>   -20.3155     0.0000     0.0000     0.0000     0.0000     0.0000     0.0000     0.0000     0.0000     0.0000 </r>
        <r>   -20.2211     0.0000     0.0000     0.0000     0.0000     0.0000     0.0000     0.0000     0.0000     0.0000 </r>
        <r>   -20.1267     0.0000     0.0000     0.0000     0.0000     0.0000     0.0000     0.0000     0.0000     0.0000 </r>
        <r>   -20.0322     0.0000     0.0000     0.0000     0.0000     0.0000     0.0000     0.0000     0.0000     0.0000 </r>
        <r>   -19.9378     0.0000     0.0000     0.0000     0.0000     0.0000     0.0000     0.0000     0.0000     0.0000 </r>
        <r>   -19.8433     0.0000     0.0000     0.0000     0.0000     0.0000     0.0000     0.0000     0.0000     0.0000 </r>
        <r>   -19.7489     0.0000     0.0000     0.0000     0.0000     0.0000     0.0000     0.0000     0.0000     0.0000 </r>
        <r>   -19.6544     0.0000     0.0000     0.0000     0.0000     0.0000     0.0000     0.0000     0.0000     0.0000 </r>
        <r>   -19.5600     0.0000     0.0000     0.0000     0.0000     0.0000     0.0000     0.0000     0.0000     0.0000 </r>
        <r>   -19.4656     0.0000     0.0000     0.0000     0.0000     0.0000     0.0000     0.0000     0.0000     0.0000 </r>
        <r>   -19.3711     0.0000     0.0000     0.0000     0.0000     0.0000     0.0000     0.0000     0.0000     0.0000 </r>
        <r>   -19.2767     0.0000     0.0000     0.0000     0.0000     0.0000     0.0000     0.0000     0.0000     0.0000 </r>
        <r>   -19.1822     0.0000     0.0000     0.0000     0.0000     0.0000     0.0000     0.0000     0.0000     0.0000 </r>
        <r>   -19.0878     0.0000     0.0000     0.0000     0.0000     0.0000     0.0000     0.0000     0.0000     0.0000 </r>
        <r>   -18.9934     0.0000     0.0000     0.0000     0.0000     0.0000     0.0000     0.0000     0.0000     0.0000 </r>
        <r>   -18.8989     0.0000     0.0000     0.0000     0.0000     0.0000     0.0000     0.0000     0.0000     0.0000 </r>
        <r>   -18.8045     0.0000     0.0000     0.0000     0.0000     0.0000     0.0000     0.0000     0.0000     0.0000 </r>
        <r>   -18.7100     0.0000     0.0000     0.0000     0.0000     0.0000     0.0000     0.0000     0.0000     0.0000 </r>
        <r>   -18.6156     0.0000     0.0000     0.0000     0.0000     0.0000     0.0000     0.0000     0.0000     0.0000 </r>
        <r>   -18.5211     0.0000     0.0000     0.0000     0.0000     0.0000     0.0000     0.0000     0.0000     0.0000 </r>
        <r>   -18.4267     0.0000     0.0000     0.0000     0.0000     0.0000     0.0000     0.0000     0.0000     0.0000 </r>
        <r>   -18.3323     0.0000     0.0000     0.0000     0.0000     0.0000     0.0000     0.0000     0.0000     0.0000 </r>
        <r>   -18.2378     0.0000     0.0000     0.0000     0.0000     0.0000     0.0000     0.0000     0.0000     0.0000 </r>
        <r>   -18.1434     0.0000     0.0000     0.0000     0.0000     0.0000     0.0000     0.0000     0.0000     0.0000 </r>
        <r>   -18.0489     0.0000     0.0000     0.0000     0.0000     0.0000     0.0000     0.0000     0.0000     0.0000 </r>
        <r>   -17.9545     0.0000     0.0000     0.0000     0.0000     0.0000     0.0000     0.0000     0.0000     0.0000 </r>
        <r>   -17.8600     0.0000     0.0000     0.0000     0.0000     0.0000     0.0000     0.0000     0.0000     0.0000 </r>
        <r>   -17.7656     0.0000     0.0000     0.0000     0.0000     0.0000     0.0000     0.0000     0.0000     0.0000 </r>
        <r>   -17.6712     0.0000     0.0000     0.0000     0.0000     0.0000     0.0000     0.0000     0.0000     0.0000 </r>
        <r>   -17.5767     0.0000     0.0000     0.0000     0.0000     0.0000     0.0000     0.0000     0.0000     0.0000 </r>
        <r>   -17.4823     0.0000     0.0000     0.0000     0.0000     0.0000     0.0000     0.0000     0.0000     0.0000 </r>
        <r>   -17.3878     0.0000     0.0000     0.0000     0.0000     0.0000     0.0000     0.0000     0.0000     0.0000 </r>
        <r>   -17.2934     0.0000     0.0000     0.0000     0.0000     0.0000     0.0000     0.0000     0.0000     0.0000 </r>
        <r>   -17.1989     0.0000     0.0000     0.0000     0.0000     0.0000     0.0000     0.0000     0.0000     0.0000 </r>
        <r>   -17.1045     0.0000     0.0000     0.0000     0.0000     0.0000     0.0000     0.0000     0.0000     0.0000 </r>
        <r>   -17.0101     0.0000     0.0000     0.0000     0.0000     0.0000     0.0000     0.0000     0.0000     0.0000 </r>
        <r>   -16.9156     0.0000     0.0000     0.0000     0.0000     0.0000     0.0000     0.0000     0.0000     0.0000 </r>
        <r>   -16.8212     0.0000     0.0000     0.0000     0.0000     0.0000     0.0000     0.0000     0.0000     0.0000 </r>
        <r>   -16.7267     0.0000     0.0000     0.0000     0.0000     0.0000     0.0000     0.0000     0.0000     0.0000 </r>
        <r>   -16.6323     0.0000     0.0000     0.0000     0.0000     0.0000     0.0000     0.0000     0.0000     0.0000 </r>
        <r>   -16.5378     0.0000     0.0000     0.0000     0.0000     0.0000     0.0000     0.0000     0.0000     0.0000 </r>
        <r>   -16.4434     0.0000     0.0000     0.0000     0.0000     0.0000     0.0000     0.0000     0.0000     0.0000 </r>
        <r>   -16.3490     0.0000     0.0000     0.0000     0.0000     0.0000     0.0000     0.0000     0.0000     0.0000 </r>
        <r>   -16.2545     0.0000     0.0000     0.0000     0.0000     0.0000     0.0000     0.0000     0.0000     0.0000 </r>
        <r>   -16.1601     0.0000     0.0000     0.0000     0.0000     0.0000     0.0000     0.0000     0.0000     0.0000 </r>
        <r>   -16.0656     0.0000     0.0000     0.0000     0.0000     0.0000     0.0000     0.0000     0.0000     0.0000 </r>
        <r>   -15.9712     0.0000     0.0000     0.0000     0.0000     0.0000     0.0000     0.0000     0.0000     0.0000 </r>
        <r>   -15.8768     0.0000     0.0000     0.0000     0.0000     0.0000     0.0000     0.0000     0.0000     0.0000 </r>
        <r>   -15.7823     0.0000     0.0000     0.0000     0.0000     0.0000     0.0000     0.0000     0.0000     0.0000 </r>
        <r>   -15.6879     0.0000     0.0000     0.0000     0.0000     0.0000     0.0000     0.0000     0.0000     0.0000 </r>
        <r>   -15.5934     0.0000     0.0000     0.0000     0.0000     0.0000     0.0000     0.0000     0.0000     0.0000 </r>
        <r>   -15.4990     0.0000     0.0000     0.0000     0.0000     0.0000     0.0000     0.0000     0.0000     0.0000 </r>
        <r>   -15.4045     0.0000     0.0000     0.0000     0.0000     0.0000     0.0000     0.0000     0.0000     0.0000 </r>
        <r>   -15.3101     0.0000     0.0000     0.0000     0.0000     0.0000     0.0000     0.0000     0.0000     0.0000 </r>
        <r>   -15.2157     0.0000     0.0000     0.0000     0.0000     0.0000     0.0000     0.0000     0.0000     0.0000 </r>
        <r>   -15.1212     0.0000     0.0000     0.0000     0.0000     0.0000     0.0000     0.0000     0.0000     0.0000 </r>
        <r>   -15.0268     0.0000     0.0000     0.0000     0.0000     0.0000     0.0000     0.0000     0.0000     0.0000 </r>
        <r>   -14.9323     0.0000     0.0000     0.0000     0.0000     0.0000     0.0000     0.0000     0.0000     0.0000 </r>
        <r>   -14.8379     0.0000     0.0000     0.0000     0.0000     0.0000     0.0000     0.0000     0.0000     0.0000 </r>
        <r>   -14.7434     0.0000     0.0000     0.0000     0.0000     0.0000     0.0000     0.0000     0.0000     0.0000 </r>
        <r>   -14.6490     0.0000     0.0000     0.0000     0.0000     0.0000     0.0000     0.0000     0.0000     0.0000 </r>
        <r>   -14.5546     0.0000     0.0000     0.0000     0.0000     0.0000     0.0000     0.0000     0.0000     0.0000 </r>
        <r>   -14.4601     0.0000     0.0000     0.0000     0.0000     0.0000     0.0000     0.0000     0.0000     0.0000 </r>
        <r>   -14.3657     0.0000     0.0000     0.0000     0.0000     0.0000     0.0000     0.0000     0.0000     0.0000 </r>
        <r>   -14.2712     0.0000     0.0000     0.0000     0.0000     0.0000     0.0000     0.0000     0.0000     0.0000 </r>
        <r>   -14.1768     0.0000     0.0000     0.0000     0.0000     0.0000     0.0000     0.0000     0.0000     0.0000 </r>
        <r>   -14.0823     0.0000     0.0000     0.0000     0.0000     0.0000     0.0000     0.0000     0.0000     0.0000 </r>
        <r>   -13.9879     0.0000     0.0000     0.0000     0.0000     0.0000     0.0000     0.0000     0.0000     0.0000 </r>
        <r>   -13.8935     0.0000     0.0000     0.0000     0.0000     0.0000     0.0000     0.0000     0.0000     0.0000 </r>
        <r>   -13.7990     0.0000     0.0000     0.0000     0.0000     0.0000     0.0000     0.0000     0.0000     0.0000 </r>
        <r>   -13.7046     0.0000     0.0000     0.0000     0.0000     0.0000     0.0000     0.0000     0.0000     0.0000 </r>
        <r>   -13.6101     0.0000     0.0000     0.0000     0.0000     0.0000     0.0000     0.0000     0.0000     0.0000 </r>
        <r>   -13.5157     0.0000     0.0000     0.0000     0.0000     0.0000     0.0000     0.0000     0.0000     0.0000 </r>
        <r>   -13.4212     0.0000     0.0000     0.0000     0.0000     0.0000     0.0000     0.0000     0.0000     0.0000 </r>
        <r>   -13.3268     0.0000     0.0000     0.0000     0.0000     0.0000     0.0000     0.0000     0.0000     0.0000 </r>
        <r>   -13.2324     0.0000     0.0000     0.0000     0.0000     0.0000     0.0000     0.0000     0.0000     0.0000 </r>
        <r>   -13.1379     0.0000     0.0000     0.0000     0.0000     0.0000     0.0000     0.0000     0.0000     0.0000 </r>
        <r>   -13.0435     0.0000     0.0000     0.0000     0.0000     0.0000     0.0000     0.0000     0.0000     0.0000 </r>
        <r>   -12.9490     0.0000     0.0000     0.0000     0.0000     0.0000     0.0000     0.0000     0.0000     0.0000 </r>
        <r>   -12.8546     0.0000     0.0000     0.0000     0.0000     0.0000     0.0000     0.0000     0.0000     0.0000 </r>
        <r>   -12.7602     0.0000     0.0000     0.0000     0.0000     0.0000     0.0000     0.0000     0.0000     0.0000 </r>
        <r>   -12.6657     0.0000     0.0000     0.0000     0.0000     0.0000     0.0000     0.0000     0.0000     0.0000 </r>
        <r>   -12.5713     0.0000     0.0000     0.0000     0.0000     0.0000     0.0000     0.0000     0.0000     0.0000 </r>
        <r>   -12.4768     0.0000     0.0000     0.0000     0.0000     0.0000     0.0000     0.0000     0.0000     0.0000 </r>
        <r>   -12.3824     0.0000     0.0000     0.0000     0.0000     0.0000     0.0000     0.0000     0.0000     0.0000 </r>
        <r>   -12.2879     0.0000     0.0000     0.0000     0.0000     0.0000     0.0000     0.0000     0.0000     0.0000 </r>
        <r>   -12.1935     0.0000     0.0000     0.0000     0.0000     0.0000     0.0000     0.0000     0.0000     0.0000 </r>
        <r>   -12.0991     0.0195     0.0000     0.0000     0.0000     0.0000     0.0000     0.0000     0.0000     0.0000 </r>
        <r>   -12.0046     3.3274     0.0000     0.0000     0.0000     0.0000     0.0000     0.0000     0.0000     0.0000 </r>
        <r>   -11.9102     4.0108     0.0000     0.0000     0.0000     0.0000     0.0000     0.0000     0.0000     0.0000 </r>
        <r>   -11.8157     0.0396     0.0000     0.0000     0.0000     0.0000     0.0000     0.0000     0.0000     0.0000 </r>
        <r>   -11.7213     0.0000     0.0000     0.0000     0.0000     0.0000     0.0000     0.0000     0.0000     0.0000 </r>
        <r>   -11.6268     0.0000     0.0000     0.0000     0.0000     0.0000     0.0000     0.0000     0.0000     0.0000 </r>
        <r>   -11.5324     0.0000     0.0000     0.0000     0.0000     0.0000     0.0000     0.0000     0.0000     0.0000 </r>
        <r>   -11.4380     0.0000     0.0000     0.0000     0.0000     0.0000     0.0000     0.0000     0.0000     0.0000 </r>
        <r>   -11.3435     0.0000     0.0000     0.0000     0.0000     0.0000     0.0000     0.0000     0.0000     0.0000 </r>
        <r>   -11.2491     0.0000     0.0000     0.0000     0.0000     0.0000     0.0000     0.0000     0.0000     0.0000 </r>
        <r>   -11.1546     0.0000     0.0000     0.0000     0.0000     0.0000     0.0000     0.0000     0.0000     0.0000 </r>
        <r>   -11.0602     0.0000     0.0000     0.0000     0.0000     0.0000     0.0000     0.0000     0.0000     0.0000 </r>
        <r>   -10.9657     0.0000     0.0000     0.0000     0.0000     0.0000     0.0000     0.0000     0.0000     0.0000 </r>
        <r>   -10.8713     0.0000     0.0000     0.0000     0.0000     0.0000     0.0000     0.0000     0.0000     0.0000 </r>
        <r>   -10.7769     0.0000     0.0000     0.0000     0.0000     0.0000     0.0000     0.0000     0.0000     0.0000 </r>
        <r>   -10.6824     0.0000     0.0000     0.0000     0.0000     0.0000     0.0000     0.0000     0.0000     0.0000 </r>
        <r>   -10.5880     0.0000     0.0000     0.0000     0.0000     0.0000     0.0000     0.0000     0.0000     0.0000 </r>
        <r>   -10.4935     0.0000     0.0000     0.0000     0.0000     0.0000     0.0000     0.0000     0.0000     0.0000 </r>
        <r>   -10.3991     0.0000     0.0000     0.0000     0.0000     0.0000     0.0000     0.0000     0.0000     0.0000 </r>
        <r>   -10.3047     0.0000     0.0000     0.0000     0.0000     0.0000     0.0000     0.0000     0.0000     0.0000 </r>
        <r>   -10.2102     0.0000     0.0000     0.0000     0.0000     0.0000     0.0000     0.0000     0.0000     0.0000 </r>
        <r>   -10.1158     0.0000     0.0000     0.0000     0.0000     0.0000     0.0000     0.0000     0.0000     0.0000 </r>
        <r>   -10.0213     0.0000     0.0000     0.0000     0.0000     0.0000     0.0000     0.0000     0.0000     0.0000 </r>
        <r>    -9.9269     0.0000     0.0000     0.0000     0.0000     0.0000     0.0000     0.0000     0.0000     0.0000 </r>
        <r>    -9.8324     0.0000     0.0000     0.0000     0.0000     0.0000     0.0000     0.0000     0.0000     0.0000 </r>
        <r>    -9.7380     0.0000     0.0000     0.0000     0.0000     0.0000     0.0000     0.0000     0.0000     0.0000 </r>
        <r>    -9.6436     0.0000     0.0000     0.0000     0.0000     0.0000     0.0000     0.0000     0.0000     0.0000 </r>
        <r>    -9.5491     0.0000     0.0000     0.0000     0.0000     0.0000     0.0000     0.0000     0.0000     0.0000 </r>
        <r>    -9.4547     0.0000     0.0000     0.0000     0.0000     0.0000     0.0000     0.0000     0.0000     0.0000 </r>
        <r>    -9.3602     0.0000     0.0000     0.0000     0.0000     0.0000     0.0000     0.0000     0.0000     0.0000 </r>
        <r>    -9.2658     0.0000     0.0000     0.0000     0.0000     0.0000     0.0000     0.0000     0.0000     0.0000 </r>
        <r>    -9.1713     0.0000     0.0000     0.0000     0.0000     0.0000     0.0000     0.0000     0.0000     0.0000 </r>
        <r>    -9.0769     0.0000     0.0000     0.0000     0.0000     0.0000     0.0000     0.0000     0.0000     0.0000 </r>
        <r>    -8.9825     0.0000     0.0000     0.0000     0.0000     0.0000     0.0000     0.0000     0.0000     0.0000 </r>
        <r>    -8.8880     0.0000     0.0000     0.0000     0.0000     0.0000     0.0000     0.0000     0.0000     0.0000 </r>
        <r>    -8.7936     0.0000     0.0000     0.0000     0.0000     0.0000     0.0000     0.0000     0.0000     0.0000 </r>
        <r>    -8.6991     0.0000     0.0000     0.0000     0.0000     0.0000     0.0000     0.0000     0.0000     0.0000 </r>
        <r>    -8.6047     0.0000     0.0000     0.0000     0.0000     0.0000     0.0000     0.0000     0.0000     0.0000 </r>
        <r>    -8.5102     0.0000     0.0000     0.0000     0.0000     0.0000     0.0000     0.0000     0.0000     0.0000 </r>
        <r>    -8.4158     0.0000     0.0000     0.0000     0.0000     0.0000     0.0000     0.0000     0.0000     0.0000 </r>
        <r>    -8.3214     0.0000     0.0000     0.0000     0.0000     0.0000     0.0000     0.0000     0.0000     0.0000 </r>
        <r>    -8.2269     0.0000     0.0000     0.0000     0.0000     0.0000     0.0000     0.0000     0.0000     0.0000 </r>
        <r>    -8.1325     0.0000     0.0000     0.0000     0.0000     0.0000     0.0000     0.0000     0.0000     0.0000 </r>
        <r>    -8.0380     0.0000     0.0000     0.0000     0.0000     0.0000     0.0000     0.0000     0.0000     0.0000 </r>
        <r>    -7.9436     0.0000     0.0000     0.0000     0.0000     0.0000     0.0000     0.0000     0.0000     0.0000 </r>
        <r>    -7.8491     0.0000     0.0000     0.0000     0.0000     0.0000     0.0000     0.0000     0.0000     0.0000 </r>
        <r>    -7.7547     0.0000     0.0000     0.0000     0.0000     0.0000     0.0000     0.0000     0.0000     0.0000 </r>
        <r>    -7.6603     0.0000     0.0000     0.0000     0.0000     0.0000     0.0000     0.0000     0.0000     0.0000 </r>
        <r>    -7.5658     0.0000     0.0000     0.0000     0.0000     0.0000     0.0000     0.0000     0.0000     0.0000 </r>
        <r>    -7.4714     0.0000     0.0000     0.0000     0.0000     0.0000     0.0000     0.0000     0.0000     0.0000 </r>
        <r>    -7.3769     0.0000     0.0000     0.0000     0.0000     0.0000     0.0000     0.0000     0.0000     0.0000 </r>
        <r>    -7.2825     0.0000     0.0000     0.0000     0.0000     0.0000     0.0000     0.0000     0.0000     0.0000 </r>
        <r>    -7.1881     0.0000     0.0000     0.0000     0.0000     0.0000     0.0000     0.0000     0.0000     0.0000 </r>
        <r>    -7.0936     0.0000     0.0000     0.0000     0.0000     0.0000     0.0000     0.0000     0.0000     0.0000 </r>
        <r>    -6.9992     0.0000     0.0000     0.0000     0.0000     0.0000     0.0000     0.0000     0.0000     0.0000 </r>
        <r>    -6.9047     0.0000     0.0000     0.0000     0.0000     0.0000     0.0000     0.0000     0.0000     0.0000 </r>
        <r>    -6.8103     0.0000     0.0000     0.0000     0.0000     0.0000     0.0000     0.0000     0.0000     0.0000 </r>
        <r>    -6.7158     0.0000     0.0000     0.0000     0.0000     0.0000     0.0000     0.0000     0.0000     0.0000 </r>
        <r>    -6.6214     0.0000     0.0000     0.0000     0.0000     0.0000     0.0000     0.0000     0.0000     0.0000 </r>
        <r>    -6.5270     0.0000     0.0000     0.0000     0.0000     0.0000     0.0000     0.0000     0.0000     0.0000 </r>
        <r>    -6.4325     0.0000     0.0000     0.0000     0.0000     0.0000     0.0000     0.0000     0.0000     0.0000 </r>
        <r>    -6.3381     0.0000     0.0000     0.0000     0.0000     0.0000     0.0000     0.0000     0.0000     0.0000 </r>
        <r>    -6.2436     0.0000     0.0000     0.0000     0.0000     0.0000     0.0000     0.0000     0.0000     0.0000 </r>
        <r>    -6.1492     0.0000     0.0000     0.0000     0.0000     0.0000     0.0000     0.0000     0.0000     0.0000 </r>
        <r>    -6.0547     0.0000     0.0000     0.0000     0.0000     0.0000     0.0000     0.0000     0.0000     0.0000 </r>
        <r>    -5.9603     0.0000     0.0000     0.0000     0.0000     0.0000     0.0000     0.0000     0.0000     0.0000 </r>
[...]
        <r>     2.0673     0.0000     0.0111     0.0108     0.0111     0.0000     0.0000     0.0000     0.0000     0.0000 </r>
        <r>     2.1617     0.0000     0.0000     0.0000     0.0000     0.0000     0.0000     0.0000     0.0000     0.0000 </r>
        <r>     2.2562     0.0000     0.0000     0.0000     0.0000     0.0000     0.0000     0.0000     0.0000     0.0000 </r>
        <r>     2.3506     0.0000     0.0000     0.0000     0.0000     0.0000     0.0000     0.0000     0.0000     0.0000 </r>
        <r>     2.4451     0.0000     0.0000     0.0000     0.0000     0.0000     0.0000     0.0000     0.0000     0.0000 </r>
        <r>     2.5395     0.0000     0.0000     0.0000     0.0000     0.0278     0.0283     0.0000     0.0282     0.0000 </r>
        <r>     2.6340     0.0000     0.0000     0.0001     0.0000     0.1050     0.1043     0.0000     0.1046     0.0000 </r>
        <r>     2.7284     0.0000     0.0000     0.0000     0.0000     0.0045     0.0044     0.0000     0.0044     0.0000 </r>
        <r>     2.8228     0.0000     0.0000     0.0000     0.0000     0.0000     0.0000     0.0000     0.0000     0.0000 </r>
        <r>     2.9173     0.0000     0.0000     0.0000     0.0000     0.0000     0.0000     0.0002     0.0000     0.0002 </r>
        <r>     3.0117     0.0000     0.0001     0.0000     0.0000     0.0000     0.0000     0.0278     0.0000     0.0275 </r>
        <r>     3.1062     0.0000     0.0002     0.0001     0.0001     0.0000     0.0000     0.0273     0.0000     0.0274 </r>
        <r>     3.2006     0.0001     0.0006     0.0003     0.0000     0.0001     0.0001     0.0002     0.0001     0.0003 </r>
        <r>     3.2951     0.0000     0.0000     0.0000     0.0000     0.0000     0.0000     0.0000     0.0000     0.0000 </r>
        <r>     3.3895     0.0000     0.0000     0.0000     0.0000     0.0000     0.0000     0.0000     0.0000     0.0000 </r>
        <r>     3.4839     0.0000     0.0000     0.0000     0.0000     0.0000     0.0000     0.0000     0.0000     0.0000 </r>
        <r>     3.5784     0.0005     0.0049     0.0044     0.0044     0.0000     0.0000     0.0000     0.0000     0.0000 </r>
        <r>     3.6728     0.1238     0.3301     0.3298     0.3346     0.0000     0.0004     0.0004     0.0001     0.0007 </r>
        <r>     3.7673     0.1986     0.2179     0.2361     0.2280     0.0000     0.0003     0.0002     0.0001     0.0006 </r>
        <r>     3.8617     0.0029     0.0010     0.0012     0.0010     0.0000     0.0000     0.0000     0.0000     0.0000 </r>
        <r>     3.9562     0.0000     0.0000     0.0000     0.0000     0.0000     0.0000     0.0000     0.0000     0.0000 </r>
        <r>     4.0506     0.0000     0.0000     0.0000     0.0000     0.0000     0.0000     0.0000     0.0000     0.0000 </r>
        <r>     4.1450     0.0000     0.0000     0.0000     0.0000     0.0000     0.0000     0.0000     0.0000     0.0000 </r>
        <r>     4.2395     0.0000     0.0007     0.0002     0.0004     0.0197     0.0233     0.0000     0.0204     0.0000 </r>
        <r>     4.3339     0.0001     0.0021     0.0009     0.0014     0.0711     0.0681     0.0001     0.0707     0.0001 </r>
        <r>     4.4284     0.0000     0.0041     0.0024     0.0014     0.0029     0.0022     0.0000     0.0028     0.0019 </r>
        <r>     4.5228     0.0000     0.0013     0.0007     0.0004     0.0000     0.0000     0.0000     0.0000     0.0006 </r>
        <r>     4.6172     0.0000     0.0000     0.0000     0.0000     0.0000     0.0000     0.0000     0.0000     0.0000 </r>
        <r>     4.7117     0.0000     0.0000     0.0000     0.0000     0.0000     0.0000     0.0000     0.0000     0.0000 </r>
        <r>     4.8061     0.0000     0.0011     0.0007     0.0001     0.0000     0.0000     0.0004     0.0000     0.0003 </r>
        <r>     4.9006     0.0005     0.0784     0.0456     0.0082     0.0000     0.0000     0.0414     0.0000     0.0186 </r>
        <r>     4.9950     0.0397     0.1053     0.0301     0.0141     0.0000     0.0000     0.2138     0.0000     0.1056 </r>
        <r>     5.0895     0.1331     0.0118     0.0030     0.0110     0.0000     0.0000     0.0564     0.0000     0.2335 </r>
        <r>     5.1839     0.0060     0.0001     0.0001     0.0003     0.0000     0.0000     0.0009     0.0000     0.0086 </r>
        <r>     5.2783     0.0000     0.0000     0.0000     0.0000     0.0000     0.0000     0.0000     0.0000     0.0000 </r>
        <r>     5.3728     0.0000     0.0000     0.0000     0.0000     0.0000     0.0000     0.0000     0.0000     0.0000 </r>
        <r>     5.4672     0.0000     0.0000     0.0000     0.0000     0.0000     0.0000     0.0000     0.0000     0.0000 </r>
        <r>     5.5617     0.0000     0.0000     0.0000     0.0000     0.0000     0.0000     0.0000     0.0000     0.0000 </r>
        <r>     5.6561     0.0000     0.0000     0.0000     0.0000     0.0000     0.0000     0.0000     0.0000     0.0000 </r>
        <r>     5.7506     0.0000     0.0000     0.0000     0.0000     0.0000     0.0000     0.0000     0.0000     0.0000 </r>
        <r>     5.8450     0.0000     0.0000     0.0000     0.0000     0.0000     0.0000     0.0000     0.0000     0.0000 </r>
        <r>     5.9394     0.0000     0.0000     0.0000     0.0000     0.0000     0.0000     0.0000     0.0000     0.0000 </r>
        <r>     6.0339     0.0000     0.0000     0.0000     0.0000     0.0000     0.0000     0.0000     0.0000     0.0000 </r>
        <r>     6.1283     0.0000     0.0000     0.0000     0.0000     0.0000     0.0000     0.0000     0.0000     0.0000 </r>
        <r>     6.2228     0.0000     0.0000     0.0000     0.0000     0.0000     0.0000     0.0000     0.0000     0.0000 </r>
        <r>     6.3172     0.0000     0.0000     0.0000     0.0000     0.0000     0.0000     0.0000     0.0000     0.0000 </r>
       </set>
      </set>
     </set>
    </array>
   </partial>
  </dos>
  <projected>
   <eigenvalues>
    <array>
     <dimension dim="1">band</dimension>
     <dimension dim="2">kpoint</dimension>
     <dimension dim="3">spin</dimension>
     <field>eigene</field>
     <field>occ</field>
     <set>
      <set comment="spin 1">
       <set comment="kpoint 1">
        <r>  -20.7277    1.0000 </r>
        <r>  -20.7277    1.0000 </r>
        <r>  -20.7277    1.0000 </r>
        <r>  -20.7276    1.0000 </r>
        <r>  -20.7276    1.0000 </r>
        <r>  -12.0004    1.0000 </r>
        <r>   -3.5507    0.6667 </r>
        <r>   -3.5507    0.6667 </r>
        <r>   -3.5507    0.6667 </r>
        <r>   -0.6728    0.0000 </r>
        <r>    0.7069    0.0000 </r>
        <r>    0.7070    0.0000 </r>
        <r>    1.1642    0.0000 </r>
        <r>    1.1649    0.0000 </r>
        <r>    1.1674    0.0000 </r>
        <r>    1.2871    0.0000 </r>
        <r>    1.5628    0.0000 </r>
        <r>    1.5629    0.0000 </r>
        <r>    1.5631    0.0000 </r>
        <r>    2.3924    0.0000 </r>
        <r>    2.3939    0.0000 </r>
        <r>    2.3984    0.0000 </r>
        <r>    2.4339    0.0000 </r>
        <r>    2.4363    0.0000 </r>
        <r>    2.9679    0.0000 </r>
        <r>    2.9749    0.0000 </r>
        <r>    3.0050    0.0000 </r>
        <r>    3.1651    0.0000 </r>
        <r>    3.4889    0.0000 </r>
        <r>    3.5972    0.0000 </r>
        <r>    3.6129    0.0000 </r>
        <r>    3.6169    0.0000 </r>
        <r>    4.1131    0.0000 </r>
        <r>    4.1237    0.0000 </r>
        <r>    4.2469    0.0000 </r>
        <r>    4.3653    0.0000 </r>
       </set>
      </set>
      <set comment="spin 2">
       <set comment="kpoint 1">
        <r>  -20.5293    1.0000 </r>
        <r>  -20.5293    1.0000 </r>
        <r>  -20.5292    1.0000 </r>
        <r>  -20.5292    1.0000 </r>
        <r>  -20.5292    1.0000 </r>
        <r>  -10.9833    1.0000 </r>
        <r>   -2.3185    0.0000 </r>
        <r>   -2.3184    0.0000 </r>
        <r>   -2.3183    0.0000 </r>
        <r>    0.1249    0.0000 </r>
        <r>    1.5135    0.0000 </r>
        <r>    1.5136    0.0000 </r>
        <r>    1.8007    0.0000 </r>
        <r>    1.9087    0.0000 </r>
        <r>    1.9091    0.0000 </r>
        <r>    1.9092    0.0000 </r>
        <r>    2.5684    0.0000 </r>
        <r>    2.5685    0.0000 </r>
        <r>    2.5690    0.0000 </r>
        <r>    3.0113    0.0000 </r>
        <r>    3.0116    0.0000 </r>
        <r>    3.1365    0.0000 </r>
        <r>    3.1369    0.0000 </r>
        <r>    3.1369    0.0000 </r>
        <r>    3.6584    0.0000 </r>
        <r>    3.6645    0.0000 </r>
        <r>    3.6699    0.0000 </r>
        <r>    3.6836    0.0000 </r>
        <r>    4.2631    0.0000 </r>
        <r>    4.2673    0.0000 </r>
        <r>    4.2681    0.0000 </r>
        <r>    4.4028    0.0000 </r>
        <r>    4.8900    0.0000 </r>
        <r>    4.9571    0.0000 </r>
        <r>    5.0127    0.0000 </r>
        <r>    5.0294    0.0000 </r>
       </set>
      </set>
     </set>
    </array>
   </eigenvalues>
   <array>
    <dimension dim="1">ion</dimension>
    <dimension dim="2">band</dimension>
    <dimension dim="3">kpoint</dimension>
    <dimension dim="4">spin</dimension>
    <field>    s</field>
    <field>   py</field>
    <field>   pz</field>
    <field>   px</field>
    <field>  dxy</field>
    <field>  dyz</field>
    <field>  dz2</field>
    <field>  dxz</field>
    <field>x2-y2</field>
    <set>
     <set comment="spin1">
      <set comment="kpoint 1">
       <set comment="band 1">
        <r>  0.0000  0.0000  0.0000  0.0000  0.3587  0.4212  0.0000  0.1987  0.0000 </r>
       </set>
       <set comment="band 2">
        <r>  0.0000  0.0000  0.0000  0.0000  0.4603  0.0199  0.0000  0.4983  0.0000 </r>
       </set>
       <set comment="band 3">
        <r>  0.0000  0.0000  0.0000  0.0000  0.1596  0.5375  0.0000  0.2815  0.0000 </r>
       </set>
       <set comment="band 4">
        <r>  0.0000  0.0000  0.0000  0.0000  0.0000  0.0000  0.0247  0.0000  0.9539 </r>
       </set>
       <set comment="band 5">
        <r>  0.0000  0.0000  0.0000  0.0000  0.0000  0.0000  0.9539  0.0000  0.0247 </r>
       </set>
       <set comment="band 6">
        <r>  0.6986  0.0000  0.0000  0.0000  0.0000  0.0000  0.0000  0.0000  0.0000 </r>
       </set>
       <set comment="band 7">
        <r>  0.0000  0.2622  0.0450  0.0280  0.0000  0.0000  0.0000  0.0000  0.0000 </r>
       </set>
       <set comment="band 8">
        <r>  0.0000  0.0292  0.2830  0.0230  0.0000  0.0000  0.0000  0.0000  0.0000 </r>
       </set>
       <set comment="band 9">
        <r>  0.0000  0.0438  0.0072  0.2841  0.0000  0.0000  0.0000  0.0000  0.0000 </r>
       </set>
       <set comment="band 10">
        <r>  0.0256  0.0000  0.0000  0.0000  0.0000  0.0000  0.0000  0.0000  0.0000 </r>
       </set>
       <set comment="band 11">
        <r>  0.0000  0.0000  0.0000  0.0000  0.0000  0.0000  0.0042  0.0000  0.0015 </r>
       </set>
       <set comment="band 12">
        <r>  0.0000  0.0000  0.0000  0.0000  0.0000  0.0000  0.0015  0.0000  0.0042 </r>
       </set>
       <set comment="band 13">
        <r>  0.0000  0.0098  0.0200  0.0089  0.0000  0.0000  0.0000  0.0000  0.0000 </r>
       </set>
       <set comment="band 14">
        <r>  0.0000  0.0245  0.0135  0.0001  0.0000  0.0000  0.0000  0.0000  0.0000 </r>
       </set>
       <set comment="band 15">
        <r>  0.0004  0.0043  0.0048  0.0292  0.0000  0.0000  0.0000  0.0000  0.0000 </r>
       </set>
       <set comment="band 16">
        <r>  0.0274  0.0000  0.0002  0.0003  0.0000  0.0000  0.0000  0.0000  0.0000 </r>
       </set>
       <set comment="band 17">
        <r>  0.0000  0.0000  0.0000  0.0000  0.0116  0.0025  0.0000  0.0016  0.0000 </r>
       </set>
       <set comment="band 18">
        <r>  0.0000  0.0000  0.0000  0.0001  0.0033  0.0121  0.0000  0.0003  0.0000 </r>
       </set>
       <set comment="band 19">
        <r>  0.0000  0.0000  0.0000  0.0000  0.0008  0.0010  0.0000  0.0138  0.0000 </r>
       </set>
       <set comment="band 20">
        <r>  0.0000  0.0000  0.0000  0.0001  0.0000  0.0000  0.0001  0.0000  0.0001 </r>
       </set>
       <set comment="band 21">
        <r>  0.0000  0.0001  0.0001  0.0001  0.0000  0.0000  0.0003  0.0000  0.0000 </r>
       </set>
       <set comment="band 22">
        <r>  0.0000  0.0004  0.0001  0.0003  0.0000  0.0000  0.0000  0.0000  0.0000 </r>
       </set>
       <set comment="band 23">
        <r>  0.0000  0.0000  0.0000  0.0000  0.0000  0.0000  0.0057  0.0000  0.0001 </r>
       </set>
       <set comment="band 24">
        <r>  0.0000  0.0000  0.0000  0.0000  0.0000  0.0000  0.0002  0.0000  0.0060 </r>
       </set>
       <set comment="band 25">
        <r>  0.0000  0.0091  0.0027  0.0424  0.0000  0.0000  0.0000  0.0000  0.0000 </r>
       </set>
       <set comment="band 26">
        <r>  0.0007  0.0033  0.0482  0.0008  0.0000  0.0000  0.0000  0.0000  0.0000 </r>
       </set>
       <set comment="band 27">
        <r>  0.0044  0.0360  0.0008  0.0089  0.0000  0.0001  0.0000  0.0000  0.0000 </r>
       </set>
       <set comment="band 28">
        <r>  0.0284  0.0046  0.0017  0.0012  0.0000  0.0000  0.0000  0.0000  0.0000 </r>
       </set>
       <set comment="band 29">
        <r>  0.0000  0.0006  0.0002  0.0002  0.0000  0.0006  0.0003  0.0005  0.0001 </r>
       </set>
       <set comment="band 30">
        <r>  0.0000  0.0004  0.0001  0.0000  0.0009  0.0070  0.0000  0.0004  0.0000 </r>
       </set>
       <set comment="band 31">
        <r>  0.0000  0.0000  0.0000  0.0000  0.0002  0.0006  0.0000  0.0083  0.0000 </r>
       </set>
       <set comment="band 32">
        <r>  0.0000  0.0000  0.0000  0.0000  0.0082  0.0011  0.0000  0.0000  0.0000 </r>
       </set>
       <set comment="band 33">
        <r>  0.0000  0.0005  0.0000  0.0005  0.0000  0.0000  0.0300  0.0000  0.0048 </r>
       </set>
       <set comment="band 34">
        <r>  0.0001  0.0000  0.0002  0.0000  0.0000  0.0000  0.0047  0.0000  0.0320 </r>
       </set>
       <set comment="band 35">
        <r>  0.0000  0.0020  0.0047  0.0014  0.0001  0.0001  0.0005  0.0021  0.0001 </r>
       </set>
       <set comment="band 36">
        <r>  0.0089  0.0001  0.0017  0.0004  0.0000  0.0000  0.0002  0.0000  0.0002 </r>
       </set>
      </set>
     </set>
     <set comment="spin2">
      <set comment="kpoint 1">
       <set comment="band 1">
        <r>  0.0000  0.0000  0.0000  0.0000  0.0000  0.0000  0.9678  0.0000  0.0123 </r>
       </set>
       <set comment="band 2">
        <r>  0.0000  0.0000  0.0000  0.0000  0.0000  0.0000  0.0123  0.0000  0.9678 </r>
       </set>
       <set comment="band 3">
        <r>  0.0000  0.0000  0.0000  0.0000  0.5311  0.0035  0.0000  0.4454  0.0000 </r>
       </set>
       <set comment="band 4">
        <r>  0.0000  0.0000  0.0000  0.0000  0.0904  0.7263  0.0000  0.1633  0.0000 </r>
       </set>
       <set comment="band 5">
        <r>  0.0000  0.0000  0.0000  0.0000  0.3586  0.2502  0.0000  0.3713  0.0000 </r>
       </set>
       <set comment="band 6">
        <r>  0.7067  0.0000  0.0000  0.0000  0.0000  0.0000  0.0000  0.0000  0.0000 </r>
       </set>
       <set comment="band 7">
        <r>  0.0000  0.0028  0.3058  0.0229  0.0000  0.0000  0.0000  0.0000  0.0000 </r>
       </set>
       <set comment="band 8">
        <r>  0.0000  0.1605  0.0208  0.1496  0.0000  0.0000  0.0000  0.0000  0.0000 </r>
       </set>
       <set comment="band 9">
        <r>  0.0000  0.1672  0.0049  0.1583  0.0000  0.0000  0.0000  0.0000  0.0000 </r>
       </set>
       <set comment="band 10">
        <r>  0.0181  0.0000  0.0000  0.0000  0.0000  0.0000  0.0000  0.0000  0.0000 </r>
       </set>
       <set comment="band 11">
        <r>  0.0000  0.0000  0.0000  0.0000  0.0000  0.0000  0.0016  0.0000  0.0021 </r>
       </set>
       <set comment="band 12">
        <r>  0.0000  0.0000  0.0000  0.0000  0.0000  0.0000  0.0021  0.0000  0.0015 </r>
       </set>
       <set comment="band 13">
        <r>  0.0268  0.0000  0.0000  0.0000  0.0000  0.0000  0.0000  0.0000  0.0000 </r>
       </set>
       <set comment="band 14">
        <r>  0.0000  0.0003  0.0215  0.0075  0.0000  0.0000  0.0000  0.0000  0.0000 </r>
       </set>
       <set comment="band 15">
        <r>  0.0000  0.0166  0.0021  0.0111  0.0000  0.0000  0.0000  0.0000  0.0000 </r>
       </set>
       <set comment="band 16">
        <r>  0.0000  0.0124  0.0056  0.0109  0.0000  0.0000  0.0000  0.0000  0.0000 </r>
       </set>
       <set comment="band 17">
        <r>  0.0000  0.0000  0.0000  0.0000  0.0007  0.0091  0.0000  0.0031  0.0000 </r>
       </set>
       <set comment="band 18">
        <r>  0.0000  0.0000  0.0000  0.0000  0.0011  0.0038  0.0000  0.0080  0.0000 </r>
       </set>
       <set comment="band 19">
        <r>  0.0000  0.0000  0.0000  0.0000  0.0111  0.0000  0.0000  0.0018  0.0000 </r>
       </set>
       <set comment="band 20">
        <r>  0.0000  0.0000  0.0000  0.0000  0.0000  0.0000  0.0052  0.0000  0.0000 </r>
       </set>
       <set comment="band 21">
        <r>  0.0000  0.0000  0.0000  0.0000  0.0000  0.0000  0.0000  0.0000  0.0052 </r>
       </set>
       <set comment="band 22">
        <r>  0.0000  0.0000  0.0000  0.0000  0.0000  0.0000  0.0000  0.0000  0.0000 </r>
       </set>
       <set comment="band 23">
        <r>  0.0000  0.0000  0.0000  0.0000  0.0000  0.0000  0.0000  0.0000  0.0000 </r>
       </set>
       <set comment="band 24">
        <r>  0.0000  0.0001  0.0000  0.0000  0.0000  0.0000  0.0000  0.0000  0.0000 </r>
       </set>
       <set comment="band 25">
        <r>  0.0000  0.0298  0.0198  0.0040  0.0000  0.0000  0.0000  0.0000  0.0000 </r>
       </set>
       <set comment="band 26">
        <r>  0.0000  0.0006  0.0052  0.0484  0.0000  0.0000  0.0001  0.0000  0.0000 </r>
       </set>
       <set comment="band 27">
        <r>  0.0001  0.0217  0.0288  0.0012  0.0000  0.0000  0.0000  0.0000  0.0001 </r>
       </set>
       <set comment="band 28">
        <r>  0.0306  0.0002  0.0001  0.0000  0.0000  0.0000  0.0000  0.0000  0.0000 </r>
       </set>
       <set comment="band 29">
        <r>  0.0000  0.0002  0.0000  0.0002  0.0002  0.0082  0.0000  0.0004  0.0000 </r>
       </set>
       <set comment="band 30">
        <r>  0.0000  0.0000  0.0001  0.0000  0.0000  0.0004  0.0000  0.0085  0.0000 </r>
       </set>
       <set comment="band 31">
        <r>  0.0000  0.0000  0.0000  0.0000  0.0086  0.0003  0.0000  0.0000  0.0000 </r>
       </set>
       <set comment="band 32">
        <r>  0.0000  0.0005  0.0003  0.0002  0.0000  0.0000  0.0000  0.0000  0.0002 </r>
       </set>
       <set comment="band 33">
        <r>  0.0001  0.0115  0.0071  0.0012  0.0000  0.0000  0.0044  0.0000  0.0027 </r>
       </set>
       <set comment="band 34">
        <r>  0.0001  0.0069  0.0001  0.0006  0.0000  0.0000  0.0221  0.0000  0.0017 </r>
       </set>
       <set comment="band 35">
        <r>  0.0063  0.0000  0.0002  0.0011  0.0000  0.0000  0.0018  0.0000  0.0180 </r>
       </set>
       <set comment="band 36">
        <r>  0.0105  0.0001  0.0002  0.0003  0.0000  0.0000  0.0012  0.0000  0.0122 </r>
       </set>
      </set>
     </set>
    </set>
   </array>
  </projected>
 </calculation>
 <structure name="finalpos" >
  <crystal>
   <varray name="basis" >
    <v>      10.00000000       0.00000000       0.00000000 </v>
    <v>       0.00000000      10.00000000       0.00000000 </v>
    <v>       0.00000000       0.00000000      10.00000000 </v>
   </varray>
   <i name="volume">   1000.00000000 </i>
   <varray name="rec_basis" >
    <v>       0.10000000       0.00000000       0.00000000 </v>
    <v>       0.00000000       0.10000000       0.00000000 </v>
    <v>       0.00000000       0.00000000       0.10000000 </v>
   </varray>
  </crystal>
  <varray name="positions" >
   <v>       0.50000000       0.50000000       0.50000000 </v>
  </varray>
 </structure>
</modeling>
