       N       E                     dE             d eps       ncg     rms          ort
DAV:   1     0.417636995823E+02    0.41764E+02   -0.17150E+03    36   0.129E+02
DAV:   2     0.253674149518E+02   -0.16396E+02   -0.16394E+02    36   0.173E+01
DAV:   3     0.182478459321E+02   -0.71196E+01   -0.71068E+01    36   0.913E+00
DAV:   4     0.908652955419E+01   -0.91613E+01   -0.88408E+01    36   0.854E+00
DAV:   5     0.361747819255E+01   -0.54691E+01   -0.54640E+01    36   0.105E+01
SDA:   6     0.457445575336E+01    0.95698E+00   -0.60227E+01    36   0.151E+02 0.000E+00
DMP:   7     0.900821884025E+00   -0.36736E+01   -0.12169E+01    36   0.179E+01 0.329E+01
DMP:   8     0.326684001982E+00   -0.57414E+00   -0.51497E+00    36   0.134E+01-0.133E+00
DMP:   9    -0.296359953703E+00   -0.62304E+00   -0.92603E+00    36   0.190E+01 0.110E+01
DMP:  10    -0.584324666791E+00   -0.28796E+00   -0.60566E-01    36   0.123E+00 0.754E-01
DMP:  11    -0.611654781335E+00   -0.27330E-01   -0.32837E-01    36   0.909E-01-0.231E-01
DMP:  12    -0.637096585207E+00   -0.25442E-01   -0.24101E-01    36   0.445E-01 0.412E-01
DMP:  13    -0.653891490480E+00   -0.16795E-01   -0.81195E-02    36   0.116E-01 0.228E-01
DMP:  14    -0.659448507159E+00   -0.55570E-02   -0.37430E-02    36   0.662E-02 0.718E-02
DMP:  15    -0.662457572107E+00   -0.30091E-02   -0.23257E-02    36   0.362E-02 0.574E-02
DMP:  16    -0.664765501324E+00   -0.23079E-02   -0.21528E-02    36   0.269E-02 0.705E-02
DMP:  17    -0.667934139956E+00   -0.31686E-02   -0.30969E-02    36   0.364E-02 0.107E-01
DMP:  18    -0.671398819329E+00   -0.34647E-02   -0.24819E-02    36   0.278E-02 0.896E-02
DMP:  19    -0.673702355255E+00   -0.23035E-02   -0.13511E-02    36   0.145E-02 0.506E-02
DMP:  20    -0.674859618391E+00   -0.11573E-02   -0.61000E-03    36   0.630E-03 0.234E-02
DMP:  21    -0.675363265987E+00   -0.50365E-03   -0.24952E-03    36   0.250E-03 0.979E-03
DMP:  22    -0.675565087105E+00   -0.20182E-03   -0.95213E-04    36   0.922E-04 0.382E-03
DMP:  23    -0.675640926916E+00   -0.75840E-04   -0.34147E-04    36   0.319E-04 0.140E-03
DMP:  24    -0.675667789844E+00   -0.26863E-04   -0.11600E-04    36   0.105E-04 0.485E-04
   1 F= -.67566779E+00 E0= -.65638676E+00  d E =-.675668E+00  mag=     2.0000
