<?xml version="1.0" encoding="ISO-8859-1"?>
<modeling>
 <generator>
  <i name="program" type="string">vasp </i>
  <i name="version" type="string">5.4.4.18Apr17-6-g9f103f2a35  </i>
  <i name="subversion" type="string">(build Nov 08 2019 15:19:53) gamma-only         parallel </i>
  <i name="platform" type="string">LinuxIFC </i>
  <i name="date" type="string">2020 11 30 </i>
  <i name="time" type="string">09:30:43 </i>
 </generator>
 <incar>
  <i type="string" name="PREC">accurate</i>
  <i type="string" name="ALGO"> D</i>
  <i type="int" name="ISPIN">     2</i>
  <i type="int" name="NELM">   300</i>
  <i type="int" name="IBRION">     2</i>
  <i name="EDIFF">      0.00005000</i>
  <i type="int" name="NSW">    99</i>
  <i type="int" name="ISIF">     2</i>
  <i name="ENCUT">    520.00000000</i>
  <v name="MAGMOM">      0.60000000</v>
  <i type="string" name="LREAL"> Auto</i>
  <i type="int" name="ISMEAR">     0</i>
  <i name="SIGMA">      0.05000000</i>
  <i type="logical" name="LWAVE"> F  </i>
  <i type="int" name="LORBIT">    11</i>
  <i type="logical" name="LASPH"> T  </i>
  <v type="int" name="KPOINT_BSE">    -1     0     0     0</v>
  <i type="int" name="NELM">   300</i>
  <i type="logical" name="LASPH"> T  </i>
 </incar>
 <structure name="primitive_cell" >
  <crystal>
   <varray name="basis" >
    <v>      10.00000000       0.00000000       0.00000000 </v>
    <v>       0.00000000      10.00000000       0.00000000 </v>
    <v>       0.00000000       0.00000000      10.00000000 </v>
   </varray>
   <i name="volume">   1000.00000000 </i>
   <varray name="rec_basis" >
    <v>       0.10000000       0.00000000       0.00000000 </v>
    <v>       0.00000000       0.10000000       0.00000000 </v>
    <v>       0.00000000       0.00000000       0.10000000 </v>
   </varray>
  </crystal>
  <varray name="positions" >
   <v>      -0.50000000      -0.50000000      -0.50000000 </v>
  </varray>
 </structure>
 <varray name="primitive_index" >
  <v type="int" >        1 </v>
 </varray>
 <kpoints>
  <generation param="Gamma">
   <v type="int" name="divisions">       1        1        1 </v>
   <v name="usershift">      0.00000000       0.00000000       0.00000000 </v>
   <v name="genvec1">      1.00000000       0.00000000       0.00000000 </v>
   <v name="genvec2">      0.00000000       1.00000000       0.00000000 </v>
   <v name="genvec3">      0.00000000       0.00000000       1.00000000 </v>
   <v name="shift">      0.00000000       0.00000000       0.00000000 </v>
  </generation>
  <varray name="kpointlist" >
   <v>       0.00000000       0.00000000       0.00000000 </v>
  </varray>
  <varray name="weights" >
   <v>       1.00000000 </v>
  </varray>
 </kpoints>
 <parameters>
  <separator name="general" >
   <i type="string" name="SYSTEM">unknown system</i>
   <i type="logical" name="LCOMPAT"> F  </i>
  </separator>
  <separator name="electronic" >
   <i type="string" name="PREC">accura</i>
   <i name="ENMAX">    520.00000000</i>
   <i name="ENAUG">    368.79200000</i>
   <i name="EDIFF">      0.00005000</i>
   <i type="int" name="IALGO">    53</i>
   <i type="int" name="IWAVPR">    11</i>
   <i type="int" name="NBANDS">    36</i>
   <i name="NELECT">      6.00000000</i>
   <i type="int" name="TURBO">     0</i>
   <i type="int" name="IRESTART">     0</i>
   <i type="int" name="NREBOOT">     0</i>
   <i type="int" name="NMIN">     0</i>
   <i name="EREF">      0.00000000</i>
   <separator name="electronic smearing" >
    <i type="int" name="ISMEAR">     0</i>
    <i name="SIGMA">      0.05000000</i>
    <i name="KSPACING">      0.50000000</i>
    <i type="logical" name="KGAMMA"> T  </i>
   </separator>
   <separator name="electronic projectors" >
    <i type="logical" name="LREAL"> T  </i>
    <v name="ROPT">     -0.00025000</v>
    <i type="int" name="LMAXPAW">  -100</i>
    <i type="int" name="LMAXMIX">     2</i>
    <i type="logical" name="NLSPLINE"> F  </i>
   </separator>
   <separator name="electronic startup" >
    <i type="int" name="ISTART">     0</i>
    <i type="int" name="ICHARG">     2</i>
    <i type="int" name="INIWAV">     1</i>
   </separator>
   <separator name="electronic spin" >
    <i type="int" name="ISPIN">     2</i>
    <i type="logical" name="LNONCOLLINEAR"> F  </i>
    <v name="MAGMOM">      0.60000000</v>
    <i name="NUPDOWN">     -1.00000000</i>
    <i type="logical" name="LSORBIT"> F  </i>
    <v name="SAXIS">      0.00000000      0.00000000      1.00000000</v>
    <i type="logical" name="LSPIRAL"> F  </i>
    <v name="QSPIRAL">      0.00000000      0.00000000      0.00000000</v>
    <i type="logical" name="LZEROZ"> F  </i>
   </separator>
   <separator name="electronic exchange-correlation" >
    <i type="logical" name="LASPH"> T  </i>
    <i type="logical" name="LMETAGGA"> F  </i>
   </separator>
   <separator name="electronic convergence" >
    <i type="int" name="NELM">   300</i>
    <i type="int" name="NELMDL">    -5</i>
    <i type="int" name="NELMIN">     2</i>
    <i name="ENINI">    520.00000000</i>
    <separator name="electronic convergence detail" >
     <i type="logical" name="LDIAG"> T  </i>
     <i type="logical" name="LSUBROT"> F  </i>
     <i name="WEIMIN">      0.00100000</i>
     <i name="EBREAK">      0.00000035</i>
     <i name="DEPER">      0.30000000</i>
     <i type="int" name="NRMM">     4</i>
     <i name="TIME">      0.40000000</i>
    </separator>
   </separator>
   <separator name="electronic mixer" >
    <i name="AMIX">      0.40000000</i>
    <i name="BMIX">      1.00000000</i>
    <i name="AMIN">      0.10000000</i>
    <i name="AMIX_MAG">      1.60000000</i>
    <i name="BMIX_MAG">      1.00000000</i>
    <separator name="electronic mixer details" >
     <i type="int" name="IMIX">     4</i>
     <i type="logical" name="MIXFIRST"> F  </i>
     <i type="int" name="MAXMIX">   -45</i>
     <i name="WC">    100.00000000</i>
     <i type="int" name="INIMIX">     1</i>
     <i type="int" name="MIXPRE">     1</i>
     <i type="int" name="MREMOVE">     5</i>
    </separator>
   </separator>
   <separator name="electronic dipolcorrection" >
    <i type="logical" name="LDIPOL"> F  </i>
    <i type="logical" name="LMONO"> F  </i>
    <i type="int" name="IDIPOL">     0</i>
    <i name="EPSILON">      1.00000000</i>
    <v name="DIPOL">   -100.00000000   -100.00000000   -100.00000000</v>
    <i name="EFIELD">      0.00000000</i>
   </separator>
  </separator>
  <separator name="grids" >
   <i type="int" name="NGX">    80</i>
   <i type="int" name="NGY">    80</i>
   <i type="int" name="NGZ">    80</i>
   <i type="int" name="NGXF">   160</i>
   <i type="int" name="NGYF">   160</i>
   <i type="int" name="NGZF">   160</i>
   <i type="logical" name="ADDGRID"> F  </i>
  </separator>
  <separator name="ionic" >
   <i type="int" name="NSW">    99</i>
   <i type="int" name="IBRION">     2</i>
   <i type="int" name="MDALGO">     0</i>
   <i type="int" name="ISIF">     2</i>
   <i name="PSTRESS">      0.00000000</i>
   <i name="EDIFFG">      0.00050000</i>
   <i type="int" name="NFREE">     1</i>
   <i name="POTIM">      0.50000000</i>
   <i name="SMASS">     -3.00000000</i>
   <i name="SCALEE">      1.00000000</i>
  </separator>
  <separator name="ionic md" >
   <i name="TEBEG">      0.00010000</i>
   <i name="TEEND">      0.00010000</i>
   <i type="int" name="NBLOCK">     1</i>
   <i type="int" name="KBLOCK">    99</i>
   <i type="int" name="NPACO">   256</i>
   <i name="APACO">     16.00000000</i>
  </separator>
  <separator name="symmetry" >
   <i type="int" name="ISYM">     2</i>
   <i name="SYMPREC">      0.00001000</i>
  </separator>
  <separator name="dos" >
   <i type="int" name="LORBIT">    11</i>
   <v name="RWIGS">     -1.00000000</v>
   <i type="int" name="NEDOS">   301</i>
   <i name="EMIN">     10.00000000</i>
   <i name="EMAX">    -10.00000000</i>
   <i name="EFERMI">      0.00000000</i>
  </separator>
  <separator name="writing" >
   <i type="int" name="NWRITE">     2</i>
   <i type="logical" name="LWAVE"> F  </i>
   <i type="logical" name="LDOWNSAMPLE"> F  </i>
   <i type="logical" name="LCHARG"> T  </i>
   <i type="logical" name="LPARD"> F  </i>
   <i type="logical" name="LVTOT"> F  </i>
   <i type="logical" name="LVHAR"> F  </i>
   <i type="logical" name="LELF"> F  </i>
   <i type="logical" name="LOPTICS"> F  </i>
   <v name="STM">      0.00000000      0.00000000      0.00000000      0.00000000      0.00000000      0.00000000      0.00000000</v>
  </separator>
  <separator name="performance" >
   <i type="int" name="NPAR">    36</i>
   <i type="int" name="NSIM">     4</i>
   <i type="int" name="NBLK">    -1</i>
   <i type="logical" name="LPLANE"> T  </i>
   <i type="logical" name="LSCALAPACK"> T  </i>
   <i type="logical" name="LSCAAWARE"> F  </i>
   <i type="logical" name="LSCALU"> F  </i>
   <i type="logical" name="LASYNC"> F  </i>
   <i type="logical" name="LORBITALREAL"> F  </i>
  </separator>
  <separator name="miscellaneous" >
   <i type="int" name="IDIOT">     3</i>
   <i type="int" name="ISPECIAL">     0</i>
   <i type="logical" name="LMUSIC"> F  </i>
   <v name="POMASS">    127.60000000</v>
   <v name="DARWINR">      0.00000000</v>
   <v name="DARWINV">      1.00000000</v>
   <i type="logical" name="LCORR"> T  </i>
  </separator>
  <i type="logical" name="GGA_COMPAT"> T  </i>
  <i type="logical" name="LBERRY"> F  </i>
  <i type="int" name="ICORELEVEL">     0</i>
  <i type="logical" name="LDAU"> F  </i>
  <i type="int" name="I_CONSTRAINED_M">     0</i>
  <separator name="electronic exchange-correlation" >
   <i type="string" name="GGA">--</i>
   <i type="int" name="VOSKOWN">     0</i>
   <i type="logical" name="LHFCALC"> F  </i>
   <i type="string" name="PRECFOCK"></i>
   <i type="logical" name="LSYMGRAD"> F  </i>
   <i type="logical" name="LHFONE"> F  </i>
   <i type="logical" name="LRHFCALC"> F  </i>
   <i type="logical" name="LTHOMAS"> F  </i>
   <i type="logical" name="LMODELHF"> F  </i>
   <i name="ENCUT4O">     -1.00000000</i>
   <i type="int" name="EXXOEP">     0</i>
   <i type="int" name="FOURORBIT">     0</i>
   <i name="AEXX">      0.00000000</i>
   <i name="HFALPHA">      0.00000000</i>
   <i name="MCALPHA">      0.00000000</i>
   <i name="ALDAX">      1.00000000</i>
   <i name="AGGAX">      1.00000000</i>
   <i name="ALDAC">      1.00000000</i>
   <i name="AGGAC">      1.00000000</i>
   <i type="int" name="NKREDX">     1</i>
   <i type="int" name="NKREDY">     1</i>
   <i type="int" name="NKREDZ">     1</i>
   <i type="logical" name="SHIFTRED"> F  </i>
   <i type="logical" name="ODDONLY"> F  </i>
   <i type="logical" name="EVENONLY"> F  </i>
   <i type="int" name="LMAXFOCK">     0</i>
   <i type="int" name="NMAXFOCKAE">     0</i>
   <i type="logical" name="LFOCKAEDFT"> F  </i>
   <i name="HFSCREEN">      0.00000000</i>
   <i name="HFSCREENC">      0.00000000</i>
   <i type="int" name="NBANDSGWLOW">     0</i>
  </separator>
  <separator name="vdW DFT" >
   <i type="logical" name="LUSE_VDW"> F  </i>
   <i name="Zab_VDW">     -0.84910000</i>
   <i name="PARAM1">      0.12340000</i>
   <i name="PARAM2">      1.00000000</i>
   <i name="PARAM3">      0.00000000</i>
  </separator>
  <separator name="model GW" >
   <i type="int" name="MODEL_GW">     0</i>
   <i name="MODEL_EPS0">    600.00000000</i>
   <i name="MODEL_ALPHA">      1.00000000</i>
  </separator>
  <separator name="linear response parameters" >
   <i type="logical" name="LEPSILON"> F  </i>
   <i type="logical" name="LRPA"> F  </i>
   <i type="logical" name="LNABLA"> F  </i>
   <i type="logical" name="LVEL"> F  </i>
   <i type="int" name="KINTER">     0</i>
   <i name="CSHIFT">      0.10000000</i>
   <i name="OMEGAMAX">     -1.00000000</i>
   <i name="DEG_THRESHOLD">      0.00200000</i>
   <i name="RTIME">     -0.10000000</i>
   <i name="WPLASMAI">      0.00000000</i>
   <v name="DFIELD">      0.00000000      0.00000000      0.00000000</v>
   <v name="WPLASMA">      0.00000000      0.00000000      0.00000000      0.00000000      0.00000000      0.00000000      0.00000000      0.00000000      0.00000000</v>
  </separator>
  <separator name="orbital magnetization" >
   <i type="logical" name="NUCIND"> F  </i>
   <v name="MAGPOS">      0.00000000      0.00000000      0.00000000</v>
   <i type="logical" name="LNICSALL"> T  </i>
   <i type="logical" name="ORBITALMAG"> F  </i>
   <i type="logical" name="LMAGBLOCH"> F  </i>
   <i type="logical" name="LCHIMAG"> F  </i>
   <i type="logical" name="LGAUGE"> T  </i>
   <i type="int" name="MAGATOM">     0</i>
   <v name="MAGDIPOL">      0.00000000      0.00000000      0.00000000</v>
   <v name="AVECCONST">      0.00000000      0.00000000      0.00000000</v>
  </separator>
  <separator name="response functions" >
   <i type="logical" name="LADDER"> F  </i>
   <i type="logical" name="LRPAFORCE"> F  </i>
   <i type="logical" name="LFXC"> F  </i>
   <i type="logical" name="LHARTREE"> T  </i>
   <i type="int" name="IBSE">     0</i>
   <v type="int" name="KPOINT">    -1     0     0     0</v>
   <i type="logical" name="LTCTE"> F  </i>
   <i type="logical" name="LTETE"> F  </i>
   <i type="logical" name="LTRIPLET"> F  </i>
   <i type="logical" name="LFXCEPS"> F  </i>
   <i type="logical" name="LFXHEG"> F  </i>
   <i type="int" name="NATURALO">     2</i>
   <i type="logical" name="L2ORDER"> F  </i>
   <i type="logical" name="LMP2LT"> F  </i>
   <i type="logical" name="LUSEW"> F  </i>
   <i name="ENCUTGW">     -2.00000000</i>
   <i name="ENCUTGWSOFT">     -2.00000000</i>
   <i name="ENCUTLF">     -1.00000000</i>
   <i type="int" name="LMAXMP2">    -1</i>
   <i name="SCISSOR">      0.00000000</i>
   <i type="int" name="NOMEGA">     0</i>
   <i type="int" name="NOMEGAR">     0</i>
   <i type="int" name="NBANDSGW">    -1</i>
   <i type="int" name="NBANDSO">    -1</i>
   <i type="int" name="NBANDSV">    -1</i>
   <i type="int" name="NELM">   300</i>
   <i type="int" name="NELMHF">     1</i>
   <i type="int" name="DIM">     3</i>
   <i type="int" name="ANTIRES">     0</i>
   <i name="OMEGAMAX">    -30.00000000</i>
   <i name="OMEGAMIN">    -30.00000000</i>
   <i name="OMEGATL">   -200.00000000</i>
   <i type="int" name="OMEGAGRID">   140</i>
   <i name="CSHIFT">     -0.10000000</i>
   <i type="logical" name="SELFENERGY"> F  </i>
   <i type="logical" name="LSPECTRAL"> F  </i>
   <i type="logical" name="LSPECTRALGW"> F  </i>
   <i type="logical" name="LSINGLES"> F  </i>
   <i type="logical" name="LFERMIGW"> F  </i>
   <i type="logical" name="ODDONLYGW"> F  </i>
   <i type="logical" name="EVENONLYGW"> F  </i>
   <i type="int" name="NKREDLFX">     1</i>
   <i type="int" name="NKREDLFY">     1</i>
   <i type="int" name="NKREDLFZ">     1</i>
   <i type="int" name="MAXMEM">  2800</i>
   <i type="int" name="TELESCOPE">     0</i>
   <i type="int" name="TAUPAR">     1</i>
   <i type="int" name="OMEGAPAR">    -1</i>
   <i name="LAMBDA">      1.00000000</i>
  </separator>
  <separator name="External order field" >
   <i name="OFIELD_KAPPA">      0.00000000</i>
   <v name="OFIELD_K">      0.00000000      0.00000000      0.00000000</v>
   <i name="OFIELD_Q6_NEAR">      0.00000000</i>
   <i name="OFIELD_Q6_FAR">      0.00000000</i>
   <i name="OFIELD_A">      0.00000000</i>
  </separator>
 </parameters>
 <atominfo>
  <atoms>       1 </atoms>
  <types>       1 </types>
  <array name="atoms" >
   <dimension dim="1">ion</dimension>
   <field type="string">element</field>
   <field type="int">atomtype</field>
   <set>
    <rc><c>Te</c><c>   1</c></rc>
   </set>
  </array>
  <array name="atomtypes" >
   <dimension dim="1">type</dimension>
   <field type="int">atomspertype</field>
   <field type="string">element</field>
   <field>mass</field>
   <field>valence</field>
   <field type="string">pseudopotential</field>
   <set>
    <rc><c>   1</c><c>Te</c><c>    127.60000000</c><c>      6.00000000</c><c>  PAW_PBE Te 08Apr2002                  </c></rc>
   </set>
  </array>
 </atominfo>
 <structure name="initialpos" >
  <crystal>
   <varray name="basis" >
    <v>      10.00000000       0.00000000       0.00000000 </v>
    <v>       0.00000000      10.00000000       0.00000000 </v>
    <v>       0.00000000       0.00000000      10.00000000 </v>
   </varray>
   <i name="volume">   1000.00000000 </i>
   <varray name="rec_basis" >
    <v>       0.10000000       0.00000000       0.00000000 </v>
    <v>       0.00000000       0.10000000       0.00000000 </v>
    <v>       0.00000000       0.00000000       0.10000000 </v>
   </varray>
  </crystal>
  <varray name="positions" >
   <v>       0.50000000       0.50000000       0.50000000 </v>
  </varray>
 </structure>
 <calculation>
  <scstep>
   <time name="total">    0.90    0.91</time>
   <energy>
    <i name="alphaZ">      0.02597251 </i>
    <i name="ewald">    -73.54166402 </i>
    <i name="hartreedc">   -107.21406081 </i>
    <i name="XCdc">    -29.15636951 </i>
    <i name="pawpsdc">    207.72015009 </i>
    <i name="pawaedc">   -169.23282282 </i>
    <i name="eentropy">     -0.01584885 </i>
    <i name="bandstr">    -10.09309235 </i>
    <i name="atom">    223.27143533 </i>
    <i name="e_fr_energy">     41.76369958 </i>
    <i name="e_wo_entrp">     41.77954843 </i>
    <i name="e_0_energy">     41.77162401 </i>
   </energy>
  </scstep>
  <scstep>
   <time name="total">    0.37    0.37</time>
   <energy>
    <i name="e_fr_energy">     25.36741495 </i>
    <i name="e_wo_entrp">     25.37558519 </i>
    <i name="e_0_energy">     25.37150007 </i>
   </energy>
  </scstep>
  <scstep>
   <time name="total">    0.38    0.38</time>
   <energy>
    <i name="e_fr_energy">     18.24784593 </i>
    <i name="e_wo_entrp">     18.24786298 </i>
    <i name="e_0_energy">     18.24785446 </i>
   </energy>
  </scstep>
  <scstep>
   <time name="total">    0.38    0.38</time>
   <energy>
    <i name="e_fr_energy">      9.08652955 </i>
    <i name="e_wo_entrp">      9.08653053 </i>
    <i name="e_0_energy">      9.08653004 </i>
   </energy>
  </scstep>
  <scstep>
   <time name="total">    0.60    0.60</time>
   <energy>
    <i name="e_fr_energy">      3.61747819 </i>
    <i name="e_wo_entrp">      3.63322422 </i>
    <i name="e_0_energy">      3.62535121 </i>
   </energy>
  </scstep>
  <scstep>
   <time name="total">    0.93    0.94</time>
   <energy>
    <i name="e_fr_energy">      4.57445575 </i>
    <i name="e_wo_entrp">      4.58308944 </i>
    <i name="e_0_energy">      4.57877260 </i>
   </energy>
  </scstep>
  <scstep>
   <time name="total">    0.92    0.92</time>
   <energy>
    <i name="e_fr_energy">      0.90082188 </i>
    <i name="e_wo_entrp">      0.92514462 </i>
    <i name="e_0_energy">      0.91298325 </i>
   </energy>
  </scstep>
  <scstep>
   <time name="total">    0.94    0.94</time>
   <energy>
    <i name="e_fr_energy">      0.32668400 </i>
    <i name="e_wo_entrp">      0.34262984 </i>
    <i name="e_0_energy">      0.33465692 </i>
   </energy>
  </scstep>
  <scstep>
   <time name="total">    0.90    0.90</time>
   <energy>
    <i name="e_fr_energy">     -0.29635995 </i>
    <i name="e_wo_entrp">     -0.28972947 </i>
    <i name="e_0_energy">     -0.29304471 </i>
   </energy>
  </scstep>
  <scstep>
   <time name="total">    0.90    0.90</time>
   <energy>
    <i name="e_fr_energy">     -0.58432467 </i>
    <i name="e_wo_entrp">     -0.57434185 </i>
    <i name="e_0_energy">     -0.57933326 </i>
   </energy>
  </scstep>
  <scstep>
   <time name="total">    0.91    0.91</time>
   <energy>
    <i name="e_fr_energy">     -0.61165478 </i>
    <i name="e_wo_entrp">     -0.59641952 </i>
    <i name="e_0_energy">     -0.60403715 </i>
   </energy>
  </scstep>
  <scstep>
   <time name="total">    0.91    0.91</time>
   <energy>
    <i name="e_fr_energy">     -0.63709659 </i>
    <i name="e_wo_entrp">     -0.61669075 </i>
    <i name="e_0_energy">     -0.62689367 </i>
   </energy>
  </scstep>
  <scstep>
   <time name="total">    0.91    0.91</time>
   <energy>
    <i name="e_fr_energy">     -0.65389149 </i>
    <i name="e_wo_entrp">     -0.62976866 </i>
    <i name="e_0_energy">     -0.64183007 </i>
   </energy>
  </scstep>
  <scstep>
   <time name="total">    0.91    0.91</time>
   <energy>
    <i name="e_fr_energy">     -0.65944851 </i>
    <i name="e_wo_entrp">     -0.63314251 </i>
    <i name="e_0_energy">     -0.64629551 </i>
   </energy>
  </scstep>
  <scstep>
   <time name="total">    0.91    0.91</time>
   <energy>
    <i name="e_fr_energy">     -0.66245757 </i>
    <i name="e_wo_entrp">     -0.63446909 </i>
    <i name="e_0_energy">     -0.64846333 </i>
   </energy>
  </scstep>
  <scstep>
   <time name="total">    0.90    0.90</time>
   <energy>
    <i name="e_fr_energy">     -0.66476550 </i>
    <i name="e_wo_entrp">     -0.63379334 </i>
    <i name="e_0_energy">     -0.64927942 </i>
   </energy>
  </scstep>
  <scstep>
   <time name="total">    0.90    0.90</time>
   <energy>
    <i name="e_fr_energy">     -0.66793414 </i>
    <i name="e_wo_entrp">     -0.63355846 </i>
    <i name="e_0_energy">     -0.65074630 </i>
   </energy>
  </scstep>
  <scstep>
   <time name="total">    0.90    0.90</time>
   <energy>
    <i name="e_fr_energy">     -0.67139882 </i>
    <i name="e_wo_entrp">     -0.63476305 </i>
    <i name="e_0_energy">     -0.65308093 </i>
   </energy>
  </scstep>
  <scstep>
   <time name="total">    0.91    0.91</time>
   <energy>
    <i name="e_fr_energy">     -0.67370236 </i>
    <i name="e_wo_entrp">     -0.63593304 </i>
    <i name="e_0_energy">     -0.65481770 </i>
   </energy>
  </scstep>
  <scstep>
   <time name="total">    0.91    0.91</time>
   <energy>
    <i name="e_fr_energy">     -0.67485962 </i>
    <i name="e_wo_entrp">     -0.63659868 </i>
    <i name="e_0_energy">     -0.65572915 </i>
   </energy>
  </scstep>
  <scstep>
   <time name="total">    0.90    0.90</time>
   <energy>
    <i name="e_fr_energy">     -0.67536327 </i>
    <i name="e_wo_entrp">     -0.63690728 </i>
    <i name="e_0_energy">     -0.65613527 </i>
   </energy>
  </scstep>
  <scstep>
   <time name="total">    0.90    0.90</time>
   <energy>
    <i name="e_fr_energy">     -0.67556509 </i>
    <i name="e_wo_entrp">     -0.63703671 </i>
    <i name="e_0_energy">     -0.65630090 </i>
   </energy>
  </scstep>
  <scstep>
   <time name="total">    0.90    0.90</time>
   <energy>
    <i name="e_fr_energy">     -0.67564093 </i>
    <i name="e_wo_entrp">     -0.63708722 </i>
    <i name="e_0_energy">     -0.65636407 </i>
   </energy>
  </scstep>
  <scstep>
   <time name="total">    0.96    0.96</time>
   <energy>
    <i name="alphaZ">      0.02597251 </i>
    <i name="ewald">    -73.54166402 </i>
    <i name="hartreedc">   -107.62835111 </i>
    <i name="XCdc">    -28.86669436 </i>
    <i name="pawpsdc">    232.83411147 </i>
    <i name="pawaedc">   -194.33604140 </i>
    <i name="eentropy">     -0.03856205 </i>
    <i name="bandstr">    -52.39588251 </i>
    <i name="atom">    223.27143533 </i>
    <i name="e_fr_energy">     -0.67566779 </i>
    <i name="e_wo_entrp">     -0.63710574 </i>
    <i name="e_0_energy">     -0.65638676 </i>
   </energy>
  </scstep>
  <structure>
   <crystal>
    <varray name="basis" >
     <v>      10.00000000       0.00000000       0.00000000 </v>
     <v>       0.00000000      10.00000000       0.00000000 </v>
     <v>       0.00000000       0.00000000      10.00000000 </v>
    </varray>
    <i name="volume">   1000.00000000 </i>
    <varray name="rec_basis" >
     <v>       0.10000000       0.00000000       0.00000000 </v>
     <v>       0.00000000       0.10000000       0.00000000 </v>
     <v>       0.00000000       0.00000000       0.10000000 </v>
    </varray>
   </crystal>
   <varray name="positions" >
    <v>       0.50000000       0.50000000       0.50000000 </v>
   </varray>
  </structure>
  <varray name="forces" >
   <v>       0.00000000       0.00000000       0.00000000 </v>
  </varray>
  <varray name="stress" >
   <v>       0.01370702       0.00000000       0.00000000 </v>
   <v>       0.00000000       0.01370702       0.00000000 </v>
   <v>      -0.00000000      -0.00000000       0.01370702 </v>
  </varray>
  <energy>
   <i name="e_fr_energy">     -0.67566779 </i>
   <i name="e_wo_entrp">     -0.65638676 </i>
   <i name="e_0_energy">     -0.03856205 </i>
  </energy>
  <time name="totalsc">   27.41   32.98</time>
  <eigenvalues>
   <array>
    <dimension dim="1">band</dimension>
    <dimension dim="2">kpoint</dimension>
    <dimension dim="3">spin</dimension>
    <field>eigene</field>
    <field>occ</field>
    <set>
     <set comment="spin 1">
      <set comment="kpoint 1">
       <r>  -15.2357    1.0000 </r>
       <r>   -6.1013    1.0000 </r>
       <r>   -6.1013    1.0000 </r>
       <r>   -6.1013    1.0000 </r>
       <r>   -0.5222    0.0000 </r>
       <r>    0.9245    0.0000 </r>
       <r>    0.9247    0.0000 </r>
       <r>    1.1915    0.0000 </r>
       <r>    1.1940    0.0000 </r>
       <r>    1.1968    0.0000 </r>
       <r>    1.3135    0.0000 </r>
       <r>    1.5955    0.0000 </r>
       <r>    1.5958    0.0000 </r>
       <r>    1.5959    0.0000 </r>
       <r>    2.5458    0.0000 </r>
       <r>    2.5464    0.0000 </r>
       <r>    2.7349    0.0000 </r>
       <r>    2.7418    0.0000 </r>
       <r>    2.7506    0.0000 </r>
       <r>    2.8487    0.0000 </r>
       <r>    2.8489    0.0000 </r>
       <r>    2.8603    0.0000 </r>
       <r>    3.1983    0.0000 </r>
       <r>    3.7334    0.0000 </r>
       <r>    3.7340    0.0000 </r>
       <r>    3.7341    0.0000 </r>
       <r>    3.8306    0.0000 </r>
       <r>    3.8328    0.0000 </r>
       <r>    3.8653    0.0000 </r>
       <r>    4.3842    0.0000 </r>
       <r>    4.4014    0.0000 </r>
       <r>    4.4269    0.0000 </r>
       <r>    4.4480    0.0000 </r>
       <r>    5.3157    0.0000 </r>
       <r>    5.3163    0.0000 </r>
       <r>    5.6760    0.0000 </r>
      </set>
     </set>
     <set comment="spin 2">
      <set comment="kpoint 1">
       <r>  -14.0167    1.0000 </r>
       <r>   -4.8396    0.3374 </r>
       <r>   -4.8396    0.3362 </r>
       <r>   -4.8396    0.3264 </r>
       <r>   -0.2949    0.0000 </r>
       <r>    1.1593    0.0000 </r>
       <r>    1.1594    0.0000 </r>
       <r>    1.3907    0.0000 </r>
       <r>    1.3936    0.0000 </r>
       <r>    1.4118    0.0000 </r>
       <r>    1.4456    0.0000 </r>
       <r>    2.0309    0.0000 </r>
       <r>    2.0311    0.0000 </r>
       <r>    2.0314    0.0000 </r>
       <r>    2.7294    0.0000 </r>
       <r>    2.7299    0.0000 </r>
       <r>    2.8459    0.0000 </r>
       <r>    2.8468    0.0000 </r>
       <r>    2.8489    0.0000 </r>
       <r>    3.0412    0.0000 </r>
       <r>    3.0419    0.0000 </r>
       <r>    3.0467    0.0000 </r>
       <r>    3.3499    0.0000 </r>
       <r>    3.9217    0.0000 </r>
       <r>    3.9225    0.0000 </r>
       <r>    3.9229    0.0000 </r>
       <r>    4.0879    0.0000 </r>
       <r>    4.2533    0.0000 </r>
       <r>    4.2995    0.0000 </r>
       <r>    4.4583    0.0000 </r>
       <r>    4.4780    0.0000 </r>
       <r>    4.5010    0.0000 </r>
       <r>    4.7066    0.0000 </r>
       <r>    5.7516    0.0000 </r>
       <r>    5.9881    0.0000 </r>
       <r>    6.3249    0.0000 </r>
      </set>
     </set>
    </set>
   </array>
  </eigenvalues>
  <separator name="orbital magnetization" >
   <v name="MAGDIPOLOUT">      0.00000000      0.00000000      0.00000000</v>
  </separator>
  <dos>
   <i name="efermi">     -4.85487313 </i>
   <total>
    <array>
     <dimension dim="1">gridpoints</dimension>
     <dimension dim="2">spin</dimension>
     <field>energy</field>
     <field>total</field>
     <field>integrated</field>
     <set>
      <set comment="spin 1">
       <r>   -16.3138     0.0000     0.0000 </r>
       <r>   -16.2347     0.0000     0.0000 </r>
       <r>   -16.1557     0.0000     0.0000 </r>
       <r>   -16.0766     0.0000     0.0000 </r>
       <r>   -15.9976     0.0000     0.0000 </r>
       <r>   -15.9185     0.0000     0.0000 </r>
       <r>   -15.8394     0.0000     0.0000 </r>
       <r>   -15.7604     0.0000     0.0000 </r>
       <r>   -15.6813     0.0000     0.0000 </r>
       <r>   -15.6023     0.0000     0.0000 </r>
       <r>   -15.5232     0.0000     0.0000 </r>
       <r>   -15.4442     0.0000     0.0000 </r>
       <r>   -15.3651     0.0016     0.0001 </r>
       <r>   -15.2861     0.9772     0.0774 </r>
       <r>   -15.2070     9.0385     0.7919 </r>
       <r>   -15.1279     2.6176     0.9989 </r>
       <r>   -15.0489     0.0145     1.0000 </r>
       <r>   -14.9698     0.0000     1.0000 </r>
       <r>   -14.8908     0.0000     1.0000 </r>
       <r>   -14.8117     0.0000     1.0000 </r>
       <r>   -14.7327     0.0000     1.0000 </r>
       <r>   -14.6536     0.0000     1.0000 </r>
       <r>   -14.5746     0.0000     1.0000 </r>
       <r>   -14.4955     0.0000     1.0000 </r>
       <r>   -14.4164     0.0000     1.0000 </r>
       <r>   -14.3374     0.0000     1.0000 </r>
       <r>   -14.2583     0.0000     1.0000 </r>
       <r>   -14.1793     0.0000     1.0000 </r>
       <r>   -14.1002     0.0000     1.0000 </r>
       <r>   -14.0212     0.0000     1.0000 </r>
       <r>   -13.9421     0.0000     1.0000 </r>
       <r>   -13.8631     0.0000     1.0000 </r>
       <r>   -13.7840     0.0000     1.0000 </r>
       <r>   -13.7049     0.0000     1.0000 </r>
       <r>   -13.6259     0.0000     1.0000 </r>
       <r>   -13.5468     0.0000     1.0000 </r>
       <r>   -13.4678     0.0000     1.0000 </r>
       <r>   -13.3887     0.0000     1.0000 </r>
       <r>   -13.3097     0.0000     1.0000 </r>
       <r>   -13.2306     0.0000     1.0000 </r>
       <r>   -13.1516     0.0000     1.0000 </r>
       <r>   -13.0725     0.0000     1.0000 </r>
       <r>   -12.9934     0.0000     1.0000 </r>
       <r>   -12.9144     0.0000     1.0000 </r>
       <r>   -12.8353     0.0000     1.0000 </r>
       <r>   -12.7563     0.0000     1.0000 </r>
       <r>   -12.6772     0.0000     1.0000 </r>
       <r>   -12.5982     0.0000     1.0000 </r>
       <r>   -12.5191     0.0000     1.0000 </r>
       <r>   -12.4401     0.0000     1.0000 </r>
       <r>   -12.3610     0.0000     1.0000 </r>
       <r>   -12.2819     0.0000     1.0000 </r>
       <r>   -12.2029     0.0000     1.0000 </r>
       <r>   -12.1238     0.0000     1.0000 </r>
       <r>   -12.0448     0.0000     1.0000 </r>
       <r>   -11.9657     0.0000     1.0000 </r>
       <r>   -11.8867     0.0000     1.0000 </r>
       <r>   -11.8076     0.0000     1.0000 </r>
       <r>   -11.7286     0.0000     1.0000 </r>
       <r>   -11.6495     0.0000     1.0000 </r>
       <r>   -11.5704     0.0000     1.0000 </r>
       <r>   -11.4914     0.0000     1.0000 </r>
       <r>   -11.4123     0.0000     1.0000 </r>
       <r>   -11.3333     0.0000     1.0000 </r>
       <r>   -11.2542     0.0000     1.0000 </r>
       <r>   -11.1752     0.0000     1.0000 </r>
       <r>   -11.0961     0.0000     1.0000 </r>
       <r>   -11.0171     0.0000     1.0000 </r>
       <r>   -10.9380     0.0000     1.0000 </r>
       <r>   -10.8589     0.0000     1.0000 </r>
       <r>   -10.7799     0.0000     1.0000 </r>
       <r>   -10.7008     0.0000     1.0000 </r>
       <r>   -10.6218     0.0000     1.0000 </r>
       <r>   -10.5427     0.0000     1.0000 </r>
       <r>   -10.4637     0.0000     1.0000 </r>
       <r>   -10.3846     0.0000     1.0000 </r>
       <r>   -10.3056     0.0000     1.0000 </r>
       <r>   -10.2265     0.0000     1.0000 </r>
       <r>   -10.1474     0.0000     1.0000 </r>
       <r>   -10.0684     0.0000     1.0000 </r>
       <r>    -9.9893     0.0000     1.0000 </r>
       <r>    -9.9103     0.0000     1.0000 </r>
       <r>    -9.8312     0.0000     1.0000 </r>
       <r>    -9.7522     0.0000     1.0000 </r>
       <r>    -9.6731     0.0000     1.0000 </r>
       <r>    -9.5941     0.0000     1.0000 </r>
       <r>    -9.5150     0.0000     1.0000 </r>
       <r>    -9.4359     0.0000     1.0000 </r>
       <r>    -9.3569     0.0000     1.0000 </r>
       <r>    -9.2778     0.0000     1.0000 </r>
       <r>    -9.1988     0.0000     1.0000 </r>
       <r>    -9.1197     0.0000     1.0000 </r>
       <r>    -9.0407     0.0000     1.0000 </r>
       <r>    -8.9616     0.0000     1.0000 </r>
       <r>    -8.8825     0.0000     1.0000 </r>
       <r>    -8.8035     0.0000     1.0000 </r>
       <r>    -8.7244     0.0000     1.0000 </r>
       <r>    -8.6454     0.0000     1.0000 </r>
       <r>    -8.5663     0.0000     1.0000 </r>
       <r>    -8.4873     0.0000     1.0000 </r>
       <r>    -8.4082     0.0000     1.0000 </r>
       <r>    -8.3292     0.0000     1.0000 </r>
       <r>    -8.2501     0.0000     1.0000 </r>
       <r>    -8.1710     0.0000     1.0000 </r>
       <r>    -8.0920     0.0000     1.0000 </r>
       <r>    -8.0129     0.0000     1.0000 </r>
       <r>    -7.9339     0.0000     1.0000 </r>
       <r>    -7.8548     0.0000     1.0000 </r>
       <r>    -7.7758     0.0000     1.0000 </r>
       <r>    -7.6967     0.0000     1.0000 </r>
       <r>    -7.6177     0.0000     1.0000 </r>
       <r>    -7.5386     0.0000     1.0000 </r>
       <r>    -7.4595     0.0000     1.0000 </r>
       <r>    -7.3805     0.0000     1.0000 </r>
       <r>    -7.3014     0.0000     1.0000 </r>
       <r>    -7.2224     0.0000     1.0000 </r>
       <r>    -7.1433     0.0000     1.0000 </r>
       <r>    -7.0643     0.0000     1.0000 </r>
       <r>    -6.9852     0.0000     1.0000 </r>
       <r>    -6.9062     0.0000     1.0000 </r>
       <r>    -6.8271     0.0000     1.0000 </r>
       <r>    -6.7480     0.0000     1.0000 </r>
       <r>    -6.6690     0.0000     1.0000 </r>
       <r>    -6.5899     0.0000     1.0000 </r>
       <r>    -6.5109     0.0000     1.0000 </r>
       <r>    -6.4318     0.0000     1.0000 </r>
       <r>    -6.3528     0.0000     1.0000 </r>
       <r>    -6.2737     0.0000     1.0000 </r>
       <r>    -6.1947     0.1566     1.0124 </r>
       <r>    -6.1156    12.8424     2.0276 </r>
       <r>    -6.0365    23.6744     3.8992 </r>
       <r>    -5.9575     1.2736     3.9999 </r>
       <r>    -5.8784     0.0009     4.0000 </r>
       <r>    -5.7994     0.0000     4.0000 </r>
       <r>    -5.7203     0.0000     4.0000 </r>
       <r>    -5.6413     0.0000     4.0000 </r>
       <r>    -5.5622     0.0000     4.0000 </r>
       <r>    -5.4832     0.0000     4.0000 </r>
       <r>    -5.4041     0.0000     4.0000 </r>
       <r>    -5.3250     0.0000     4.0000 </r>
       <r>    -5.2460     0.0000     4.0000 </r>
       <r>    -5.1669     0.0000     4.0000 </r>
       <r>    -5.0879     0.0000     4.0000 </r>
       <r>    -5.0088     0.0000     4.0000 </r>
       <r>    -4.9298     0.0000     4.0000 </r>
       <r>    -4.8507     0.0000     4.0000 </r>
       <r>    -4.7717     0.0000     4.0000 </r>
       <r>    -4.6926     0.0000     4.0000 </r>
       <r>    -4.6135     0.0000     4.0000 </r>
       <r>    -4.5345     0.0000     4.0000 </r>
       <r>    -4.4554     0.0000     4.0000 </r>
       <r>    -4.3764     0.0000     4.0000 </r>
       <r>    -4.2973     0.0000     4.0000 </r>
       <r>    -4.2183     0.0000     4.0000 </r>
       <r>    -4.1392     0.0000     4.0000 </r>
       <r>    -4.0602     0.0000     4.0000 </r>
       <r>    -3.9811     0.0000     4.0000 </r>
       <r>    -3.9020     0.0000     4.0000 </r>
       <r>    -3.8230     0.0000     4.0000 </r>
       <r>    -3.7439     0.0000     4.0000 </r>
       <r>    -3.6649     0.0000     4.0000 </r>
       <r>    -3.5858     0.0000     4.0000 </r>
       <r>    -3.5068     0.0000     4.0000 </r>
       <r>    -3.4277     0.0000     4.0000 </r>
       <r>    -3.3487     0.0000     4.0000 </r>
       <r>    -3.2696     0.0000     4.0000 </r>
       <r>    -3.1905     0.0000     4.0000 </r>
       <r>    -3.1115     0.0000     4.0000 </r>
       <r>    -3.0324     0.0000     4.0000 </r>
       <r>    -2.9534     0.0000     4.0000 </r>
       <r>    -2.8743     0.0000     4.0000 </r>
       <r>    -2.7953     0.0000     4.0000 </r>
       <r>    -2.7162     0.0000     4.0000 </r>
       <r>    -2.6372     0.0000     4.0000 </r>
       <r>    -2.5581     0.0000     4.0000 </r>
       <r>    -2.4790     0.0000     4.0000 </r>
       <r>    -2.4000     0.0000     4.0000 </r>
       <r>    -2.3209     0.0000     4.0000 </r>
       <r>    -2.2419     0.0000     4.0000 </r>
       <r>    -2.1628     0.0000     4.0000 </r>
       <r>    -2.0838     0.0000     4.0000 </r>
       <r>    -2.0047     0.0000     4.0000 </r>
       <r>    -1.9257     0.0000     4.0000 </r>
       <r>    -1.8466     0.0000     4.0000 </r>
       <r>    -1.7675     0.0000     4.0000 </r>
       <r>    -1.6885     0.0000     4.0000 </r>
       <r>    -1.6094     0.0000     4.0000 </r>
       <r>    -1.5304     0.0000     4.0000 </r>
       <r>    -1.4513     0.0000     4.0000 </r>
       <r>    -1.3723     0.0000     4.0000 </r>
       <r>    -1.2932     0.0000     4.0000 </r>
       <r>    -1.2142     0.0000     4.0000 </r>
       <r>    -1.1351     0.0000     4.0000 </r>
       <r>    -1.0560     0.0000     4.0000 </r>
       <r>    -0.9770     0.0000     4.0000 </r>
       <r>    -0.8979     0.0000     4.0000 </r>
       <r>    -0.8189     0.0000     4.0000 </r>
       <r>    -0.7398     0.0000     4.0000 </r>
       <r>    -0.6608     0.0006     4.0000 </r>
       <r>    -0.5817     0.5828     4.0461 </r>
       <r>    -0.5027     8.3930     4.7096 </r>
       <r>    -0.4236     3.6394     4.9974 </r>
       <r>    -0.3445     0.0335     5.0000 </r>
       <r>    -0.2655     0.0000     5.0000 </r>
       <r>    -0.1864     0.0000     5.0000 </r>
       <r>    -0.1074     0.0000     5.0000 </r>
       <r>    -0.0283     0.0000     5.0000 </r>
       <r>     0.0507     0.0000     5.0000 </r>
       <r>     0.1298     0.0000     5.0000 </r>
       <r>     0.2088     0.0000     5.0000 </r>
       <r>     0.2879     0.0000     5.0000 </r>
       <r>     0.3670     0.0000     5.0000 </r>
       <r>     0.4460     0.0000     5.0000 </r>
       <r>     0.5251     0.0000     5.0000 </r>
       <r>     0.6041     0.0000     5.0000 </r>
       <r>     0.6832     0.0000     5.0000 </r>
       <r>     0.7622     0.0001     5.0000 </r>
       <r>     0.8413     0.2334     5.0185 </r>
       <r>     0.9203    11.2052     5.9043 </r>
       <r>     0.9994    13.4253     6.9656 </r>
       <r>     1.0785     0.4553     7.0016 </r>
       <r>     1.1575     5.7008     7.4523 </r>
       <r>     1.2366    28.0378     9.6689 </r>
       <r>     1.3156    10.8079    10.5233 </r>
       <r>     1.3947     5.8933    10.9892 </r>
       <r>     1.4737     0.1474    11.0008 </r>
       <r>     1.5528     4.2519    11.3370 </r>
       <r>     1.6319    27.8623    13.5396 </r>
       <r>     1.7109     5.8019    13.9983 </r>
       <r>     1.7900     0.0213    14.0000 </r>
       <r>     1.8690     0.0000    14.0000 </r>
       <r>     1.9481     0.0000    14.0000 </r>
       <r>     2.0271     0.0000    14.0000 </r>
       <r>     2.1062     0.0000    14.0000 </r>
       <r>     2.1852     0.0000    14.0000 </r>
       <r>     2.2643     0.0000    14.0000 </r>
       <r>     2.3434     0.0000    14.0000 </r>
       <r>     2.4224     0.0059    14.0005 </r>
       <r>     2.5015     2.6145    14.2072 </r>
       <r>     2.5805    18.5067    15.6702 </r>
       <r>     2.6596     4.5556    16.0304 </r>
       <r>     2.7386    17.0319    17.3768 </r>
       <r>     2.8177    26.0802    19.4386 </r>
       <r>     2.8967    28.2694    21.6735 </r>
       <r>     2.9758     4.1193    21.9991 </r>
       <r>     3.0549     0.0114    22.0000 </r>
       <r>     3.1339     0.4327    22.0342 </r>
       <r>     3.2130     7.9233    22.6606 </r>
       <r>     3.2920     4.2421    22.9960 </r>
       <r>     3.3711     0.0509    23.0000 </r>
       <r>     3.4501     0.0000    23.0000 </r>
       <r>     3.5292     0.0000    23.0000 </r>
       <r>     3.6082     0.0073    23.0006 </r>
       <r>     3.6873     3.5667    23.2825 </r>
       <r>     3.7664    28.4439    25.5312 </r>
       <r>     3.8454    25.9926    27.5861 </r>
       <r>     3.9245    17.1791    28.9442 </r>
       <r>     4.0035     0.7057    29.0000 </r>
       <r>     4.0826     0.0006    29.0000 </r>
       <r>     4.1616     0.0000    29.0000 </r>
       <r>     4.2407     0.0003    29.0000 </r>
       <r>     4.3197     0.5805    29.0459 </r>
       <r>     4.3988    17.4636    30.4265 </r>
       <r>     4.4779    28.8418    32.7066 </r>
       <r>     4.5569     3.6964    32.9988 </r>
       <r>     4.6360     0.0147    33.0000 </r>
       <r>     4.7150     0.0000    33.0000 </r>
       <r>     4.7941     0.0000    33.0000 </r>
       <r>     4.8731     0.0000    33.0000 </r>
       <r>     4.9522     0.0000    33.0000 </r>
       <r>     5.0312     0.0000    33.0000 </r>
       <r>     5.1103     0.0000    33.0000 </r>
       <r>     5.1894     0.0043    33.0003 </r>
       <r>     5.2684     2.2533    33.1785 </r>
       <r>     5.3475    18.3203    34.6268 </r>
       <r>     5.4265     4.6983    34.9982 </r>
       <r>     5.5056     0.0224    35.0000 </r>
       <r>     5.5846     0.0617    35.0049 </r>
       <r>     5.6637     4.5402    35.3638 </r>
       <r>     5.7427     7.6739    35.9705 </r>
       <r>     5.8218     0.3733    36.0000 </r>
       <r>     5.9009     0.0002    36.0000 </r>
       <r>     5.9799     0.0000    36.0000 </r>
       <r>     6.0590     0.0000    36.0000 </r>
       <r>     6.1380     0.0000    36.0000 </r>
       <r>     6.2171     0.0000    36.0000 </r>
       <r>     6.2961     0.0000    36.0000 </r>
       <r>     6.3752     0.0000    36.0000 </r>
       <r>     6.4542     0.0000    36.0000 </r>
       <r>     6.5333     0.0000    36.0000 </r>
       <r>     6.6124     0.0000    36.0000 </r>
       <r>     6.6914     0.0000    36.0000 </r>
       <r>     6.7705     0.0000    36.0000 </r>
       <r>     6.8495     0.0000    36.0000 </r>
       <r>     6.9286     0.0000    36.0000 </r>
       <r>     7.0076     0.0000    36.0000 </r>
       <r>     7.0867     0.0000    36.0000 </r>
       <r>     7.1657     0.0000    36.0000 </r>
       <r>     7.2448     0.0000    36.0000 </r>
       <r>     7.3239     0.0000    36.0000 </r>
       <r>     7.4029     0.0000    36.0000 </r>
      </set>
      <set comment="spin 2">
       <r>   -16.3138     0.0000     0.0000 </r>
       <r>   -16.2347     0.0000     0.0000 </r>
       <r>   -16.1557     0.0000     0.0000 </r>
       <r>   -16.0766     0.0000     0.0000 </r>
       <r>   -15.9976     0.0000     0.0000 </r>
       <r>   -15.9185     0.0000     0.0000 </r>
       <r>   -15.8394     0.0000     0.0000 </r>
       <r>   -15.7604     0.0000     0.0000 </r>
       <r>   -15.6813     0.0000     0.0000 </r>
       <r>   -15.6023     0.0000     0.0000 </r>
       <r>   -15.5232     0.0000     0.0000 </r>
       <r>   -15.4442     0.0000     0.0000 </r>
       <r>   -15.3651     0.0000     0.0000 </r>
       <r>   -15.2861     0.0000     0.0000 </r>
       <r>   -15.2070     0.0000     0.0000 </r>
       <r>   -15.1279     0.0000     0.0000 </r>
       <r>   -15.0489     0.0000     0.0000 </r>
       <r>   -14.9698     0.0000     0.0000 </r>
       <r>   -14.8908     0.0000     0.0000 </r>
       <r>   -14.8117     0.0000     0.0000 </r>
       <r>   -14.7327     0.0000     0.0000 </r>
       <r>   -14.6536     0.0000     0.0000 </r>
       <r>   -14.5746     0.0000     0.0000 </r>
       <r>   -14.4955     0.0000     0.0000 </r>
       <r>   -14.4164     0.0000     0.0000 </r>
       <r>   -14.3374     0.0000     0.0000 </r>
       <r>   -14.2583     0.0000     0.0000 </r>
       <r>   -14.1793     0.0000     0.0000 </r>
       <r>   -14.1002     0.1148     0.0091 </r>
       <r>   -14.0212     5.5734     0.4497 </r>
       <r>   -13.9421     6.7405     0.9826 </r>
       <r>   -13.8631     0.2206     1.0000 </r>
       <r>   -13.7840     0.0001     1.0000 </r>
       <r>   -13.7049     0.0000     1.0000 </r>
       <r>   -13.6259     0.0000     1.0000 </r>
       <r>   -13.5468     0.0000     1.0000 </r>
       <r>   -13.4678     0.0000     1.0000 </r>
       <r>   -13.3887     0.0000     1.0000 </r>
       <r>   -13.3097     0.0000     1.0000 </r>
       <r>   -13.2306     0.0000     1.0000 </r>
       <r>   -13.1516     0.0000     1.0000 </r>
       <r>   -13.0725     0.0000     1.0000 </r>
       <r>   -12.9934     0.0000     1.0000 </r>
       <r>   -12.9144     0.0000     1.0000 </r>
       <r>   -12.8353     0.0000     1.0000 </r>
       <r>   -12.7563     0.0000     1.0000 </r>
       <r>   -12.6772     0.0000     1.0000 </r>
       <r>   -12.5982     0.0000     1.0000 </r>
       <r>   -12.5191     0.0000     1.0000 </r>
       <r>   -12.4401     0.0000     1.0000 </r>
       <r>   -12.3610     0.0000     1.0000 </r>
       <r>   -12.2819     0.0000     1.0000 </r>
       <r>   -12.2029     0.0000     1.0000 </r>
       <r>   -12.1238     0.0000     1.0000 </r>
       <r>   -12.0448     0.0000     1.0000 </r>
       <r>   -11.9657     0.0000     1.0000 </r>
       <r>   -11.8867     0.0000     1.0000 </r>
       <r>   -11.8076     0.0000     1.0000 </r>
       <r>   -11.7286     0.0000     1.0000 </r>
       <r>   -11.6495     0.0000     1.0000 </r>
       <r>   -11.5704     0.0000     1.0000 </r>
       <r>   -11.4914     0.0000     1.0000 </r>
       <r>   -11.4123     0.0000     1.0000 </r>
       <r>   -11.3333     0.0000     1.0000 </r>
       <r>   -11.2542     0.0000     1.0000 </r>
       <r>   -11.1752     0.0000     1.0000 </r>
       <r>   -11.0961     0.0000     1.0000 </r>
       <r>   -11.0171     0.0000     1.0000 </r>
       <r>   -10.9380     0.0000     1.0000 </r>
       <r>   -10.8589     0.0000     1.0000 </r>
       <r>   -10.7799     0.0000     1.0000 </r>
       <r>   -10.7008     0.0000     1.0000 </r>
       <r>   -10.6218     0.0000     1.0000 </r>
       <r>   -10.5427     0.0000     1.0000 </r>
       <r>   -10.4637     0.0000     1.0000 </r>
       <r>   -10.3846     0.0000     1.0000 </r>
       <r>   -10.3056     0.0000     1.0000 </r>
       <r>   -10.2265     0.0000     1.0000 </r>
       <r>   -10.1474     0.0000     1.0000 </r>
       <r>   -10.0684     0.0000     1.0000 </r>
       <r>    -9.9893     0.0000     1.0000 </r>
       <r>    -9.9103     0.0000     1.0000 </r>
       <r>    -9.8312     0.0000     1.0000 </r>
       <r>    -9.7522     0.0000     1.0000 </r>
       <r>    -9.6731     0.0000     1.0000 </r>
       <r>    -9.5941     0.0000     1.0000 </r>
       <r>    -9.5150     0.0000     1.0000 </r>
       <r>    -9.4359     0.0000     1.0000 </r>
       <r>    -9.3569     0.0000     1.0000 </r>
       <r>    -9.2778     0.0000     1.0000 </r>
       <r>    -9.1988     0.0000     1.0000 </r>
       <r>    -9.1197     0.0000     1.0000 </r>
       <r>    -9.0407     0.0000     1.0000 </r>
       <r>    -8.9616     0.0000     1.0000 </r>
       <r>    -8.8825     0.0000     1.0000 </r>
       <r>    -8.8035     0.0000     1.0000 </r>
       <r>    -8.7244     0.0000     1.0000 </r>
       <r>    -8.6454     0.0000     1.0000 </r>
       <r>    -8.5663     0.0000     1.0000 </r>
       <r>    -8.4873     0.0000     1.0000 </r>
       <r>    -8.4082     0.0000     1.0000 </r>
       <r>    -8.3292     0.0000     1.0000 </r>
       <r>    -8.2501     0.0000     1.0000 </r>
       <r>    -8.1710     0.0000     1.0000 </r>
       <r>    -8.0920     0.0000     1.0000 </r>
       <r>    -8.0129     0.0000     1.0000 </r>
       <r>    -7.9339     0.0000     1.0000 </r>
       <r>    -7.8548     0.0000     1.0000 </r>
       <r>    -7.7758     0.0000     1.0000 </r>
       <r>    -7.6967     0.0000     1.0000 </r>
       <r>    -7.6177     0.0000     1.0000 </r>
       <r>    -7.5386     0.0000     1.0000 </r>
       <r>    -7.4595     0.0000     1.0000 </r>
       <r>    -7.3805     0.0000     1.0000 </r>
       <r>    -7.3014     0.0000     1.0000 </r>
       <r>    -7.2224     0.0000     1.0000 </r>
       <r>    -7.1433     0.0000     1.0000 </r>
       <r>    -7.0643     0.0000     1.0000 </r>
       <r>    -6.9852     0.0000     1.0000 </r>
       <r>    -6.9062     0.0000     1.0000 </r>
       <r>    -6.8271     0.0000     1.0000 </r>
       <r>    -6.7480     0.0000     1.0000 </r>
       <r>    -6.6690     0.0000     1.0000 </r>
       <r>    -6.5899     0.0000     1.0000 </r>
       <r>    -6.5109     0.0000     1.0000 </r>
       <r>    -6.4318     0.0000     1.0000 </r>
       <r>    -6.3528     0.0000     1.0000 </r>
       <r>    -6.2737     0.0000     1.0000 </r>
       <r>    -6.1947     0.0000     1.0000 </r>
       <r>    -6.1156     0.0000     1.0000 </r>
       <r>    -6.0365     0.0000     1.0000 </r>
       <r>    -5.9575     0.0000     1.0000 </r>
       <r>    -5.8784     0.0000     1.0000 </r>
       <r>    -5.7994     0.0000     1.0000 </r>
       <r>    -5.7203     0.0000     1.0000 </r>
       <r>    -5.6413     0.0000     1.0000 </r>
       <r>    -5.5622     0.0000     1.0000 </r>
       <r>    -5.4832     0.0000     1.0000 </r>
       <r>    -5.4041     0.0000     1.0000 </r>
       <r>    -5.3250     0.0000     1.0000 </r>
       <r>    -5.2460     0.0000     1.0000 </r>
       <r>    -5.1669     0.0000     1.0000 </r>
       <r>    -5.0879     0.0000     1.0000 </r>
       <r>    -5.0088     0.0000     1.0000 </r>
       <r>    -4.9298     0.2049     1.0162 </r>
       <r>    -4.8507    14.1063     2.1314 </r>
       <r>    -4.7717    22.6030     3.9183 </r>
       <r>    -4.6926     1.0331     4.0000 </r>
       <r>    -4.6135     0.0006     4.0000 </r>
       <r>    -4.5345     0.0000     4.0000 </r>
       <r>    -4.4554     0.0000     4.0000 </r>
       <r>    -4.3764     0.0000     4.0000 </r>
       <r>    -4.2973     0.0000     4.0000 </r>
       <r>    -4.2183     0.0000     4.0000 </r>
       <r>    -4.1392     0.0000     4.0000 </r>
       <r>    -4.0602     0.0000     4.0000 </r>
       <r>    -3.9811     0.0000     4.0000 </r>
       <r>    -3.9020     0.0000     4.0000 </r>
       <r>    -3.8230     0.0000     4.0000 </r>
       <r>    -3.7439     0.0000     4.0000 </r>
       <r>    -3.6649     0.0000     4.0000 </r>
       <r>    -3.5858     0.0000     4.0000 </r>
       <r>    -3.5068     0.0000     4.0000 </r>
       <r>    -3.4277     0.0000     4.0000 </r>
       <r>    -3.3487     0.0000     4.0000 </r>
       <r>    -3.2696     0.0000     4.0000 </r>
       <r>    -3.1905     0.0000     4.0000 </r>
       <r>    -3.1115     0.0000     4.0000 </r>
       <r>    -3.0324     0.0000     4.0000 </r>
       <r>    -2.9534     0.0000     4.0000 </r>
       <r>    -2.8743     0.0000     4.0000 </r>
       <r>    -2.7953     0.0000     4.0000 </r>
       <r>    -2.7162     0.0000     4.0000 </r>
       <r>    -2.6372     0.0000     4.0000 </r>
       <r>    -2.5581     0.0000     4.0000 </r>
       <r>    -2.4790     0.0000     4.0000 </r>
       <r>    -2.4000     0.0000     4.0000 </r>
       <r>    -2.3209     0.0000     4.0000 </r>
       <r>    -2.2419     0.0000     4.0000 </r>
       <r>    -2.1628     0.0000     4.0000 </r>
       <r>    -2.0838     0.0000     4.0000 </r>
       <r>    -2.0047     0.0000     4.0000 </r>
       <r>    -1.9257     0.0000     4.0000 </r>
       <r>    -1.8466     0.0000     4.0000 </r>
       <r>    -1.7675     0.0000     4.0000 </r>
       <r>    -1.6885     0.0000     4.0000 </r>
       <r>    -1.6094     0.0000     4.0000 </r>
       <r>    -1.5304     0.0000     4.0000 </r>
       <r>    -1.4513     0.0000     4.0000 </r>
       <r>    -1.3723     0.0000     4.0000 </r>
       <r>    -1.2932     0.0000     4.0000 </r>
       <r>    -1.2142     0.0000     4.0000 </r>
       <r>    -1.1351     0.0000     4.0000 </r>
       <r>    -1.0560     0.0000     4.0000 </r>
       <r>    -0.9770     0.0000     4.0000 </r>
       <r>    -0.8979     0.0000     4.0000 </r>
       <r>    -0.8189     0.0000     4.0000 </r>
       <r>    -0.7398     0.0000     4.0000 </r>
       <r>    -0.6608     0.0000     4.0000 </r>
       <r>    -0.5817     0.0000     4.0000 </r>
       <r>    -0.5027     0.0000     4.0000 </r>
       <r>    -0.4236     0.0017     4.0001 </r>
       <r>    -0.3445     1.0109     4.0801 </r>
       <r>    -0.2655     9.0702     4.7971 </r>
       <r>    -0.1864     2.5528     4.9989 </r>
       <r>    -0.1074     0.0137     5.0000 </r>
       <r>    -0.0283     0.0000     5.0000 </r>
       <r>     0.0507     0.0000     5.0000 </r>
       <r>     0.1298     0.0000     5.0000 </r>
       <r>     0.2088     0.0000     5.0000 </r>
       <r>     0.2879     0.0000     5.0000 </r>
       <r>     0.3670     0.0000     5.0000 </r>
       <r>     0.4460     0.0000     5.0000 </r>
       <r>     0.5251     0.0000     5.0000 </r>
       <r>     0.6041     0.0000     5.0000 </r>
       <r>     0.6832     0.0000     5.0000 </r>
       <r>     0.7622     0.0000     5.0000 </r>
       <r>     0.8413     0.0000     5.0000 </r>
       <r>     0.9203     0.0000     5.0000 </r>
       <r>     0.9994     0.0001     5.0000 </r>
       <r>     1.0785     0.2801     5.0221 </r>
       <r>     1.1575    11.8468     5.9587 </r>
       <r>     1.2366    12.8057     6.9711 </r>
       <r>     1.3156     0.7953     7.0339 </r>
       <r>     1.3947    17.8640     8.4462 </r>
       <r>     1.4737    28.8408    10.7262 </r>
       <r>     1.5528     3.4473    10.9988 </r>
       <r>     1.6319     0.0158    11.0000 </r>
       <r>     1.7109     0.0000    11.0000 </r>
       <r>     1.7900     0.0000    11.0000 </r>
       <r>     1.8690     0.0001    11.0000 </r>
       <r>     1.9481     0.3563    11.0282 </r>
       <r>     2.0271    16.8987    12.3641 </r>
       <r>     2.1062    20.0512    13.9493 </r>
       <r>     2.1852     0.6414    14.0000 </r>
       <r>     2.2643     0.0002    14.0000 </r>
       <r>     2.3434     0.0000    14.0000 </r>
       <r>     2.4224     0.0000    14.0000 </r>
       <r>     2.5015     0.0000    14.0000 </r>
       <r>     2.5805     0.0003    14.0000 </r>
       <r>     2.6596     0.6017    14.0476 </r>
       <r>     2.7386    14.6337    15.2045 </r>
       <r>     2.8177    17.5673    16.5933 </r>
       <r>     2.8967    27.3801    18.7578 </r>
       <r>     2.9758     4.1372    19.0849 </r>
       <r>     3.0549    22.7574    20.8840 </r>
       <r>     3.1339    13.9166    21.9842 </r>
       <r>     3.2130     0.2009    22.0001 </r>
       <r>     3.2920     0.6428    22.0509 </r>
       <r>     3.3711     8.5349    22.7256 </r>
       <r>     3.4501     3.4420    22.9977 </r>
       <r>     3.5292     0.0289    23.0000 </r>
       <r>     3.6082     0.0000    23.0000 </r>
       <r>     3.6873     0.0000    23.0000 </r>
       <r>     3.7664     0.0002    23.0000 </r>
       <r>     3.8454     0.5593    23.0442 </r>
       <r>     3.9245    19.3056    24.5704 </r>
       <r>     4.0035    17.7774    25.9759 </r>
       <r>     4.0826     5.8669    26.4397 </r>
       <r>     4.1616     6.9140    26.9863 </r>
       <r>     4.2407     5.3494    27.4092 </r>
       <r>     4.3197    16.1561    28.6864 </r>
       <r>     4.3988     4.7034    29.0582 </r>
       <r>     4.4779    17.7900    30.4646 </r>
       <r>     4.5569    18.5061    31.9276 </r>
       <r>     4.6360     1.2030    32.0227 </r>
       <r>     4.7150     7.2225    32.5937 </r>
       <r>     4.7941     5.0545    32.9933 </r>
       <r>     4.8731     0.0847    33.0000 </r>
       <r>     4.9522     0.0000    33.0000 </r>
       <r>     5.0312     0.0000    33.0000 </r>
       <r>     5.1103     0.0000    33.0000 </r>
       <r>     5.1894     0.0000    33.0000 </r>
       <r>     5.2684     0.0000    33.0000 </r>
       <r>     5.3475     0.0000    33.0000 </r>
       <r>     5.4265     0.0000    33.0000 </r>
       <r>     5.5056     0.0000    33.0000 </r>
       <r>     5.5846     0.0000    33.0000 </r>
       <r>     5.6637     0.0816    33.0065 </r>
       <r>     5.7427     4.9926    33.4011 </r>
       <r>     5.8218     7.2774    33.9765 </r>
       <r>     5.9009     0.3836    34.0068 </r>
       <r>     5.9799     5.0803    34.4084 </r>
       <r>     6.0590     7.1983    34.9775 </r>
       <r>     6.1380     0.2846    35.0000 </r>
       <r>     6.2171     0.0147    35.0011 </r>
       <r>     6.2961     2.6176    35.2081 </r>
       <r>     6.3752     9.0385    35.9226 </r>
       <r>     6.4542     0.9772    35.9999 </r>
       <r>     6.5333     0.0016    36.0000 </r>
       <r>     6.6124     0.0000    36.0000 </r>
       <r>     6.6914     0.0000    36.0000 </r>
       <r>     6.7705     0.0000    36.0000 </r>
       <r>     6.8495     0.0000    36.0000 </r>
       <r>     6.9286     0.0000    36.0000 </r>
       <r>     7.0076     0.0000    36.0000 </r>
       <r>     7.0867     0.0000    36.0000 </r>
       <r>     7.1657     0.0000    36.0000 </r>
       <r>     7.2448     0.0000    36.0000 </r>
       <r>     7.3239     0.0000    36.0000 </r>
       <r>     7.4029     0.0000    36.0000 </r>
      </set>
     </set>
    </array>
   </total>
   <partial>
    <array>
     <dimension dim="1">gridpoints</dimension>
     <dimension dim="2">spin</dimension>
     <dimension dim="3">ion</dimension>
     <field>energy</field>
     <field>    s</field>
     <field>   py</field>
     <field>   pz</field>
     <field>   px</field>
     <field>  dxy</field>
     <field>  dyz</field>
     <field>  dz2</field>
     <field>  dxz</field>
     <field>x2-y2</field>
     <set>
      <set comment="ion 1">
       <set comment="spin 1">
        <r>   -16.3138     0.0000     0.0000     0.0000     0.0000     0.0000     0.0000     0.0000     0.0000     0.0000 </r>
        <r>   -16.2347     0.0000     0.0000     0.0000     0.0000     0.0000     0.0000     0.0000     0.0000     0.0000 </r>
        <r>   -16.1557     0.0000     0.0000     0.0000     0.0000     0.0000     0.0000     0.0000     0.0000     0.0000 </r>
        <r>   -16.0766     0.0000     0.0000     0.0000     0.0000     0.0000     0.0000     0.0000     0.0000     0.0000 </r>
        <r>   -15.9976     0.0000     0.0000     0.0000     0.0000     0.0000     0.0000     0.0000     0.0000     0.0000 </r>
        <r>   -15.9185     0.0000     0.0000     0.0000     0.0000     0.0000     0.0000     0.0000     0.0000     0.0000 </r>
        <r>   -15.8394     0.0000     0.0000     0.0000     0.0000     0.0000     0.0000     0.0000     0.0000     0.0000 </r>
        <r>   -15.7604     0.0000     0.0000     0.0000     0.0000     0.0000     0.0000     0.0000     0.0000     0.0000 </r>
        <r>   -15.6813     0.0000     0.0000     0.0000     0.0000     0.0000     0.0000     0.0000     0.0000     0.0000 </r>
        <r>   -15.6023     0.0000     0.0000     0.0000     0.0000     0.0000     0.0000     0.0000     0.0000     0.0000 </r>
        <r>   -15.5232     0.0000     0.0000     0.0000     0.0000     0.0000     0.0000     0.0000     0.0000     0.0000 </r>
        <r>   -15.4442     0.0000     0.0000     0.0000     0.0000     0.0000     0.0000     0.0000     0.0000     0.0000 </r>
        <r>   -15.3651     0.0011     0.0000     0.0000     0.0000     0.0000     0.0000     0.0000     0.0000     0.0000 </r>
        <r>   -15.2861     0.6972     0.0000     0.0000     0.0000     0.0000     0.0000     0.0000     0.0000     0.0000 </r>
        <r>   -15.2070     6.4488     0.0000     0.0000     0.0000     0.0000     0.0000     0.0000     0.0000     0.0000 </r>
        <r>   -15.1279     1.8676     0.0000     0.0000     0.0000     0.0000     0.0000     0.0000     0.0000     0.0000 </r>
        <r>   -15.0489     0.0104     0.0000     0.0000     0.0000     0.0000     0.0000     0.0000     0.0000     0.0000 </r>
        <r>   -14.9698     0.0000     0.0000     0.0000     0.0000     0.0000     0.0000     0.0000     0.0000     0.0000 </r>
        <r>   -14.8908     0.0000     0.0000     0.0000     0.0000     0.0000     0.0000     0.0000     0.0000     0.0000 </r>
        <r>   -14.8117     0.0000     0.0000     0.0000     0.0000     0.0000     0.0000     0.0000     0.0000     0.0000 </r>
        <r>   -14.7327     0.0000     0.0000     0.0000     0.0000     0.0000     0.0000     0.0000     0.0000     0.0000 </r>
        <r>   -14.6536     0.0000     0.0000     0.0000     0.0000     0.0000     0.0000     0.0000     0.0000     0.0000 </r>
        <r>   -14.5746     0.0000     0.0000     0.0000     0.0000     0.0000     0.0000     0.0000     0.0000     0.0000 </r>
        <r>   -14.4955     0.0000     0.0000     0.0000     0.0000     0.0000     0.0000     0.0000     0.0000     0.0000 </r>
        <r>   -14.4164     0.0000     0.0000     0.0000     0.0000     0.0000     0.0000     0.0000     0.0000     0.0000 </r>
        <r>   -14.3374     0.0000     0.0000     0.0000     0.0000     0.0000     0.0000     0.0000     0.0000     0.0000 </r>
        <r>   -14.2583     0.0000     0.0000     0.0000     0.0000     0.0000     0.0000     0.0000     0.0000     0.0000 </r>
        <r>   -14.1793     0.0000     0.0000     0.0000     0.0000     0.0000     0.0000     0.0000     0.0000     0.0000 </r>
        <r>   -14.1002     0.0000     0.0000     0.0000     0.0000     0.0000     0.0000     0.0000     0.0000     0.0000 </r>
        <r>   -14.0212     0.0000     0.0000     0.0000     0.0000     0.0000     0.0000     0.0000     0.0000     0.0000 </r>
        <r>   -13.9421     0.0000     0.0000     0.0000     0.0000     0.0000     0.0000     0.0000     0.0000     0.0000 </r>
        <r>   -13.8631     0.0000     0.0000     0.0000     0.0000     0.0000     0.0000     0.0000     0.0000     0.0000 </r>
        <r>   -13.7840     0.0000     0.0000     0.0000     0.0000     0.0000     0.0000     0.0000     0.0000     0.0000 </r>
        <r>   -13.7049     0.0000     0.0000     0.0000     0.0000     0.0000     0.0000     0.0000     0.0000     0.0000 </r>
        <r>   -13.6259     0.0000     0.0000     0.0000     0.0000     0.0000     0.0000     0.0000     0.0000     0.0000 </r>
        <r>   -13.5468     0.0000     0.0000     0.0000     0.0000     0.0000     0.0000     0.0000     0.0000     0.0000 </r>
        <r>   -13.4678     0.0000     0.0000     0.0000     0.0000     0.0000     0.0000     0.0000     0.0000     0.0000 </r>
        <r>   -13.3887     0.0000     0.0000     0.0000     0.0000     0.0000     0.0000     0.0000     0.0000     0.0000 </r>
        <r>   -13.3097     0.0000     0.0000     0.0000     0.0000     0.0000     0.0000     0.0000     0.0000     0.0000 </r>
        <r>   -13.2306     0.0000     0.0000     0.0000     0.0000     0.0000     0.0000     0.0000     0.0000     0.0000 </r>
        <r>   -13.1516     0.0000     0.0000     0.0000     0.0000     0.0000     0.0000     0.0000     0.0000     0.0000 </r>
        <r>   -13.0725     0.0000     0.0000     0.0000     0.0000     0.0000     0.0000     0.0000     0.0000     0.0000 </r>
        <r>   -12.9934     0.0000     0.0000     0.0000     0.0000     0.0000     0.0000     0.0000     0.0000     0.0000 </r>
        <r>   -12.9144     0.0000     0.0000     0.0000     0.0000     0.0000     0.0000     0.0000     0.0000     0.0000 </r>
        <r>   -12.8353     0.0000     0.0000     0.0000     0.0000     0.0000     0.0000     0.0000     0.0000     0.0000 </r>
        <r>   -12.7563     0.0000     0.0000     0.0000     0.0000     0.0000     0.0000     0.0000     0.0000     0.0000 </r>
        <r>   -12.6772     0.0000     0.0000     0.0000     0.0000     0.0000     0.0000     0.0000     0.0000     0.0000 </r>
        <r>   -12.5982     0.0000     0.0000     0.0000     0.0000     0.0000     0.0000     0.0000     0.0000     0.0000 </r>
        <r>   -12.5191     0.0000     0.0000     0.0000     0.0000     0.0000     0.0000     0.0000     0.0000     0.0000 </r>
        <r>   -12.4401     0.0000     0.0000     0.0000     0.0000     0.0000     0.0000     0.0000     0.0000     0.0000 </r>
        <r>   -12.3610     0.0000     0.0000     0.0000     0.0000     0.0000     0.0000     0.0000     0.0000     0.0000 </r>
        <r>   -12.2819     0.0000     0.0000     0.0000     0.0000     0.0000     0.0000     0.0000     0.0000     0.0000 </r>
        <r>   -12.2029     0.0000     0.0000     0.0000     0.0000     0.0000     0.0000     0.0000     0.0000     0.0000 </r>
        <r>   -12.1238     0.0000     0.0000     0.0000     0.0000     0.0000     0.0000     0.0000     0.0000     0.0000 </r>
        <r>   -12.0448     0.0000     0.0000     0.0000     0.0000     0.0000     0.0000     0.0000     0.0000     0.0000 </r>
        <r>   -11.9657     0.0000     0.0000     0.0000     0.0000     0.0000     0.0000     0.0000     0.0000     0.0000 </r>
        <r>   -11.8867     0.0000     0.0000     0.0000     0.0000     0.0000     0.0000     0.0000     0.0000     0.0000 </r>
        <r>   -11.8076     0.0000     0.0000     0.0000     0.0000     0.0000     0.0000     0.0000     0.0000     0.0000 </r>
        <r>   -11.7286     0.0000     0.0000     0.0000     0.0000     0.0000     0.0000     0.0000     0.0000     0.0000 </r>
        <r>   -11.6495     0.0000     0.0000     0.0000     0.0000     0.0000     0.0000     0.0000     0.0000     0.0000 </r>
        <r>   -11.5704     0.0000     0.0000     0.0000     0.0000     0.0000     0.0000     0.0000     0.0000     0.0000 </r>
        <r>   -11.4914     0.0000     0.0000     0.0000     0.0000     0.0000     0.0000     0.0000     0.0000     0.0000 </r>
        <r>   -11.4123     0.0000     0.0000     0.0000     0.0000     0.0000     0.0000     0.0000     0.0000     0.0000 </r>
        <r>   -11.3333     0.0000     0.0000     0.0000     0.0000     0.0000     0.0000     0.0000     0.0000     0.0000 </r>
        <r>   -11.2542     0.0000     0.0000     0.0000     0.0000     0.0000     0.0000     0.0000     0.0000     0.0000 </r>
        <r>   -11.1752     0.0000     0.0000     0.0000     0.0000     0.0000     0.0000     0.0000     0.0000     0.0000 </r>
        <r>   -11.0961     0.0000     0.0000     0.0000     0.0000     0.0000     0.0000     0.0000     0.0000     0.0000 </r>
        <r>   -11.0171     0.0000     0.0000     0.0000     0.0000     0.0000     0.0000     0.0000     0.0000     0.0000 </r>
        <r>   -10.9380     0.0000     0.0000     0.0000     0.0000     0.0000     0.0000     0.0000     0.0000     0.0000 </r>
        <r>   -10.8589     0.0000     0.0000     0.0000     0.0000     0.0000     0.0000     0.0000     0.0000     0.0000 </r>
        <r>   -10.7799     0.0000     0.0000     0.0000     0.0000     0.0000     0.0000     0.0000     0.0000     0.0000 </r>
        <r>   -10.7008     0.0000     0.0000     0.0000     0.0000     0.0000     0.0000     0.0000     0.0000     0.0000 </r>
        <r>   -10.6218     0.0000     0.0000     0.0000     0.0000     0.0000     0.0000     0.0000     0.0000     0.0000 </r>
        <r>   -10.5427     0.0000     0.0000     0.0000     0.0000     0.0000     0.0000     0.0000     0.0000     0.0000 </r>
        <r>   -10.4637     0.0000     0.0000     0.0000     0.0000     0.0000     0.0000     0.0000     0.0000     0.0000 </r>
        <r>   -10.3846     0.0000     0.0000     0.0000     0.0000     0.0000     0.0000     0.0000     0.0000     0.0000 </r>
        <r>   -10.3056     0.0000     0.0000     0.0000     0.0000     0.0000     0.0000     0.0000     0.0000     0.0000 </r>
        <r>   -10.2265     0.0000     0.0000     0.0000     0.0000     0.0000     0.0000     0.0000     0.0000     0.0000 </r>
        <r>   -10.1474     0.0000     0.0000     0.0000     0.0000     0.0000     0.0000     0.0000     0.0000     0.0000 </r>
        <r>   -10.0684     0.0000     0.0000     0.0000     0.0000     0.0000     0.0000     0.0000     0.0000     0.0000 </r>
        <r>    -9.9893     0.0000     0.0000     0.0000     0.0000     0.0000     0.0000     0.0000     0.0000     0.0000 </r>
        <r>    -9.9103     0.0000     0.0000     0.0000     0.0000     0.0000     0.0000     0.0000     0.0000     0.0000 </r>
        <r>    -9.8312     0.0000     0.0000     0.0000     0.0000     0.0000     0.0000     0.0000     0.0000     0.0000 </r>
        <r>    -9.7522     0.0000     0.0000     0.0000     0.0000     0.0000     0.0000     0.0000     0.0000     0.0000 </r>
        <r>    -9.6731     0.0000     0.0000     0.0000     0.0000     0.0000     0.0000     0.0000     0.0000     0.0000 </r>
        <r>    -9.5941     0.0000     0.0000     0.0000     0.0000     0.0000     0.0000     0.0000     0.0000     0.0000 </r>
        <r>    -9.5150     0.0000     0.0000     0.0000     0.0000     0.0000     0.0000     0.0000     0.0000     0.0000 </r>
        <r>    -9.4359     0.0000     0.0000     0.0000     0.0000     0.0000     0.0000     0.0000     0.0000     0.0000 </r>
        <r>    -9.3569     0.0000     0.0000     0.0000     0.0000     0.0000     0.0000     0.0000     0.0000     0.0000 </r>
        <r>    -9.2778     0.0000     0.0000     0.0000     0.0000     0.0000     0.0000     0.0000     0.0000     0.0000 </r>
        <r>    -9.1988     0.0000     0.0000     0.0000     0.0000     0.0000     0.0000     0.0000     0.0000     0.0000 </r>
        <r>    -9.1197     0.0000     0.0000     0.0000     0.0000     0.0000     0.0000     0.0000     0.0000     0.0000 </r>
        <r>    -9.0407     0.0000     0.0000     0.0000     0.0000     0.0000     0.0000     0.0000     0.0000     0.0000 </r>
        <r>    -8.9616     0.0000     0.0000     0.0000     0.0000     0.0000     0.0000     0.0000     0.0000     0.0000 </r>
        <r>    -8.8825     0.0000     0.0000     0.0000     0.0000     0.0000     0.0000     0.0000     0.0000     0.0000 </r>
        <r>    -8.8035     0.0000     0.0000     0.0000     0.0000     0.0000     0.0000     0.0000     0.0000     0.0000 </r>
        <r>    -8.7244     0.0000     0.0000     0.0000     0.0000     0.0000     0.0000     0.0000     0.0000     0.0000 </r>
        <r>    -8.6454     0.0000     0.0000     0.0000     0.0000     0.0000     0.0000     0.0000     0.0000     0.0000 </r>
        <r>    -8.5663     0.0000     0.0000     0.0000     0.0000     0.0000     0.0000     0.0000     0.0000     0.0000 </r>
        <r>    -8.4873     0.0000     0.0000     0.0000     0.0000     0.0000     0.0000     0.0000     0.0000     0.0000 </r>
        <r>    -8.4082     0.0000     0.0000     0.0000     0.0000     0.0000     0.0000     0.0000     0.0000     0.0000 </r>
        <r>    -8.3292     0.0000     0.0000     0.0000     0.0000     0.0000     0.0000     0.0000     0.0000     0.0000 </r>
        <r>    -8.2501     0.0000     0.0000     0.0000     0.0000     0.0000     0.0000     0.0000     0.0000     0.0000 </r>
        <r>    -8.1710     0.0000     0.0000     0.0000     0.0000     0.0000     0.0000     0.0000     0.0000     0.0000 </r>
        <r>    -8.0920     0.0000     0.0000     0.0000     0.0000     0.0000     0.0000     0.0000     0.0000     0.0000 </r>
        <r>    -8.0129     0.0000     0.0000     0.0000     0.0000     0.0000     0.0000     0.0000     0.0000     0.0000 </r>
        <r>    -7.9339     0.0000     0.0000     0.0000     0.0000     0.0000     0.0000     0.0000     0.0000     0.0000 </r>
        <r>    -7.8548     0.0000     0.0000     0.0000     0.0000     0.0000     0.0000     0.0000     0.0000     0.0000 </r>
        <r>    -7.7758     0.0000     0.0000     0.0000     0.0000     0.0000     0.0000     0.0000     0.0000     0.0000 </r>
        <r>    -7.6967     0.0000     0.0000     0.0000     0.0000     0.0000     0.0000     0.0000     0.0000     0.0000 </r>
        <r>    -7.6177     0.0000     0.0000     0.0000     0.0000     0.0000     0.0000     0.0000     0.0000     0.0000 </r>
        <r>    -7.5386     0.0000     0.0000     0.0000     0.0000     0.0000     0.0000     0.0000     0.0000     0.0000 </r>
        <r>    -7.4595     0.0000     0.0000     0.0000     0.0000     0.0000     0.0000     0.0000     0.0000     0.0000 </r>
        <r>    -7.3805     0.0000     0.0000     0.0000     0.0000     0.0000     0.0000     0.0000     0.0000     0.0000 </r>
        <r>    -7.3014     0.0000     0.0000     0.0000     0.0000     0.0000     0.0000     0.0000     0.0000     0.0000 </r>
        <r>    -7.2224     0.0000     0.0000     0.0000     0.0000     0.0000     0.0000     0.0000     0.0000     0.0000 </r>
        <r>    -7.1433     0.0000     0.0000     0.0000     0.0000     0.0000     0.0000     0.0000     0.0000     0.0000 </r>
        <r>    -7.0643     0.0000     0.0000     0.0000     0.0000     0.0000     0.0000     0.0000     0.0000     0.0000 </r>
        <r>    -6.9852     0.0000     0.0000     0.0000     0.0000     0.0000     0.0000     0.0000     0.0000     0.0000 </r>
        <r>    -6.9062     0.0000     0.0000     0.0000     0.0000     0.0000     0.0000     0.0000     0.0000     0.0000 </r>
        <r>    -6.8271     0.0000     0.0000     0.0000     0.0000     0.0000     0.0000     0.0000     0.0000     0.0000 </r>
        <r>    -6.7480     0.0000     0.0000     0.0000     0.0000     0.0000     0.0000     0.0000     0.0000     0.0000 </r>
        <r>    -6.6690     0.0000     0.0000     0.0000     0.0000     0.0000     0.0000     0.0000     0.0000     0.0000 </r>
        <r>    -6.5899     0.0000     0.0000     0.0000     0.0000     0.0000     0.0000     0.0000     0.0000     0.0000 </r>
        <r>    -6.5109     0.0000     0.0000     0.0000     0.0000     0.0000     0.0000     0.0000     0.0000     0.0000 </r>
        <r>    -6.4318     0.0000     0.0000     0.0000     0.0000     0.0000     0.0000     0.0000     0.0000     0.0000 </r>
        <r>    -6.3528     0.0000     0.0000     0.0000     0.0000     0.0000     0.0000     0.0000     0.0000     0.0000 </r>
        <r>    -6.2737     0.0000     0.0000     0.0000     0.0000     0.0000     0.0000     0.0000     0.0000     0.0000 </r>
        <r>    -6.1947     0.0000     0.0239     0.0239     0.0239     0.0000     0.0000     0.0000     0.0000     0.0000 </r>
        <r>    -6.1156     0.0000     1.9645     1.9645     1.9645     0.0000     0.0000     0.0000     0.0000     0.0000 </r>
        <r>    -6.0365     0.0000     3.6215     3.6215     3.6214     0.0000     0.0000     0.0000     0.0000     0.0000 </r>
        <r>    -5.9575     0.0000     0.1948     0.1948     0.1948     0.0000     0.0000     0.0000     0.0000     0.0000 </r>
        <r>    -5.8784     0.0000     0.0001     0.0001     0.0001     0.0000     0.0000     0.0000     0.0000     0.0000 </r>
        <r>    -5.7994     0.0000     0.0000     0.0000     0.0000     0.0000     0.0000     0.0000     0.0000     0.0000 </r>
        <r>    -5.7203     0.0000     0.0000     0.0000     0.0000     0.0000     0.0000     0.0000     0.0000     0.0000 </r>
        <r>    -5.6413     0.0000     0.0000     0.0000     0.0000     0.0000     0.0000     0.0000     0.0000     0.0000 </r>
        <r>    -5.5622     0.0000     0.0000     0.0000     0.0000     0.0000     0.0000     0.0000     0.0000     0.0000 </r>
        <r>    -5.4832     0.0000     0.0000     0.0000     0.0000     0.0000     0.0000     0.0000     0.0000     0.0000 </r>
        <r>    -5.4041     0.0000     0.0000     0.0000     0.0000     0.0000     0.0000     0.0000     0.0000     0.0000 </r>
        <r>    -5.3250     0.0000     0.0000     0.0000     0.0000     0.0000     0.0000     0.0000     0.0000     0.0000 </r>
        <r>    -5.2460     0.0000     0.0000     0.0000     0.0000     0.0000     0.0000     0.0000     0.0000     0.0000 </r>
        <r>    -5.1669     0.0000     0.0000     0.0000     0.0000     0.0000     0.0000     0.0000     0.0000     0.0000 </r>
        <r>    -5.0879     0.0000     0.0000     0.0000     0.0000     0.0000     0.0000     0.0000     0.0000     0.0000 </r>
        <r>    -5.0088     0.0000     0.0000     0.0000     0.0000     0.0000     0.0000     0.0000     0.0000     0.0000 </r>
        <r>    -4.9298     0.0000     0.0000     0.0000     0.0000     0.0000     0.0000     0.0000     0.0000     0.0000 </r>
        <r>    -4.8507     0.0000     0.0000     0.0000     0.0000     0.0000     0.0000     0.0000     0.0000     0.0000 </r>
        <r>    -4.7717     0.0000     0.0000     0.0000     0.0000     0.0000     0.0000     0.0000     0.0000     0.0000 </r>
        <r>    -4.6926     0.0000     0.0000     0.0000     0.0000     0.0000     0.0000     0.0000     0.0000     0.0000 </r>
        <r>    -4.6135     0.0000     0.0000     0.0000     0.0000     0.0000     0.0000     0.0000     0.0000     0.0000 </r>
        <r>    -4.5345     0.0000     0.0000     0.0000     0.0000     0.0000     0.0000     0.0000     0.0000     0.0000 </r>
        <r>    -4.4554     0.0000     0.0000     0.0000     0.0000     0.0000     0.0000     0.0000     0.0000     0.0000 </r>
        <r>    -4.3764     0.0000     0.0000     0.0000     0.0000     0.0000     0.0000     0.0000     0.0000     0.0000 </r>
        <r>    -4.2973     0.0000     0.0000     0.0000     0.0000     0.0000     0.0000     0.0000     0.0000     0.0000 </r>
        <r>    -4.2183     0.0000     0.0000     0.0000     0.0000     0.0000     0.0000     0.0000     0.0000     0.0000 </r>
        <r>    -4.1392     0.0000     0.0000     0.0000     0.0000     0.0000     0.0000     0.0000     0.0000     0.0000 </r>
        <r>    -4.0602     0.0000     0.0000     0.0000     0.0000     0.0000     0.0000     0.0000     0.0000     0.0000 </r>
        <r>    -3.9811     0.0000     0.0000     0.0000     0.0000     0.0000     0.0000     0.0000     0.0000     0.0000 </r>
        <r>    -3.9020     0.0000     0.0000     0.0000     0.0000     0.0000     0.0000     0.0000     0.0000     0.0000 </r>
        <r>    -3.8230     0.0000     0.0000     0.0000     0.0000     0.0000     0.0000     0.0000     0.0000     0.0000 </r>
        <r>    -3.7439     0.0000     0.0000     0.0000     0.0000     0.0000     0.0000     0.0000     0.0000     0.0000 </r>
        <r>    -3.6649     0.0000     0.0000     0.0000     0.0000     0.0000     0.0000     0.0000     0.0000     0.0000 </r>
        <r>    -3.5858     0.0000     0.0000     0.0000     0.0000     0.0000     0.0000     0.0000     0.0000     0.0000 </r>
        <r>    -3.5068     0.0000     0.0000     0.0000     0.0000     0.0000     0.0000     0.0000     0.0000     0.0000 </r>
        <r>    -3.4277     0.0000     0.0000     0.0000     0.0000     0.0000     0.0000     0.0000     0.0000     0.0000 </r>
        <r>    -3.3487     0.0000     0.0000     0.0000     0.0000     0.0000     0.0000     0.0000     0.0000     0.0000 </r>
        <r>    -3.2696     0.0000     0.0000     0.0000     0.0000     0.0000     0.0000     0.0000     0.0000     0.0000 </r>
        <r>    -3.1905     0.0000     0.0000     0.0000     0.0000     0.0000     0.0000     0.0000     0.0000     0.0000 </r>
        <r>    -3.1115     0.0000     0.0000     0.0000     0.0000     0.0000     0.0000     0.0000     0.0000     0.0000 </r>
        <r>    -3.0324     0.0000     0.0000     0.0000     0.0000     0.0000     0.0000     0.0000     0.0000     0.0000 </r>
        <r>    -2.9534     0.0000     0.0000     0.0000     0.0000     0.0000     0.0000     0.0000     0.0000     0.0000 </r>
        <r>    -2.8743     0.0000     0.0000     0.0000     0.0000     0.0000     0.0000     0.0000     0.0000     0.0000 </r>
        <r>    -2.7953     0.0000     0.0000     0.0000     0.0000     0.0000     0.0000     0.0000     0.0000     0.0000 </r>
        <r>    -2.7162     0.0000     0.0000     0.0000     0.0000     0.0000     0.0000     0.0000     0.0000     0.0000 </r>
        <r>    -2.6372     0.0000     0.0000     0.0000     0.0000     0.0000     0.0000     0.0000     0.0000     0.0000 </r>
        <r>    -2.5581     0.0000     0.0000     0.0000     0.0000     0.0000     0.0000     0.0000     0.0000     0.0000 </r>
[...]
        <r>     3.8454     0.0000     0.0000     0.0000     0.0000     0.0041     0.0041     0.0000     0.0041     0.0000 </r>
        <r>     3.9245     0.0001     0.0003     0.0003     0.0001     0.1416     0.1420     0.0003     0.1376     0.0008 </r>
        <r>     4.0035     0.0001     0.0003     0.0002     0.0001     0.1305     0.1313     0.0005     0.1238     0.0021 </r>
        <r>     4.0826     0.0000     0.0013     0.0000     0.0001     0.0031     0.0033     0.0115     0.0029     0.0717 </r>
        <r>     4.1616     0.0000     0.0016     0.0000     0.0002     0.0000     0.0002     0.0153     0.0000     0.0929 </r>
        <r>     4.2407     0.0000     0.0010     0.0000     0.0001     0.0000     0.0000     0.0988     0.0001     0.2286 </r>
        <r>     4.3197     0.0000     0.0018     0.0003     0.0005     0.0000     0.0000     0.6266     0.0001     0.4995 </r>
        <r>     4.3988     0.0001     0.0033     0.0030     0.0017     0.0000     0.0001     0.2251     0.0001     0.0730 </r>
        <r>     4.4779     0.0040     0.0603     0.0681     0.0448     0.0017     0.0024     0.0030     0.0016     0.0038 </r>
        <r>     4.5569     0.0085     0.0396     0.0661     0.0751     0.0023     0.0030     0.0014     0.0016     0.0032 </r>
        <r>     4.6360     0.0031     0.0009     0.0029     0.0058     0.0001     0.0001     0.0001     0.0000     0.0001 </r>
        <r>     4.7150     0.0630     0.0018     0.0000     0.0091     0.0001     0.0000     0.0000     0.0000     0.0003 </r>
        <r>     4.7941     0.0441     0.0013     0.0000     0.0064     0.0001     0.0000     0.0000     0.0000     0.0002 </r>
        <r>     4.8731     0.0007     0.0000     0.0000     0.0001     0.0000     0.0000     0.0000     0.0000     0.0000 </r>
        <r>     4.9522     0.0000     0.0000     0.0000     0.0000     0.0000     0.0000     0.0000     0.0000     0.0000 </r>
        <r>     5.0312     0.0000     0.0000     0.0000     0.0000     0.0000     0.0000     0.0000     0.0000     0.0000 </r>
        <r>     5.1103     0.0000     0.0000     0.0000     0.0000     0.0000     0.0000     0.0000     0.0000     0.0000 </r>
        <r>     5.1894     0.0000     0.0000     0.0000     0.0000     0.0000     0.0000     0.0000     0.0000     0.0000 </r>
        <r>     5.2684     0.0000     0.0000     0.0000     0.0000     0.0000     0.0000     0.0000     0.0000     0.0000 </r>
        <r>     5.3475     0.0000     0.0000     0.0000     0.0000     0.0000     0.0000     0.0000     0.0000     0.0000 </r>
        <r>     5.4265     0.0000     0.0000     0.0000     0.0000     0.0000     0.0000     0.0000     0.0000     0.0000 </r>
        <r>     5.5056     0.0000     0.0000     0.0000     0.0000     0.0000     0.0000     0.0000     0.0000     0.0000 </r>
        <r>     5.5846     0.0000     0.0000     0.0000     0.0000     0.0000     0.0000     0.0000     0.0000     0.0000 </r>
        <r>     5.6637     0.0000     0.0000     0.0000     0.0001     0.0000     0.0028     0.0000     0.0039     0.0000 </r>
        <r>     5.7427     0.0002     0.0000     0.0020     0.0038     0.0010     0.1691     0.0007     0.2356     0.0004 </r>
        <r>     5.8218     0.0003     0.0000     0.0029     0.0055     0.0014     0.2464     0.0010     0.3434     0.0006 </r>
        <r>     5.9009     0.0001     0.0004     0.0001     0.0004     0.0017     0.0101     0.0000     0.0142     0.0003 </r>
        <r>     5.9799     0.0032     0.0213     0.0017     0.0100     0.0990     0.0043     0.0001     0.0108     0.0151 </r>
        <r>     6.0590     0.0045     0.0302     0.0024     0.0141     0.1403     0.0061     0.0001     0.0153     0.0214 </r>
        <r>     6.1380     0.0002     0.0012     0.0001     0.0006     0.0055     0.0002     0.0000     0.0006     0.0008 </r>
        <r>     6.2171     0.0000     0.0000     0.0000     0.0000     0.0000     0.0000     0.0002     0.0001     0.0000 </r>
        <r>     6.2961     0.0038     0.0009     0.0042     0.0007     0.0000     0.0085     0.0366     0.0172     0.0003 </r>
        <r>     6.3752     0.0132     0.0032     0.0145     0.0025     0.0001     0.0294     0.1265     0.0595     0.0009 </r>
        <r>     6.4542     0.0014     0.0003     0.0016     0.0003     0.0000     0.0032     0.0137     0.0064     0.0001 </r>
        <r>     6.5333     0.0000     0.0000     0.0000     0.0000     0.0000     0.0000     0.0000     0.0000     0.0000 </r>
        <r>     6.6124     0.0000     0.0000     0.0000     0.0000     0.0000     0.0000     0.0000     0.0000     0.0000 </r>
        <r>     6.6914     0.0000     0.0000     0.0000     0.0000     0.0000     0.0000     0.0000     0.0000     0.0000 </r>
        <r>     6.7705     0.0000     0.0000     0.0000     0.0000     0.0000     0.0000     0.0000     0.0000     0.0000 </r>
        <r>     6.8495     0.0000     0.0000     0.0000     0.0000     0.0000     0.0000     0.0000     0.0000     0.0000 </r>
        <r>     6.9286     0.0000     0.0000     0.0000     0.0000     0.0000     0.0000     0.0000     0.0000     0.0000 </r>
        <r>     7.0076     0.0000     0.0000     0.0000     0.0000     0.0000     0.0000     0.0000     0.0000     0.0000 </r>
        <r>     7.0867     0.0000     0.0000     0.0000     0.0000     0.0000     0.0000     0.0000     0.0000     0.0000 </r>
        <r>     7.1657     0.0000     0.0000     0.0000     0.0000     0.0000     0.0000     0.0000     0.0000     0.0000 </r>
        <r>     7.2448     0.0000     0.0000     0.0000     0.0000     0.0000     0.0000     0.0000     0.0000     0.0000 </r>
        <r>     7.3239     0.0000     0.0000     0.0000     0.0000     0.0000     0.0000     0.0000     0.0000     0.0000 </r>
        <r>     7.4029     0.0000     0.0000     0.0000     0.0000     0.0000     0.0000     0.0000     0.0000     0.0000 </r>
       </set>
      </set>
     </set>
    </array>
   </partial>
  </dos>
  <projected>
   <eigenvalues>
    <array>
     <dimension dim="1">band</dimension>
     <dimension dim="2">kpoint</dimension>
     <dimension dim="3">spin</dimension>
     <field>eigene</field>
     <field>occ</field>
     <set>
      <set comment="spin 1">
       <set comment="kpoint 1">
        <r>  -15.2357    1.0000 </r>
        <r>   -6.1013    1.0000 </r>
        <r>   -6.1013    1.0000 </r>
        <r>   -6.1013    1.0000 </r>
        <r>   -0.5222    0.0000 </r>
        <r>    0.9245    0.0000 </r>
        <r>    0.9247    0.0000 </r>
        <r>    1.1915    0.0000 </r>
        <r>    1.1940    0.0000 </r>
        <r>    1.1968    0.0000 </r>
        <r>    1.3135    0.0000 </r>
        <r>    1.5955    0.0000 </r>
        <r>    1.5958    0.0000 </r>
        <r>    1.5959    0.0000 </r>
        <r>    2.5458    0.0000 </r>
        <r>    2.5464    0.0000 </r>
        <r>    2.7349    0.0000 </r>
        <r>    2.7418    0.0000 </r>
        <r>    2.7506    0.0000 </r>
        <r>    2.8487    0.0000 </r>
        <r>    2.8489    0.0000 </r>
        <r>    2.8603    0.0000 </r>
        <r>    3.1983    0.0000 </r>
        <r>    3.7334    0.0000 </r>
        <r>    3.7340    0.0000 </r>
        <r>    3.7341    0.0000 </r>
        <r>    3.8306    0.0000 </r>
        <r>    3.8328    0.0000 </r>
        <r>    3.8653    0.0000 </r>
        <r>    4.3842    0.0000 </r>
        <r>    4.4014    0.0000 </r>
        <r>    4.4269    0.0000 </r>
        <r>    4.4480    0.0000 </r>
        <r>    5.3157    0.0000 </r>
        <r>    5.3163    0.0000 </r>
        <r>    5.6760    0.0000 </r>
       </set>
      </set>
      <set comment="spin 2">
       <set comment="kpoint 1">
        <r>  -14.0167    1.0000 </r>
        <r>   -4.8396    0.3333 </r>
        <r>   -4.8396    0.3333 </r>
        <r>   -4.8396    0.3333 </r>
        <r>   -0.2949    0.0000 </r>
        <r>    1.1593    0.0000 </r>
        <r>    1.1594    0.0000 </r>
        <r>    1.3907    0.0000 </r>
        <r>    1.3936    0.0000 </r>
        <r>    1.4118    0.0000 </r>
        <r>    1.4456    0.0000 </r>
        <r>    2.0309    0.0000 </r>
        <r>    2.0311    0.0000 </r>
        <r>    2.0314    0.0000 </r>
        <r>    2.7294    0.0000 </r>
        <r>    2.7299    0.0000 </r>
        <r>    2.8459    0.0000 </r>
        <r>    2.8468    0.0000 </r>
        <r>    2.8489    0.0000 </r>
        <r>    3.0412    0.0000 </r>
        <r>    3.0419    0.0000 </r>
        <r>    3.0467    0.0000 </r>
        <r>    3.3499    0.0000 </r>
        <r>    3.9217    0.0000 </r>
        <r>    3.9225    0.0000 </r>
        <r>    3.9229    0.0000 </r>
        <r>    4.0879    0.0000 </r>
        <r>    4.2533    0.0000 </r>
        <r>    4.2995    0.0000 </r>
        <r>    4.4583    0.0000 </r>
        <r>    4.4780    0.0000 </r>
        <r>    4.5010    0.0000 </r>
        <r>    4.7066    0.0000 </r>
        <r>    5.7516    0.0000 </r>
        <r>    5.9881    0.0000 </r>
        <r>    6.3249    0.0000 </r>
       </set>
      </set>
     </set>
    </array>
   </eigenvalues>
   <array>
    <dimension dim="1">ion</dimension>
    <dimension dim="2">band</dimension>
    <dimension dim="3">kpoint</dimension>
    <dimension dim="4">spin</dimension>
    <field>    s</field>
    <field>   py</field>
    <field>   pz</field>
    <field>   px</field>
    <field>  dxy</field>
    <field>  dyz</field>
    <field>  dz2</field>
    <field>  dxz</field>
    <field>x2-y2</field>
    <set>
     <set comment="spin1">
      <set comment="kpoint 1">
       <set comment="band 1">
        <r>  0.7135  0.0000  0.0000  0.0000  0.0000  0.0000  0.0000  0.0000  0.0000 </r>
       </set>
       <set comment="band 2">
        <r>  0.0000  0.0196  0.4393  0.0000  0.0000  0.0000  0.0000  0.0000  0.0000 </r>
       </set>
       <set comment="band 3">
        <r>  0.0000  0.3906  0.0176  0.0507  0.0000  0.0000  0.0000  0.0000  0.0000 </r>
       </set>
       <set comment="band 4">
        <r>  0.0000  0.0487  0.0020  0.4082  0.0000  0.0000  0.0000  0.0000  0.0000 </r>
       </set>
       <set comment="band 5">
        <r>  0.0231  0.0000  0.0000  0.0000  0.0000  0.0000  0.0000  0.0000  0.0000 </r>
       </set>
       <set comment="band 6">
        <r>  0.0000  0.0000  0.0000  0.0000  0.0000  0.0000  0.0080  0.0000  0.0083 </r>
       </set>
       <set comment="band 7">
        <r>  0.0000  0.0000  0.0000  0.0000  0.0000  0.0000  0.0081  0.0000  0.0079 </r>
       </set>
       <set comment="band 8">
        <r>  0.0000  0.0103  0.0165  0.0050  0.0000  0.0000  0.0000  0.0000  0.0000 </r>
       </set>
       <set comment="band 9">
        <r>  0.0002  0.0112  0.0000  0.0199  0.0001  0.0000  0.0000  0.0000  0.0000 </r>
       </set>
       <set comment="band 10">
        <r>  0.0005  0.0099  0.0148  0.0063  0.0000  0.0000  0.0000  0.0000  0.0000 </r>
       </set>
       <set comment="band 11">
        <r>  0.0217  0.0000  0.0003  0.0006  0.0000  0.0000  0.0000  0.0000  0.0000 </r>
       </set>
       <set comment="band 12">
        <r>  0.0000  0.0000  0.0000  0.0000  0.0366  0.0058  0.0000  0.0016  0.0000 </r>
       </set>
       <set comment="band 13">
        <r>  0.0000  0.0000  0.0000  0.0000  0.0070  0.0352  0.0000  0.0018  0.0000 </r>
       </set>
       <set comment="band 14">
        <r>  0.0000  0.0000  0.0000  0.0000  0.0004  0.0031  0.0000  0.0408  0.0000 </r>
       </set>
       <set comment="band 15">
        <r>  0.0000  0.0000  0.0000  0.0000  0.0000  0.0000  0.0026  0.0000  0.0236 </r>
       </set>
       <set comment="band 16">
        <r>  0.0000  0.0000  0.0000  0.0000  0.0000  0.0000  0.0232  0.0000  0.0024 </r>
       </set>
       <set comment="band 17">
        <r>  0.0000  0.0001  0.0000  0.0007  0.0000  0.0000  0.0000  0.0000  0.0000 </r>
       </set>
       <set comment="band 18">
        <r>  0.0000  0.0011  0.0011  0.0012  0.0000  0.0000  0.0002  0.0000  0.0000 </r>
       </set>
       <set comment="band 19">
        <r>  0.0000  0.0008  0.0003  0.0026  0.0000  0.0000  0.0000  0.0000  0.0000 </r>
       </set>
       <set comment="band 20">
        <r>  0.0000  0.0004  0.0152  0.0162  0.0000  0.0000  0.0001  0.0000  0.0001 </r>
       </set>
       <set comment="band 21">
        <r>  0.0002  0.0134  0.0117  0.0052  0.0000  0.0000  0.0001  0.0000  0.0000 </r>
       </set>
       <set comment="band 22">
        <r>  0.0000  0.0195  0.0068  0.0086  0.0000  0.0000  0.0000  0.0000  0.0000 </r>
       </set>
       <set comment="band 23">
        <r>  0.0243  0.0002  0.0000  0.0000  0.0000  0.0000  0.0000  0.0000  0.0000 </r>
       </set>
       <set comment="band 24">
        <r>  0.0000  0.0000  0.0000  0.0000  0.0201  0.0110  0.0000  0.0000  0.0000 </r>
       </set>
       <set comment="band 25">
        <r>  0.0000  0.0000  0.0000  0.0000  0.0108  0.0200  0.0000  0.0005  0.0006 </r>
       </set>
       <set comment="band 26">
        <r>  0.0000  0.0000  0.0000  0.0000  0.0004  0.0004  0.0000  0.0301  0.0009 </r>
       </set>
       <set comment="band 27">
        <r>  0.0000  0.0000  0.0000  0.0001  0.0000  0.0000  0.0162  0.0003  0.0647 </r>
       </set>
       <set comment="band 28">
        <r>  0.0000  0.0000  0.0000  0.0000  0.0001  0.0000  0.0662  0.0001  0.0164 </r>
       </set>
       <set comment="band 29">
        <r>  0.0000  0.0000  0.0001  0.0002  0.0000  0.0000  0.0003  0.0000  0.0001 </r>
       </set>
       <set comment="band 30">
        <r>  0.0017  0.0000  0.0027  0.0025  0.0000  0.0000  0.0000  0.0003  0.0000 </r>
       </set>
       <set comment="band 31">
        <r>  0.0003  0.0026  0.0023  0.0013  0.0038  0.0002  0.0000  0.0021  0.0001 </r>
       </set>
       <set comment="band 32">
        <r>  0.0026  0.0025  0.0011  0.0003  0.0000  0.0001  0.0001  0.0006  0.0000 </r>
       </set>
       <set comment="band 33">
        <r>  0.0040  0.0007  0.0001  0.0023  0.0000  0.0003  0.0000  0.0000  0.0001 </r>
       </set>
       <set comment="band 34">
        <r>  0.0000  0.0000  0.0000  0.0000  0.0124  0.0763  0.0000  0.0049  0.0000 </r>
       </set>
       <set comment="band 35">
        <r>  0.0007  0.0003  0.0001  0.0003  0.0692  0.0101  0.0001  0.0003  0.0000 </r>
       </set>
       <set comment="band 36">
        <r>  0.0001  0.0002  0.0006  0.0001  0.0001  0.0041  0.0008  0.0490  0.0002 </r>
       </set>
      </set>
     </set>
     <set comment="spin2">
      <set comment="kpoint 1">
       <set comment="band 1">
        <r>  0.7010  0.0000  0.0000  0.0000  0.0000  0.0000  0.0000  0.0000  0.0000 </r>
       </set>
       <set comment="band 2">
        <r>  0.0000  0.0008  0.0275  0.4127  0.0000  0.0000  0.0000  0.0000  0.0000 </r>
       </set>
       <set comment="band 3">
        <r>  0.0000  0.0005  0.4133  0.0272  0.0000  0.0000  0.0000  0.0000  0.0000 </r>
       </set>
       <set comment="band 4">
        <r>  0.0000  0.4396  0.0002  0.0011  0.0000  0.0000  0.0000  0.0000  0.0000 </r>
       </set>
       <set comment="band 5">
        <r>  0.0175  0.0000  0.0000  0.0000  0.0000  0.0000  0.0000  0.0000  0.0000 </r>
       </set>
       <set comment="band 6">
        <r>  0.0000  0.0000  0.0000  0.0000  0.0000  0.0000  0.0046  0.0000  0.0036 </r>
       </set>
       <set comment="band 7">
        <r>  0.0000  0.0000  0.0000  0.0000  0.0000  0.0000  0.0036  0.0000  0.0045 </r>
       </set>
       <set comment="band 8">
        <r>  0.0000  0.0003  0.0171  0.0107  0.0000  0.0000  0.0000  0.0000  0.0000 </r>
       </set>
       <set comment="band 9">
        <r>  0.0006  0.0247  0.0016  0.0008  0.0000  0.0000  0.0000  0.0000  0.0000 </r>
       </set>
       <set comment="band 10">
        <r>  0.0054  0.0008  0.0072  0.0124  0.0000  0.0000  0.0000  0.0000  0.0000 </r>
       </set>
       <set comment="band 11">
        <r>  0.0147  0.0024  0.0017  0.0040  0.0000  0.0000  0.0000  0.0000  0.0000 </r>
       </set>
       <set comment="band 12">
        <r>  0.0000  0.0000  0.0000  0.0000  0.0032  0.0194  0.0000  0.0050  0.0000 </r>
       </set>
       <set comment="band 13">
        <r>  0.0000  0.0000  0.0000  0.0000  0.0000  0.0059  0.0000  0.0218  0.0000 </r>
       </set>
       <set comment="band 14">
        <r>  0.0000  0.0000  0.0000  0.0000  0.0246  0.0024  0.0000  0.0009  0.0000 </r>
       </set>
       <set comment="band 15">
        <r>  0.0000  0.0000  0.0000  0.0000  0.0000  0.0000  0.0138  0.0000  0.0002 </r>
       </set>
       <set comment="band 16">
        <r>  0.0000  0.0000  0.0000  0.0000  0.0000  0.0000  0.0002  0.0000  0.0137 </r>
       </set>
       <set comment="band 17">
        <r>  0.0000  0.0000  0.0001  0.0001  0.0000  0.0000  0.0000  0.0000  0.0000 </r>
       </set>
       <set comment="band 18">
        <r>  0.0000  0.0000  0.0002  0.0000  0.0000  0.0000  0.0000  0.0000  0.0000 </r>
       </set>
       <set comment="band 19">
        <r>  0.0000  0.0002  0.0000  0.0002  0.0000  0.0000  0.0000  0.0000  0.0000 </r>
       </set>
       <set comment="band 20">
        <r>  0.0000  0.0289  0.0057  0.0034  0.0000  0.0000  0.0000  0.0000  0.0000 </r>
       </set>
       <set comment="band 21">
        <r>  0.0000  0.0019  0.0022  0.0346  0.0000  0.0000  0.0000  0.0000  0.0000 </r>
       </set>
       <set comment="band 22">
        <r>  0.0000  0.0075  0.0295  0.0006  0.0000  0.0000  0.0000  0.0001  0.0000 </r>
       </set>
       <set comment="band 23">
        <r>  0.0239  0.0000  0.0001  0.0000  0.0000  0.0000  0.0000  0.0000  0.0000 </r>
       </set>
       <set comment="band 24">
        <r>  0.0000  0.0000  0.0000  0.0000  0.0003  0.0045  0.0000  0.0166  0.0001 </r>
       </set>
       <set comment="band 25">
        <r>  0.0000  0.0000  0.0000  0.0000  0.0213  0.0007  0.0000  0.0000  0.0000 </r>
       </set>
       <set comment="band 26">
        <r>  0.0000  0.0000  0.0000  0.0000  0.0004  0.0169  0.0000  0.0046  0.0000 </r>
       </set>
       <set comment="band 27">
        <r>  0.0000  0.0002  0.0000  0.0000  0.0000  0.0000  0.0021  0.0000  0.0131 </r>
       </set>
       <set comment="band 28">
        <r>  0.0000  0.0002  0.0000  0.0000  0.0000  0.0000  0.0135  0.0000  0.0480 </r>
       </set>
       <set comment="band 29">
        <r>  0.0000  0.0000  0.0000  0.0001  0.0000  0.0000  0.0618  0.0000  0.0154 </r>
       </set>
       <set comment="band 30">
        <r>  0.0000  0.0044  0.0036  0.0021  0.0000  0.0000  0.0001  0.0000  0.0000 </r>
       </set>
       <set comment="band 31">
        <r>  0.0002  0.0037  0.0047  0.0005  0.0002  0.0003  0.0000  0.0003  0.0005 </r>
       </set>
       <set comment="band 32">
        <r>  0.0008  0.0000  0.0028  0.0074  0.0001  0.0001  0.0001  0.0000  0.0000 </r>
       </set>
       <set comment="band 33">
        <r>  0.0087  0.0002  0.0000  0.0013  0.0000  0.0000  0.0000  0.0000  0.0000 </r>
       </set>
       <set comment="band 34">
        <r>  0.0000  0.0000  0.0004  0.0008  0.0002  0.0339  0.0001  0.0472  0.0001 </r>
       </set>
       <set comment="band 35">
        <r>  0.0006  0.0042  0.0003  0.0020  0.0195  0.0008  0.0000  0.0021  0.0030 </r>
       </set>
       <set comment="band 36">
        <r>  0.0015  0.0004  0.0016  0.0003  0.0000  0.0032  0.0140  0.0066  0.0001 </r>
       </set>
      </set>
     </set>
    </set>
   </array>
  </projected>
 </calculation>
 <structure name="finalpos" >
  <crystal>
   <varray name="basis" >
    <v>      10.00000000       0.00000000       0.00000000 </v>
    <v>       0.00000000      10.00000000       0.00000000 </v>
    <v>       0.00000000       0.00000000      10.00000000 </v>
   </varray>
   <i name="volume">   1000.00000000 </i>
   <varray name="rec_basis" >
    <v>       0.10000000       0.00000000       0.00000000 </v>
    <v>       0.00000000       0.10000000       0.00000000 </v>
    <v>       0.00000000       0.00000000       0.10000000 </v>
   </varray>
  </crystal>
  <varray name="positions" >
   <v>       0.50000000       0.50000000       0.50000000 </v>
  </varray>
 </structure>
</modeling>
