       N       E                     dE             d eps       ncg     rms          ort
DAV:   1     0.156906865092E+03    0.15691E+03   -0.40186E+03    36   0.260E+02
DAV:   2     0.110396965972E+03   -0.46510E+02   -0.46324E+02    36   0.561E+01
DAV:   3     0.447630771423E+02   -0.65634E+02   -0.64169E+02    36   0.236E+01
DAV:   4    -0.297715171630E+00   -0.45061E+02   -0.45053E+02    36   0.517E+01
DAV:   5    -0.540574871203E+01   -0.51080E+01   -0.51078E+01    36   0.154E+01
SDA:   6     0.428757011075E+02    0.48281E+02   -0.65329E+02    36   0.163E+03 0.000E+00
DMP:   7     0.592325860173E+02    0.16357E+02   -0.10219E+03    36   0.331E+03-0.198E+03
DMP:   8     0.735723526006E+02    0.14340E+02   -0.34495E+02    36   0.152E+03-0.171E+03
DMP:   9     0.348460565147E+02   -0.38726E+02   -0.36526E+02    36   0.111E+03-0.521E+02
DMP:  10     0.124136756461E+02   -0.22432E+02   -0.90209E+01    36   0.297E+02-0.186E+02
DMP:  11     0.628939655752E+01   -0.61243E+01   -0.72567E+01    36   0.147E+02 0.912E+01
DMP:  12     0.141530240004E+02    0.78636E+01   -0.14044E+02    36   0.379E+02-0.724E+01
DMP:  13     0.286408085045E+02    0.14488E+02   -0.59416E+02    36   0.187E+03-0.101E+03
DMP:  14     0.153677484609E+02   -0.13273E+02   -0.10139E+02    36   0.412E+02-0.415E+02
DMP:  15     0.409997697156E+01   -0.11268E+02   -0.30540E+02    36   0.216E+03-0.365E+03
DMP:  16     0.913107597895E+00   -0.31869E+01   -0.23363E+01    36   0.425E+01 0.415E+01
DMP:  17     0.135229175020E+02    0.12610E+02   -0.10609E+02    36   0.298E+02-0.869E+01
DMP:  18     0.551980830993E+02    0.41675E+02   -0.35323E+02    36   0.107E+03-0.500E+02
DMP:  19     0.221318311794E+02   -0.33066E+02   -0.12927E+02    36   0.588E+02-0.694E+02
DMP:  20     0.211392075112E+01   -0.20018E+02   -0.89936E+00    36   0.651E+01-0.112E+02
DMP:  21     0.151960370172E+01   -0.59432E+00   -0.18568E+01    36   0.430E+01 0.902E+00
DMP:  22     0.327368547390E+00   -0.11922E+01   -0.20417E+01    36   0.314E+01 0.516E+01
DMP:  23     0.121263390593E+02    0.11799E+02   -0.72093E+01    36   0.181E+02-0.264E+00
DMP:  24     0.260605528183E+02    0.13934E+02   -0.35854E+03    36   0.119E+04-0.781E+03
DMP:  25     0.131574095816E+02   -0.12903E+02   -0.53653E+01    36   0.231E+02-0.253E+02
DMP:  26     0.220299264575E+01   -0.10954E+02   -0.16350E+01    36   0.655E+01-0.646E+01
DMP:  27     0.794959311778E+00   -0.14080E+01   -0.19611E+01    36   0.382E+01 0.285E+01
DMP:  28     0.667710835766E+01    0.58821E+01   -0.10340E+03    36   0.331E+03-0.189E+03
DMP:  29     0.138745919593E+02    0.71975E+01   -0.14095E+03    36   0.492E+03-0.365E+03
DMP:  30     0.124112000870E+02   -0.14634E+01   -0.56624E+01    36   0.205E+02-0.165E+02
DMP:  31     0.181957563903E+02    0.57846E+01   -0.10357E+02    36   0.372E+02-0.296E+02
DMP:  32     0.137449276493E+02   -0.44508E+01   -0.69161E+01    36   0.254E+02-0.213E+02
DMP:  33     0.186882133308E+02    0.49433E+01   -0.18936E+02    36   0.677E+02-0.533E+02
DMP:  34     0.146820494423E+02   -0.40062E+01   -0.81579E+01    36   0.291E+02-0.227E+02
DMP:  35     0.232670550648E+01   -0.12355E+02   -0.32836E+01    36   0.365E+02-0.740E+02
DMP:  36     0.123107493364E+01   -0.10956E+01   -0.20156E+01    36   0.430E+01 0.194E+01
DMP:  37     0.250477869338E+01    0.12737E+01   -0.46629E+01    36   0.135E+02-0.478E+01
DMP:  38     0.502455582300E+00   -0.20023E+01   -0.99187E+00    36   0.372E+01-0.325E+01
DMP:  39    -0.837508570822E+00   -0.13400E+01   -0.88816E+01    36   0.128E+02 0.246E+02
DMP:  40     0.299121410165E+01    0.38287E+01   -0.74586E+02    36   0.206E+03-0.519E+02
DMP:  41     0.712865778508E+00   -0.22783E+01   -0.87546E+00    36   0.476E+01-0.673E+01
DMP:  42     0.658619984827E-01   -0.64700E+00   -0.13131E+01    36   0.275E+01 0.139E+01
DMP:  43     0.109568783977E+02    0.10891E+02   -0.62034E+01    36   0.175E+02-0.513E+01
DMP:  44     0.506605174176E+02    0.39704E+02   -0.30289E+02    36   0.993E+02-0.617E+02
DMP:  45     0.181846299840E+02   -0.32476E+02   -0.74039E+01    36   0.367E+02-0.477E+02
DMP:  46     0.108877883088E+01   -0.17096E+02   -0.54163E+00    36   0.440E+01-0.798E+01
DMP:  47     0.710491628885E+00   -0.37829E+00   -0.15992E+01    36   0.356E+01 0.116E+01
DMP:  48    -0.391171664204E+00   -0.11017E+01   -0.51362E+00    36   0.722E+00 0.147E+01
DMP:  49     0.219519311670E+01    0.25864E+01   -0.28540E+01    36   0.832E+01-0.311E+01
DMP:  50     0.160766141111E+00   -0.20344E+01   -0.33144E+00    36   0.263E+01-0.470E+01
DMP:  51    -0.126082986756E+00   -0.28685E+00   -0.81481E+00    36   0.179E+01 0.640E+00
DMP:  52     0.115586251839E+02    0.11685E+02   -0.58484E+01    36   0.159E+02-0.341E+01
DMP:  53     0.521047059043E+02    0.40546E+02   -0.24470E+02    36   0.833E+02-0.580E+02
DMP:  54     0.184384509241E+02   -0.33666E+02   -0.80551E+01    36   0.391E+02-0.496E+02
DMP:  55     0.101232320149E+01   -0.17426E+02   -0.57023E+00    36   0.403E+01-0.683E+01
DMP:  56     0.883930821016E+00   -0.12839E+00   -0.13512E+01    36   0.310E+01 0.720E+00
DMP:  57    -0.410259851715E-01   -0.92496E+00   -0.61164E+00    36   0.105E+01 0.126E+01
DMP:  58     0.190162605261E+01    0.19427E+01   -0.27358E+01    36   0.753E+01-0.181E+01
DMP:  59     0.149852979736E+00   -0.17518E+01   -0.42493E+00    36   0.256E+01-0.392E+01
DMP:  60    -0.197178827231E+00   -0.34703E+00   -0.74232E+00    36   0.155E+01 0.803E+00
DMP:  61     0.109039270443E+02    0.11101E+02   -0.67568E+01    36   0.185E+02-0.414E+01
DMP:  62     0.509563844751E+02    0.40052E+02   -0.23784E+02    36   0.804E+02-0.547E+02
DMP:  63     0.176291365724E+02   -0.33327E+02   -0.69560E+01    36   0.348E+02-0.457E+02
DMP:  64     0.948445315786E+00   -0.16681E+02   -0.46403E+00    36   0.357E+01-0.632E+01
DMP:  65     0.540430336165E+00   -0.40801E+00   -0.13891E+01    36   0.310E+01 0.983E+00
DMP:  66    -0.452411138815E+00   -0.99284E+00   -0.49745E+00    36   0.683E+00 0.147E+01
DMP:  67     0.210546187709E+01    0.25579E+01   -0.25805E+01    36   0.743E+01-0.256E+01
DMP:  68     0.683893869837E-02   -0.20986E+01   -0.26654E+00    36   0.212E+01-0.381E+01
DMP:  69    -0.229356142465E+00   -0.23620E+00   -0.68394E+00    36   0.150E+01 0.538E+00
DMP:  70     0.111536549909E+02    0.11383E+02   -0.26570E+02    36   0.742E+02-0.204E+02
DMP:  71     0.508099903520E+02    0.39656E+02   -0.25842E+02    36   0.872E+02-0.591E+02
DMP:  72     0.178419502279E+02   -0.32968E+02   -0.72501E+01    36   0.359E+02-0.465E+02
DMP:  73     0.107371416040E+01   -0.16768E+02   -0.56530E+00    36   0.419E+01-0.726E+01
DMP:  74     0.131579387754E+02    0.12084E+02   -0.10052E+03    36   0.269E+03-0.456E+02
DMP:  75     0.185048655275E+02    0.53469E+01   -0.11842E+02    36   0.382E+02-0.224E+02
DMP:  76     0.174579458541E+02   -0.10469E+01   -0.71583E+01    36   0.306E+02-0.332E+02
DMP:  77     0.150298624939E+02   -0.24281E+01   -0.83619E+01    36   0.275E+02-0.172E+02
DMP:  78     0.193679963331E+02    0.43381E+01   -0.15540E+02    36   0.511E+02-0.321E+02
DMP:  79     0.145233192342E+02   -0.48447E+01   -0.77026E+01    36   0.270E+02-0.203E+02
DMP:  80     0.362186182166E+01   -0.10901E+02   -0.25692E+02    36   0.236E+03-0.449E+03
DMP:  81     0.646852610225E+00   -0.29750E+01   -0.16876E+01    36   0.330E+01 0.241E+01
DMP:  82     0.122723135333E+01    0.58038E+00   -0.21796E+01    36   0.823E+01-0.727E+01
DMP:  83    -0.194035759853E-01   -0.12466E+01   -0.44347E+00    36   0.201E+01-0.235E+01
DMP:  84    -0.431834898421E+00   -0.41243E+00   -0.49370E+00    36   0.899E+00 0.878E+00
DMP:  85     0.112378632070E+02    0.11670E+02   -0.61702E+01    36   0.165E+02-0.280E+01
DMP:  86     0.398083616974E+02    0.28570E+02   -0.10612E+04    36   0.332E+04-0.176E+04
DMP:  87     0.158293743190E+02   -0.23979E+02   -0.64072E+01    36   0.303E+02-0.374E+02
DMP:  88     0.153671581932E+01   -0.14293E+02   -0.12150E+01    36   0.507E+01-0.533E+01
DMP:  89     0.566699694863E+00   -0.97002E+00   -0.16884E+01    36   0.333E+01 0.233E+01
DMP:  90    -0.400446928774E+00   -0.96715E+00   -0.32348E+00    36   0.595E+00 0.559E+00
DMP:  91     0.120711243276E+02    0.12472E+02   -0.27776E+02    36   0.772E+02-0.204E+02
DMP:  92     0.526756770900E+02    0.40605E+02   -0.24818E+02    36   0.838E+02-0.571E+02
DMP:  93     0.180910968787E+02   -0.34585E+02   -0.75748E+01    36   0.370E+02-0.473E+02
DMP:  94     0.109071610464E+01   -0.17000E+02   -0.70160E+00    36   0.393E+01-0.571E+01
DMP:  95     0.129139804930E+02    0.11823E+02   -0.36353E+02    36   0.932E+02-0.606E+01
DMP:  96     0.185585354006E+02    0.56446E+01   -0.12089E+02    36   0.389E+02-0.227E+02
DMP:  97     0.163373835833E+02   -0.22212E+01   -0.65876E+01    36   0.279E+02-0.300E+02
DMP:  98     0.149821209837E+02   -0.13553E+01   -0.84022E+01    36   0.276E+02-0.173E+02
DMP:  99     0.184631837697E+02    0.34811E+01   -0.99999E+01    36   0.321E+02-0.186E+02
DMP: 100     0.146325206911E+02   -0.38307E+01   -0.78566E+01    36   0.277E+02-0.210E+02
DMP: 101     0.168890671081E+02    0.22565E+01   -0.35115E+02    36   0.135E+03-0.124E+03
DMP: 102     0.146960618800E+02   -0.21930E+01   -0.87611E+01    36   0.304E+02-0.222E+02
DMP: 103     0.169046999180E+02    0.22086E+01   -0.93241E+01    36   0.313E+02-0.209E+02
DMP: 104     0.145385261506E+02   -0.23662E+01   -0.83108E+01    36   0.295E+02-0.228E+02
DMP: 105     0.172721205465E+02    0.27336E+01   -0.99405E+01    36   0.343E+02-0.246E+02
DMP: 106     0.148013059505E+02   -0.24708E+01   -0.17491E+02    36   0.600E+02-0.425E+02
DMP: 107     0.173380209353E+02    0.25367E+01   -0.99313E+01    36   0.330E+02-0.214E+02
DMP: 108     0.116904362383E+02   -0.56476E+01   -0.12311E+03    36   0.441E+03-0.348E+03
DMP: 109     0.573877596524E+01   -0.59517E+01   -0.85915E+02    36   0.458E+03-0.638E+03
DMP: 110    -0.184597599744E+00   -0.59234E+01   -0.11137E+01    36   0.181E+01 0.256E+01
DMP: 111     0.227635176196E+01    0.24609E+01   -0.38894E+01    36   0.117E+02-0.524E+01
DMP: 112    -0.195964135419E+00   -0.24723E+01   -0.42644E+00    36   0.242E+01-0.356E+01
DMP: 113    -0.621164368011E+00   -0.42520E+00   -0.63296E+00    36   0.134E+01 0.640E+00
DMP: 114     0.705566490976E+01    0.76768E+01   -0.16458E+03    36   0.471E+03-0.156E+03
DMP: 115     0.154956619620E+02    0.84400E+01   -0.89212E+02    36   0.307E+03-0.220E+03
DMP: 116     0.125891275861E+02   -0.29065E+01   -0.55185E+01    36   0.207E+02-0.181E+02
DMP: 117     0.170411457740E+02    0.44520E+01   -0.99829E+01    36   0.337E+02-0.229E+02
DMP: 118     0.140408699741E+02   -0.30003E+01   -0.71988E+01    36   0.258E+02-0.205E+02
DMP: 119     0.171314999911E+02    0.30906E+01   -0.96831E+01    36   0.329E+02-0.227E+02
DMP: 120     0.120223168690E+02   -0.51092E+01   -0.11073E+03    36   0.397E+03-0.315E+03
DMP: 121     0.163190007239E+02    0.42967E+01   -0.10089E+02    36   0.326E+02-0.193E+02
DMP: 122     0.147410759070E+02   -0.15779E+01   -0.82772E+01    36   0.296E+02-0.232E+02
DMP: 123     0.172810285394E+02    0.25400E+01   -0.10429E+02    36   0.364E+02-0.270E+02
DMP: 124     0.150153741364E+02   -0.22657E+01   -0.85177E+01    36   0.296E+02-0.216E+02
DMP: 125     0.177806446023E+02    0.27653E+01   -0.13049E+02    36   0.450E+02-0.325E+02
DMP: 126     0.148262990760E+02   -0.29543E+01   -0.83117E+01    36   0.289E+02-0.213E+02
DMP: 127     0.164228386466E+02    0.15965E+01   -0.81691E+02    36   0.319E+03-0.300E+03
DMP: 128     0.145004905515E+02   -0.19223E+01   -0.80982E+01    36   0.280E+02-0.204E+02
DMP: 129     0.169024299363E+02    0.24019E+01   -0.97261E+01    36   0.316E+02-0.191E+02
DMP: 130     0.146152373407E+02   -0.22872E+01   -0.81499E+01    36   0.286E+02-0.216E+02
DMP: 131     0.166216769829E+02    0.20064E+01   -0.96255E+01    36   0.325E+02-0.221E+02
DMP: 132     0.210310410669E+01   -0.14519E+02   -0.83694E+01    36   0.480E+02-0.709E+02
DMP: 133    -0.529158432068E+00   -0.26323E+01   -0.37576E+00    36   0.131E+01-0.974E+00
DMP: 134    -0.813892745089E+00   -0.28473E+00   -0.35124E+00    36   0.634E+00 0.640E+00
DMP: 135     0.931248189883E+00    0.17451E+01   -0.27956E+02    36   0.859E+02-0.420E+02
DMP: 136    -0.399163797663E+00   -0.13304E+01   -0.35860E+00    36   0.198E+01-0.284E+01
DMP: 137    -0.724066950217E+00   -0.32490E+00   -0.55767E+00    36   0.113E+01 0.703E+00
DMP: 138     0.110024942961E+02    0.11727E+02   -0.57893E+01    36   0.158E+02-0.335E+01
DMP: 139     0.183592797792E+02    0.73568E+01   -0.13024E+02    36   0.477E+02-0.397E+02
DMP: 140     0.118108941108E+02   -0.65484E+01   -0.43682E+01    36   0.180E+02-0.186E+02
DMP: 141     0.471816295901E+02    0.35371E+02   -0.32847E+03    36   0.103E+04-0.554E+03
DMP: 142     0.217986285873E+02   -0.25383E+02   -0.11683E+02    36   0.493E+02-0.527E+02
DMP: 143     0.147910015751E+02   -0.70076E+01   -0.75988E+01    36   0.287E+02-0.254E+02
DMP: 144    -0.715500002023E+00   -0.15507E+02   -0.27236E+00    36   0.537E+00 0.378E+00
DMP: 145     0.174956794121E+02    0.18211E+02   -0.14628E+02    36   0.370E+02-0.118E+01
DMP: 146     0.508377774404E+02    0.33342E+02   -0.22312E+02    36   0.788E+02-0.602E+02
DMP: 147     0.202856525191E+02   -0.30552E+02   -0.10404E+02    36   0.443E+02-0.479E+02
DMP: 148     0.146204896992E+02   -0.56652E+01   -0.69912E+01    36   0.239E+02-0.168E+02
DMP: 149     0.149400616936E+02    0.31957E+00   -0.73571E+01    36   0.237E+02-0.139E+02
DMP: 150     0.155842772050E+02    0.64422E+00   -0.80522E+01    36   0.278E+02-0.200E+02
DMP: 151     0.138907814547E+02   -0.16935E+01   -0.76429E+01    36   0.266E+02-0.195E+02
DMP: 152     0.160386130714E+02    0.21478E+01   -0.86931E+01    36   0.297E+02-0.209E+02
DMP: 153     0.142601346545E+02   -0.17785E+01   -0.86732E+01    36   0.308E+02-0.237E+02
DMP: 154     0.163542029918E+02    0.20941E+01   -0.89228E+01    36   0.307E+02-0.219E+02
DMP: 155    -0.100145806107E+01   -0.17356E+02   -0.65046E+01    36   0.406E+01 0.319E+02
DMP: 156     0.148978744660E+02    0.15899E+02   -0.11136E+02    36   0.287E+02-0.225E+01
DMP: 157     0.185329911703E+02    0.36351E+01   -0.75159E+01    36   0.335E+02-0.384E+02
DMP: 158     0.128140048714E+02   -0.57190E+01   -0.63303E+01    36   0.245E+02-0.227E+02
DMP: 159     0.170571628730E+01   -0.11108E+02   -0.17502E+01    36   0.915E+01-0.125E+02
DMP: 160     0.272437007493E+00   -0.14333E+01   -0.19920E+01    36   0.383E+01 0.301E+01
DMP: 161    -0.959911649258E+00   -0.12323E+01   -0.28948E+00    36   0.300E+00 0.111E+01
DMP: 162     0.131521788825E+02    0.14112E+02   -0.82899E+01    36   0.219E+02-0.309E+01
DMP: 163     0.199825080309E+02    0.68303E+01   -0.82876E+01    36   0.365E+02-0.414E+02
DMP: 164     0.124861917036E+02   -0.74963E+01   -0.57550E+01    36   0.218E+02-0.193E+02
DMP: 165     0.130709590580E+02    0.58477E+00   -0.20847E+03    36   0.868E+03-0.908E+03
DMP: 166    -0.791668400373E+00   -0.13863E+02   -0.67718E+00    36   0.784E+00 0.238E+01
DMP: 167     0.148604066421E+02    0.15652E+02   -0.10098E+02    36   0.269E+02-0.428E+01
DMP: 168     0.194033485724E+02    0.45429E+01   -0.89665E+01    36   0.369E+02-0.379E+02
DMP: 169     0.127793239941E+02   -0.66240E+01   -0.55035E+01    36   0.204E+02-0.174E+02
DMP: 170     0.193003161298E+02    0.65210E+01   -0.11997E+02    36   0.346E+02-0.122E+02
DMP: 171     0.146027301934E+02   -0.46976E+01   -0.75345E+01    36   0.274E+02-0.223E+02
DMP: 172     0.177860430364E+02    0.31833E+01   -0.12867E+02    36   0.441E+02-0.313E+02
DMP: 173     0.149020520016E+02   -0.28840E+01   -0.81704E+01    36   0.285E+02-0.211E+02
DMP: 174     0.168022958877E+02    0.19002E+01   -0.96545E+01    36   0.314E+02-0.191E+02
DMP: 175     0.147185084436E+02   -0.20838E+01   -0.81076E+01    36   0.282E+02-0.208E+02
DMP: 176     0.168041598890E+02    0.20857E+01   -0.92033E+01    36   0.315E+02-0.223E+02
DMP: 177     0.147073670630E+02   -0.20968E+01   -0.81761E+01    36   0.286E+02-0.212E+02
DMP: 178     0.170370602780E+02    0.23297E+01   -0.96855E+01    36   0.327E+02-0.223E+02
DMP: 179    -0.854878200538E+00   -0.17892E+02   -0.32588E+01    36   0.261E+01 0.145E+02
DMP: 180     0.160273673084E+02    0.16882E+02   -0.18358E+02    36   0.425E+02 0.895E+01
DMP: 181     0.187189614199E+02    0.26916E+01   -0.79928E+01    36   0.345E+02-0.381E+02
DMP: 182     0.121685334492E+02   -0.65504E+01   -0.60029E+01    36   0.230E+02-0.209E+02
DMP: 183     0.104664040934E+02   -0.17021E+01   -0.19291E+03    36   0.860E+03-0.988E+03
DMP: 184    -0.544037427986E+00   -0.11010E+02   -0.13744E+01    36   0.184E+01 0.417E+01
DMP: 185     0.135433821082E+02    0.14087E+02   -0.10063E+02    36   0.257E+02-0.137E+01
DMP: 186     0.189685101287E+02    0.54251E+01   -0.95485E+01    36   0.369E+02-0.341E+02
DMP: 187     0.128725070451E+02   -0.60960E+01   -0.51639E+01    36   0.215E+02-0.225E+02
DMP: 188     0.217388291205E+01   -0.10699E+02   -0.19150E+01    36   0.768E+01-0.758E+01
DMP: 189     0.658769274727E+00   -0.15151E+01   -0.20775E+01    36   0.409E+01 0.288E+01
DMP: 190    -0.537779384099E+00   -0.11965E+01   -0.95056E+00    36   0.140E+01 0.256E+01
DMP: 191     0.124052539723E+02    0.12943E+02   -0.73587E+01    36   0.189E+02-0.144E+01
DMP: 192     0.201936207563E+02    0.77884E+01   -0.12182E+02    36   0.452E+02-0.385E+02
DMP: 193     0.117229950668E+02   -0.84706E+01   -0.44917E+01    36   0.179E+02-0.176E+02
DMP: 194     0.260549808765E+01   -0.91175E+01   -0.21012E+01    36   0.801E+01-0.721E+01
DMP: 195     0.875815662399E+00   -0.17297E+01   -0.24324E+01    36   0.469E+01 0.365E+01
DMP: 196     0.118678375107E+02    0.10992E+02   -0.63924E+01    36   0.184E+02-0.641E+01
DMP: 197     0.188535370789E+02    0.69857E+01   -0.19523E+02    36   0.643E+02-0.404E+02
DMP: 198     0.124225195650E+02   -0.64310E+01   -0.52899E+01    36   0.207E+02-0.197E+02
DMP: 199     0.174838917064E+02    0.50614E+01   -0.14999E+02    36   0.491E+02-0.304E+02
DMP: 200     0.144049504038E+02   -0.30789E+01   -0.75834E+01    36   0.273E+02-0.219E+02
DMP: 201     0.179760454950E+02    0.35711E+01   -0.34910E+02    36   0.130E+03-0.113E+03
DMP: 202     0.148177197971E+02   -0.31583E+01   -0.83876E+01    36   0.293E+02-0.219E+02
DMP: 203     0.196931579081E+02    0.48754E+01   -0.21996E+02    36   0.767E+02-0.569E+02
DMP: 204     0.152254521768E+02   -0.44677E+01   -0.91377E+01    36   0.322E+02-0.245E+02
DMP: 205     0.208612946627E+02    0.56358E+01   -0.27600E+02    36   0.940E+02-0.654E+02
DMP: 206     0.159811068319E+02   -0.48802E+01   -0.10272E+02    36   0.362E+02-0.277E+02
DMP: 207     0.219198199316E+02    0.59387E+01   -0.38061E+02    36   0.129E+03-0.880E+02
DMP: 208     0.163554401512E+02   -0.55644E+01   -0.11671E+02    36   0.414E+02-0.320E+02
DMP: 209     0.457109810167E+01   -0.11784E+02   -0.13523E+02    36   0.973E+02-0.166E+03
DMP: 210     0.953939495563E+00   -0.36172E+01   -0.34297E+01    36   0.676E+01 0.475E+01
DMP: 211     0.178007936234E+01    0.82614E+00   -0.32967E+01    36   0.121E+02-0.998E+01
DMP: 212    -0.828170111186E+00   -0.26082E+01    0.48723E+00    36   0.130E+02-0.372E+02
DMP: 213    -0.104885079839E+01   -0.22068E+00   -0.80570E+00    36   0.121E+02-0.265E+02
DMP: 214    -0.125318905054E+01   -0.20434E+00   -0.89660E+00    36   0.251E+01-0.707E+00
DMP: 215     0.411834038946E-01    0.12944E+01   -0.61386E+01    36   0.176E+02-0.603E+01
DMP: 216     0.469881687612E+00    0.42870E+00   -0.19135E+01    36   0.624E+01-0.381E+01
DMP: 217     0.890832792402E-01   -0.38080E+00   -0.23346E+01    36   0.835E+01-0.657E+01
DMP: 218     0.152320512220E-01   -0.73851E-01   -0.15731E+01    36   0.547E+01-0.402E+01
DMP: 219    -0.759593631610E+00   -0.77483E+00   -0.51429E+00    36   0.839E+00 0.117E+01
DMP: 220     0.109753653239E+02    0.11735E+02   -0.58737E+01    36   0.164E+02-0.445E+01
DMP: 221     0.514992197611E+02    0.40524E+02   -0.34428E+02    36   0.116E+03-0.782E+02
DMP: 222     0.178035547491E+02   -0.33696E+02   -0.71317E+01    36   0.358E+02-0.472E+02
DMP: 223     0.973737800274E+00   -0.16830E+02   -0.76001E+00    36   0.392E+01-0.529E+01
DMP: 224     0.631244393080E+00   -0.34249E+00   -0.10837E+02    36   0.338E+02-0.175E+02
DMP: 225    -0.607274155976E+00   -0.12385E+01   -0.24980E+00    36   0.386E+00 0.623E+00
DMP: 226     0.130086124326E+02    0.13616E+02   -0.76374E+01    36   0.199E+02-0.217E+01
DMP: 227     0.512380237606E+02    0.38229E+02   -0.21204E+02    36   0.770E+02-0.629E+02
DMP: 228     0.186949175951E+02   -0.32543E+02   -0.83826E+01    36   0.394E+02-0.484E+02
DMP: 229     0.138047737670E+01   -0.17314E+02   -0.99416E+00    36   0.484E+01-0.615E+01
DMP: 230     0.545229542855E+00   -0.83525E+00   -0.16345E+01    36   0.341E+01 0.176E+01
DMP: 231    -0.478679331209E+00   -0.10239E+01   -0.40064E+00    36   0.625E+00 0.985E+00
DMP: 232     0.157574834745E+01    0.20544E+01   -0.43703E+02    36   0.166E+03-0.149E+03
DMP: 233    -0.296611182257E-01   -0.16054E+01   -0.32774E+00    36   0.252E+01-0.446E+01
DMP: 234    -0.324609690521E+00   -0.29495E+00   -0.18434E+02    36   0.714E+02-0.664E+02
DMP: 235     0.137348722405E+00    0.46196E+00   -0.92647E+00    36   0.280E+01-0.127E+01
DMP: 236     0.953527047157E+01    0.93979E+01   -0.39659E+01    36   0.111E+02-0.310E+01
DMP: 237     0.504318035462E+02    0.40897E+02   -0.25570E+02    36   0.815E+02-0.461E+02
DMP: 238     0.161009083713E+02   -0.34331E+02   -0.52344E+01    36   0.276E+02-0.380E+02
DMP: 239     0.593024075558E+00   -0.15508E+02   -0.24010E+00    36   0.299E+01-0.625E+01
DMP: 240     0.137660302792E+02    0.13173E+02   -0.14860E+02    36   0.375E+02-0.803E+00
DMP: 241     0.174050540286E+02    0.36390E+01   -0.96110E+01    36   0.320E+02-0.209E+02
DMP: 242     0.162946401383E+02   -0.11104E+01   -0.63035E+01    36   0.284E+02-0.331E+02
DMP: 243     0.147074407800E+02   -0.15872E+01   -0.76861E+01    36   0.251E+02-0.154E+02
DMP: 244     0.182650517505E+02    0.35576E+01   -0.10157E+02    36   0.334E+02-0.210E+02
DMP: 245     0.142771678425E+02   -0.39879E+01   -0.72073E+01    36   0.253E+02-0.191E+02
DMP: 246     0.177906400868E+02    0.35135E+01   -0.98131E+01    36   0.333E+02-0.229E+02
DMP: 247     0.146321556379E+02   -0.31585E+01   -0.77864E+01    36   0.273E+02-0.206E+02
DMP: 248     0.176308351834E+02    0.29987E+01   -0.37188E+02    36   0.144E+03-0.134E+03
DMP: 249     0.146374995071E+02   -0.29933E+01   -0.79657E+01    36   0.277E+02-0.205E+02
DMP: 250     0.184411305057E+02    0.38036E+01   -0.10377E+02    36   0.356E+02-0.252E+02
DMP: 251     0.148137239933E+02   -0.36274E+01   -0.81532E+01    36   0.286E+02-0.216E+02
DMP: 252     0.184170791513E+02    0.36034E+01   -0.11006E+02    36   0.372E+02-0.254E+02
DMP: 253     0.149189636840E+02   -0.34981E+01   -0.83862E+01    36   0.293E+02-0.218E+02
DMP: 254     0.174131600644E+02    0.24942E+01   -0.97874E+02    36   0.384E+03-0.364E+03
DMP: 255     0.145735672433E+02   -0.28396E+01   -0.83299E+01    36   0.287E+02-0.207E+02
DMP: 256     0.179353279690E+02    0.33618E+01   -0.14456E+03    36   0.475E+03-0.297E+03
DMP: 257     0.143859966296E+02   -0.35493E+01   -0.85197E+01    36   0.300E+02-0.228E+02
DMP: 258     0.118795988677E+02   -0.25064E+01   -0.23105E+03    36   0.104E+04-0.121E+04
DMP: 259    -0.316258299638E+00   -0.12196E+02   -0.11622E+01    36   0.169E+01 0.319E+01
DMP: 260     0.135879149251E+02    0.13904E+02   -0.10515E+02    36   0.269E+02-0.169E+01
DMP: 261     0.499606631156E+01   -0.85918E+01   -0.36713E+02    36   0.206E+03-0.299E+03
DMP: 262     0.106654721354E+00   -0.48894E+01   -0.73049E+00    36   0.293E+01-0.290E+01
DMP: 263     0.149279037011E+01    0.13861E+01   -0.33682E+01    36   0.858E+01-0.425E+00
DMP: 264     0.148456754493E+01   -0.82228E-02   -0.26710E+02    36   0.115E+03-0.126E+03
DMP: 265     0.306054453344E+00   -0.11785E+01   -0.16713E+01    36   0.581E+01-0.428E+01
DMP: 266    -0.651204322973E+00   -0.95726E+00   -0.67713E+00    36   0.117E+01 0.137E+01
DMP: 267     0.111936054364E+02    0.11845E+02   -0.63764E+01    36   0.177E+02-0.459E+01
DMP: 268     0.472848854400E+02    0.36091E+02   -0.14166E+03    36   0.454E+03-0.262E+03
DMP: 269     0.175992298750E+02   -0.29686E+02   -0.75180E+01    36   0.370E+02-0.475E+02
DMP: 270     0.143387625544E+01   -0.16165E+02   -0.69580E+00    36   0.605E+01-0.113E+02
DMP: 271     0.968494994735E+00   -0.46538E+00   -0.25038E+02    36   0.704E+02-0.205E+02
DMP: 272    -0.904905987667E+00   -0.18734E+01   -0.28803E+00    36   0.337E+00 0.100E+01
DMP: 273     0.135389036741E+02    0.14444E+02   -0.87526E+01    36   0.229E+02-0.276E+01
DMP: 274     0.522045652528E+02    0.38666E+02   -0.26252E+02    36   0.918E+02-0.685E+02
DMP: 275     0.192480871471E+02   -0.32956E+02   -0.82510E+01    36   0.396E+02-0.497E+02
DMP: 276     0.103571614767E+01   -0.18212E+02   -0.90978E+00    36   0.445E+01-0.569E+01
DMP: 277     0.109497299537E+00   -0.92622E+00   -0.13450E+01    36   0.285E+01 0.133E+01
DMP: 278    -0.825105376092E+00   -0.93460E+00   -0.41455E+00    36   0.541E+00 0.130E+01
DMP: 279     0.122950748699E+02    0.13120E+02   -0.76284E+01    36   0.195E+02-0.123E+01
DMP: 280     0.182935038103E+02    0.59984E+01   -0.84266E+01    36   0.339E+02-0.335E+02
DMP: 281     0.114719909615E+02   -0.68215E+01   -0.40701E+01    36   0.157E+02-0.145E+02
DMP: 282     0.131201324922E+01   -0.10160E+02   -0.13481E+01    36   0.579E+01-0.635E+01
DMP: 283     0.391264994997E+00   -0.92075E+00   -0.19064E+01    36   0.376E+01 0.264E+01
DMP: 284     0.967468212772E+01    0.92834E+01   -0.92794E+02    36   0.281E+03-0.129E+03
DMP: 285     0.177558214206E+02    0.80811E+01   -0.11418E+02    36   0.386E+02-0.263E+02
DMP: 286     0.122687989687E+02   -0.54870E+01   -0.50101E+01    36   0.197E+02-0.188E+02
DMP: 287     0.144880598715E+01   -0.10820E+02   -0.14026E+01    36   0.775E+01-0.111E+02
DMP: 288     0.339461655194E+00   -0.11093E+01   -0.18898E+01    36   0.388E+01 0.220E+01
DMP: 289    -0.869505768895E+00   -0.12090E+01   -0.39195E+00    36   0.462E+00 0.136E+01
DMP: 290     0.124954224319E+02    0.13365E+02   -0.79049E+01    36   0.210E+02-0.319E+01
DMP: 291     0.198797907857E+02    0.73844E+01   -0.14301E+02    36   0.542E+02-0.482E+02
DMP: 292     0.120287086777E+02   -0.78511E+01   -0.47986E+01    36   0.189E+02-0.181E+02
DMP: 293     0.186508219243E+01   -0.10164E+02   -0.20080E+01    36   0.799E+01-0.777E+01
DMP: 294    -0.500342349893E+00   -0.23654E+01   -0.21997E+02    36   0.255E+02 0.771E+02
DMP: 295     0.627751744808E+00    0.11281E+01   -0.12300E+01    36   0.405E+01-0.255E+01
DMP: 296    -0.172482978358E+00   -0.80023E+00   -0.18048E+01    36   0.810E+01-0.939E+01
DMP: 297     0.253571432515E+00    0.42605E+00   -0.76524E+00    36   0.252E+01-0.158E+01
DMP: 298    -0.888116434880E-01   -0.34238E+00   -0.83380E+00    36   0.293E+01-0.223E+01
DMP: 299    -0.674533713914E+00   -0.58572E+00   -0.61227E+00    36   0.111E+01 0.111E+01
DMP: 300     0.108476888754E+02    0.11522E+02   -0.56626E+01    36   0.158E+02-0.434E+01
   1 F= 0.10847689E+02 E0= 0.10861415E+02  d E =0.108477E+02  mag=     4.0000
