<?xml version="1.0" encoding="ISO-8859-1"?>
<modeling>
 <generator>
  <i name="program" type="string">vasp </i>
  <i name="version" type="string">5.4.4.18Apr17-6-g9f103f2a35  </i>
  <i name="subversion" type="string">(build Nov 08 2019 15:19:53) gamma-only         parallel </i>
  <i name="platform" type="string">LinuxIFC </i>
  <i name="date" type="string">2020 11 30 </i>
  <i name="time" type="string">09:30:48 </i>
 </generator>
 <incar>
  <i type="string" name="PREC">accurate</i>
  <i type="string" name="ALGO"> D</i>
  <i type="int" name="ISPIN">     2</i>
  <i type="int" name="NELM">   300</i>
  <i type="int" name="IBRION">     2</i>
  <i name="EDIFF">      0.00005000</i>
  <i type="int" name="NSW">    99</i>
  <i type="int" name="ISIF">     2</i>
  <i name="ENCUT">    520.00000000</i>
  <v name="MAGMOM">      0.60000000</v>
  <i type="string" name="LREAL"> Auto</i>
  <i type="int" name="ISMEAR">     0</i>
  <i name="SIGMA">      0.05000000</i>
  <i type="logical" name="LWAVE"> F  </i>
  <i type="int" name="LORBIT">    11</i>
  <i type="logical" name="LASPH"> T  </i>
  <v type="int" name="KPOINT_BSE">    -1     0     0     0</v>
  <i type="int" name="NELM">   300</i>
  <i type="logical" name="LASPH"> T  </i>
 </incar>
 <structure name="primitive_cell" >
  <crystal>
   <varray name="basis" >
    <v>      10.00000000       0.00000000       0.00000000 </v>
    <v>       0.00000000      10.00000000       0.00000000 </v>
    <v>       0.00000000       0.00000000      10.00000000 </v>
   </varray>
   <i name="volume">   1000.00000000 </i>
   <varray name="rec_basis" >
    <v>       0.10000000       0.00000000       0.00000000 </v>
    <v>       0.00000000       0.10000000       0.00000000 </v>
    <v>       0.00000000       0.00000000       0.10000000 </v>
   </varray>
  </crystal>
  <varray name="positions" >
   <v>      -0.50000000      -0.50000000      -0.50000000 </v>
  </varray>
 </structure>
 <varray name="primitive_index" >
  <v type="int" >        1 </v>
 </varray>
 <kpoints>
  <generation param="Gamma">
   <v type="int" name="divisions">       1        1        1 </v>
   <v name="usershift">      0.00000000       0.00000000       0.00000000 </v>
   <v name="genvec1">      1.00000000       0.00000000       0.00000000 </v>
   <v name="genvec2">      0.00000000       1.00000000       0.00000000 </v>
   <v name="genvec3">      0.00000000       0.00000000       1.00000000 </v>
   <v name="shift">      0.00000000       0.00000000       0.00000000 </v>
  </generation>
  <varray name="kpointlist" >
   <v>       0.00000000       0.00000000       0.00000000 </v>
  </varray>
  <varray name="weights" >
   <v>       1.00000000 </v>
  </varray>
 </kpoints>
 <parameters>
  <separator name="general" >
   <i type="string" name="SYSTEM">unknown system</i>
   <i type="logical" name="LCOMPAT"> F  </i>
  </separator>
  <separator name="electronic" >
   <i type="string" name="PREC">accura</i>
   <i name="ENMAX">    520.00000000</i>
   <i name="ENAUG">    580.19600000</i>
   <i name="EDIFF">      0.00005000</i>
   <i type="int" name="IALGO">    53</i>
   <i type="int" name="IWAVPR">    11</i>
   <i type="int" name="NBANDS">    36</i>
   <i name="NELECT">     12.00000000</i>
   <i type="int" name="TURBO">     0</i>
   <i type="int" name="IRESTART">     0</i>
   <i type="int" name="NREBOOT">     0</i>
   <i type="int" name="NMIN">     0</i>
   <i name="EREF">      0.00000000</i>
   <separator name="electronic smearing" >
    <i type="int" name="ISMEAR">     0</i>
    <i name="SIGMA">      0.05000000</i>
    <i name="KSPACING">      0.50000000</i>
    <i type="logical" name="KGAMMA"> T  </i>
   </separator>
   <separator name="electronic projectors" >
    <i type="logical" name="LREAL"> T  </i>
    <v name="ROPT">     -0.00025000</v>
    <i type="int" name="LMAXPAW">  -100</i>
    <i type="int" name="LMAXMIX">     2</i>
    <i type="logical" name="NLSPLINE"> F  </i>
   </separator>
   <separator name="electronic startup" >
    <i type="int" name="ISTART">     0</i>
    <i type="int" name="ICHARG">     2</i>
    <i type="int" name="INIWAV">     1</i>
   </separator>
   <separator name="electronic spin" >
    <i type="int" name="ISPIN">     2</i>
    <i type="logical" name="LNONCOLLINEAR"> F  </i>
    <v name="MAGMOM">      0.60000000</v>
    <i name="NUPDOWN">     -1.00000000</i>
    <i type="logical" name="LSORBIT"> F  </i>
    <v name="SAXIS">      0.00000000      0.00000000      1.00000000</v>
    <i type="logical" name="LSPIRAL"> F  </i>
    <v name="QSPIRAL">      0.00000000      0.00000000      0.00000000</v>
    <i type="logical" name="LZEROZ"> F  </i>
   </separator>
   <separator name="electronic exchange-correlation" >
    <i type="logical" name="LASPH"> T  </i>
    <i type="logical" name="LMETAGGA"> F  </i>
   </separator>
   <separator name="electronic convergence" >
    <i type="int" name="NELM">   300</i>
    <i type="int" name="NELMDL">    -5</i>
    <i type="int" name="NELMIN">     2</i>
    <i name="ENINI">    520.00000000</i>
    <separator name="electronic convergence detail" >
     <i type="logical" name="LDIAG"> T  </i>
     <i type="logical" name="LSUBROT"> F  </i>
     <i name="WEIMIN">      0.00100000</i>
     <i name="EBREAK">      0.00000035</i>
     <i name="DEPER">      0.30000000</i>
     <i type="int" name="NRMM">     4</i>
     <i name="TIME">      0.40000000</i>
    </separator>
   </separator>
   <separator name="electronic mixer" >
    <i name="AMIX">      0.40000000</i>
    <i name="BMIX">      1.00000000</i>
    <i name="AMIN">      0.10000000</i>
    <i name="AMIX_MAG">      1.60000000</i>
    <i name="BMIX_MAG">      1.00000000</i>
    <separator name="electronic mixer details" >
     <i type="int" name="IMIX">     4</i>
     <i type="logical" name="MIXFIRST"> F  </i>
     <i type="int" name="MAXMIX">   -45</i>
     <i name="WC">    100.00000000</i>
     <i type="int" name="INIMIX">     1</i>
     <i type="int" name="MIXPRE">     1</i>
     <i type="int" name="MREMOVE">     5</i>
    </separator>
   </separator>
   <separator name="electronic dipolcorrection" >
    <i type="logical" name="LDIPOL"> F  </i>
    <i type="logical" name="LMONO"> F  </i>
    <i type="int" name="IDIPOL">     0</i>
    <i name="EPSILON">      1.00000000</i>
    <v name="DIPOL">   -100.00000000   -100.00000000   -100.00000000</v>
    <i name="EFIELD">      0.00000000</i>
   </separator>
  </separator>
  <separator name="grids" >
   <i type="int" name="NGX">    80</i>
   <i type="int" name="NGY">    80</i>
   <i type="int" name="NGZ">    80</i>
   <i type="int" name="NGXF">   160</i>
   <i type="int" name="NGYF">   160</i>
   <i type="int" name="NGZF">   160</i>
   <i type="logical" name="ADDGRID"> F  </i>
  </separator>
  <separator name="ionic" >
   <i type="int" name="NSW">    99</i>
   <i type="int" name="IBRION">     2</i>
   <i type="int" name="MDALGO">     0</i>
   <i type="int" name="ISIF">     2</i>
   <i name="PSTRESS">      0.00000000</i>
   <i name="EDIFFG">      0.00050000</i>
   <i type="int" name="NFREE">     1</i>
   <i name="POTIM">      0.50000000</i>
   <i name="SMASS">     -3.00000000</i>
   <i name="SCALEE">      1.00000000</i>
  </separator>
  <separator name="ionic md" >
   <i name="TEBEG">      0.00010000</i>
   <i name="TEEND">      0.00010000</i>
   <i type="int" name="NBLOCK">     1</i>
   <i type="int" name="KBLOCK">    99</i>
   <i type="int" name="NPACO">   256</i>
   <i name="APACO">     16.00000000</i>
  </separator>
  <separator name="symmetry" >
   <i type="int" name="ISYM">     2</i>
   <i name="SYMPREC">      0.00001000</i>
  </separator>
  <separator name="dos" >
   <i type="int" name="LORBIT">    11</i>
   <v name="RWIGS">     -1.00000000</v>
   <i type="int" name="NEDOS">   301</i>
   <i name="EMIN">     10.00000000</i>
   <i name="EMAX">    -10.00000000</i>
   <i name="EFERMI">      0.00000000</i>
  </separator>
  <separator name="writing" >
   <i type="int" name="NWRITE">     2</i>
   <i type="logical" name="LWAVE"> F  </i>
   <i type="logical" name="LDOWNSAMPLE"> F  </i>
   <i type="logical" name="LCHARG"> T  </i>
   <i type="logical" name="LPARD"> F  </i>
   <i type="logical" name="LVTOT"> F  </i>
   <i type="logical" name="LVHAR"> F  </i>
   <i type="logical" name="LELF"> F  </i>
   <i type="logical" name="LOPTICS"> F  </i>
   <v name="STM">      0.00000000      0.00000000      0.00000000      0.00000000      0.00000000      0.00000000      0.00000000</v>
  </separator>
  <separator name="performance" >
   <i type="int" name="NPAR">    36</i>
   <i type="int" name="NSIM">     4</i>
   <i type="int" name="NBLK">    -1</i>
   <i type="logical" name="LPLANE"> T  </i>
   <i type="logical" name="LSCALAPACK"> T  </i>
   <i type="logical" name="LSCAAWARE"> F  </i>
   <i type="logical" name="LSCALU"> F  </i>
   <i type="logical" name="LASYNC"> F  </i>
   <i type="logical" name="LORBITALREAL"> F  </i>
  </separator>
  <separator name="miscellaneous" >
   <i type="int" name="IDIOT">     3</i>
   <i type="int" name="ISPECIAL">     0</i>
   <i type="logical" name="LMUSIC"> F  </i>
   <v name="POMASS">    140.11500000</v>
   <v name="DARWINR">      0.00000000</v>
   <v name="DARWINV">      1.00000000</v>
   <i type="logical" name="LCORR"> T  </i>
  </separator>
  <i type="logical" name="GGA_COMPAT"> T  </i>
  <i type="logical" name="LBERRY"> F  </i>
  <i type="int" name="ICORELEVEL">     0</i>
  <i type="logical" name="LDAU"> F  </i>
  <i type="int" name="I_CONSTRAINED_M">     0</i>
  <separator name="electronic exchange-correlation" >
   <i type="string" name="GGA">--</i>
   <i type="int" name="VOSKOWN">     0</i>
   <i type="logical" name="LHFCALC"> F  </i>
   <i type="string" name="PRECFOCK"></i>
   <i type="logical" name="LSYMGRAD"> F  </i>
   <i type="logical" name="LHFONE"> F  </i>
   <i type="logical" name="LRHFCALC"> F  </i>
   <i type="logical" name="LTHOMAS"> F  </i>
   <i type="logical" name="LMODELHF"> F  </i>
   <i name="ENCUT4O">     -1.00000000</i>
   <i type="int" name="EXXOEP">     0</i>
   <i type="int" name="FOURORBIT">     0</i>
   <i name="AEXX">      0.00000000</i>
   <i name="HFALPHA">      0.00000000</i>
   <i name="MCALPHA">      0.00000000</i>
   <i name="ALDAX">      1.00000000</i>
   <i name="AGGAX">      1.00000000</i>
   <i name="ALDAC">      1.00000000</i>
   <i name="AGGAC">      1.00000000</i>
   <i type="int" name="NKREDX">     1</i>
   <i type="int" name="NKREDY">     1</i>
   <i type="int" name="NKREDZ">     1</i>
   <i type="logical" name="SHIFTRED"> F  </i>
   <i type="logical" name="ODDONLY"> F  </i>
   <i type="logical" name="EVENONLY"> F  </i>
   <i type="int" name="LMAXFOCK">     0</i>
   <i type="int" name="NMAXFOCKAE">     0</i>
   <i type="logical" name="LFOCKAEDFT"> F  </i>
   <i name="HFSCREEN">      0.00000000</i>
   <i name="HFSCREENC">      0.00000000</i>
   <i type="int" name="NBANDSGWLOW">     0</i>
  </separator>
  <separator name="vdW DFT" >
   <i type="logical" name="LUSE_VDW"> F  </i>
   <i name="Zab_VDW">     -0.84910000</i>
   <i name="PARAM1">      0.12340000</i>
   <i name="PARAM2">      1.00000000</i>
   <i name="PARAM3">      0.00000000</i>
  </separator>
  <separator name="model GW" >
   <i type="int" name="MODEL_GW">     0</i>
   <i name="MODEL_EPS0">    600.00000000</i>
   <i name="MODEL_ALPHA">      1.00000000</i>
  </separator>
  <separator name="linear response parameters" >
   <i type="logical" name="LEPSILON"> F  </i>
   <i type="logical" name="LRPA"> F  </i>
   <i type="logical" name="LNABLA"> F  </i>
   <i type="logical" name="LVEL"> F  </i>
   <i type="int" name="KINTER">     0</i>
   <i name="CSHIFT">      0.10000000</i>
   <i name="OMEGAMAX">     -1.00000000</i>
   <i name="DEG_THRESHOLD">      0.00200000</i>
   <i name="RTIME">     -0.10000000</i>
   <i name="WPLASMAI">      0.00000000</i>
   <v name="DFIELD">      0.00000000      0.00000000      0.00000000</v>
   <v name="WPLASMA">      0.00000000      0.00000000      0.00000000      0.00000000      0.00000000      0.00000000      0.00000000      0.00000000      0.00000000</v>
  </separator>
  <separator name="orbital magnetization" >
   <i type="logical" name="NUCIND"> F  </i>
   <v name="MAGPOS">      0.00000000      0.00000000      0.00000000</v>
   <i type="logical" name="LNICSALL"> T  </i>
   <i type="logical" name="ORBITALMAG"> F  </i>
   <i type="logical" name="LMAGBLOCH"> F  </i>
   <i type="logical" name="LCHIMAG"> F  </i>
   <i type="logical" name="LGAUGE"> T  </i>
   <i type="int" name="MAGATOM">     0</i>
   <v name="MAGDIPOL">      0.00000000      0.00000000      0.00000000</v>
   <v name="AVECCONST">      0.00000000      0.00000000      0.00000000</v>
  </separator>
  <separator name="response functions" >
   <i type="logical" name="LADDER"> F  </i>
   <i type="logical" name="LRPAFORCE"> F  </i>
   <i type="logical" name="LFXC"> F  </i>
   <i type="logical" name="LHARTREE"> T  </i>
   <i type="int" name="IBSE">     0</i>
   <v type="int" name="KPOINT">    -1     0     0     0</v>
   <i type="logical" name="LTCTE"> F  </i>
   <i type="logical" name="LTETE"> F  </i>
   <i type="logical" name="LTRIPLET"> F  </i>
   <i type="logical" name="LFXCEPS"> F  </i>
   <i type="logical" name="LFXHEG"> F  </i>
   <i type="int" name="NATURALO">     2</i>
   <i type="logical" name="L2ORDER"> F  </i>
   <i type="logical" name="LMP2LT"> F  </i>
   <i type="logical" name="LUSEW"> F  </i>
   <i name="ENCUTGW">     -2.00000000</i>
   <i name="ENCUTGWSOFT">     -2.00000000</i>
   <i name="ENCUTLF">     -1.00000000</i>
   <i type="int" name="LMAXMP2">    -1</i>
   <i name="SCISSOR">      0.00000000</i>
   <i type="int" name="NOMEGA">     0</i>
   <i type="int" name="NOMEGAR">     0</i>
   <i type="int" name="NBANDSGW">    -1</i>
   <i type="int" name="NBANDSO">    -1</i>
   <i type="int" name="NBANDSV">    -1</i>
   <i type="int" name="NELM">   300</i>
   <i type="int" name="NELMHF">     1</i>
   <i type="int" name="DIM">     3</i>
   <i type="int" name="ANTIRES">     0</i>
   <i name="OMEGAMAX">    -30.00000000</i>
   <i name="OMEGAMIN">    -30.00000000</i>
   <i name="OMEGATL">   -200.00000000</i>
   <i type="int" name="OMEGAGRID">   140</i>
   <i name="CSHIFT">     -0.10000000</i>
   <i type="logical" name="SELFENERGY"> F  </i>
   <i type="logical" name="LSPECTRAL"> F  </i>
   <i type="logical" name="LSPECTRALGW"> F  </i>
   <i type="logical" name="LSINGLES"> F  </i>
   <i type="logical" name="LFERMIGW"> F  </i>
   <i type="logical" name="ODDONLYGW"> F  </i>
   <i type="logical" name="EVENONLYGW"> F  </i>
   <i type="int" name="NKREDLFX">     1</i>
   <i type="int" name="NKREDLFY">     1</i>
   <i type="int" name="NKREDLFZ">     1</i>
   <i type="int" name="MAXMEM">  2800</i>
   <i type="int" name="TELESCOPE">     0</i>
   <i type="int" name="TAUPAR">     1</i>
   <i type="int" name="OMEGAPAR">    -1</i>
   <i name="LAMBDA">      1.00000000</i>
  </separator>
  <separator name="External order field" >
   <i name="OFIELD_KAPPA">      0.00000000</i>
   <v name="OFIELD_K">      0.00000000      0.00000000      0.00000000</v>
   <i name="OFIELD_Q6_NEAR">      0.00000000</i>
   <i name="OFIELD_Q6_FAR">      0.00000000</i>
   <i name="OFIELD_A">      0.00000000</i>
  </separator>
 </parameters>
 <atominfo>
  <atoms>       1 </atoms>
  <types>       1 </types>
  <array name="atoms" >
   <dimension dim="1">ion</dimension>
   <field type="string">element</field>
   <field type="int">atomtype</field>
   <set>
    <rc><c>Ce</c><c>   1</c></rc>
   </set>
  </array>
  <array name="atomtypes" >
   <dimension dim="1">type</dimension>
   <field type="int">atomspertype</field>
   <field type="string">element</field>
   <field>mass</field>
   <field>valence</field>
   <field type="string">pseudopotential</field>
   <set>
    <rc><c>   1</c><c>Ce</c><c>    140.11500000</c><c>     12.00000000</c><c>  PAW_PBE Ce 23Dec2003                  </c></rc>
   </set>
  </array>
 </atominfo>
 <structure name="initialpos" >
  <crystal>
   <varray name="basis" >
    <v>      10.00000000       0.00000000       0.00000000 </v>
    <v>       0.00000000      10.00000000       0.00000000 </v>
    <v>       0.00000000       0.00000000      10.00000000 </v>
   </varray>
   <i name="volume">   1000.00000000 </i>
   <varray name="rec_basis" >
    <v>       0.10000000       0.00000000       0.00000000 </v>
    <v>       0.00000000       0.10000000       0.00000000 </v>
    <v>       0.00000000       0.00000000       0.10000000 </v>
   </varray>
  </crystal>
  <varray name="positions" >
   <v>       0.50000000       0.50000000       0.50000000 </v>
  </varray>
 </structure>
 <calculation>
  <scstep>
   <time name="total">    1.35    1.36</time>
   <energy>
    <i name="alphaZ">      2.10468792 </i>
    <i name="ewald">   -294.16665608 </i>
    <i name="hartreedc">   -567.31770282 </i>
    <i name="XCdc">      2.33392993 </i>
    <i name="pawpsdc">    850.82114465 </i>
    <i name="pawaedc">   -826.57606301 </i>
    <i name="eentropy">     -0.04097169 </i>
    <i name="bandstr">    -73.32430816 </i>
    <i name="atom">   1063.07280435 </i>
    <i name="e_fr_energy">    156.90686509 </i>
    <i name="e_wo_entrp">    156.94783678 </i>
    <i name="e_0_energy">    156.92735094 </i>
   </energy>
  </scstep>
  <scstep>
   <time name="total">    0.40    0.40</time>
   <energy>
    <i name="e_fr_energy">    110.39696597 </i>
    <i name="e_wo_entrp">    110.43464500 </i>
    <i name="e_0_energy">    110.41580549 </i>
   </energy>
  </scstep>
  <scstep>
   <time name="total">    0.42    0.42</time>
   <energy>
    <i name="e_fr_energy">     44.76307714 </i>
    <i name="e_wo_entrp">     44.84805691 </i>
    <i name="e_0_energy">     44.80556703 </i>
   </energy>
  </scstep>
  <scstep>
   <time name="total">    0.41    0.41</time>
   <energy>
    <i name="e_fr_energy">     -0.29771517 </i>
    <i name="e_wo_entrp">     -0.20098389 </i>
    <i name="e_0_energy">     -0.24934953 </i>
   </energy>
  </scstep>
  <scstep>
   <time name="total">    0.63    0.63</time>
   <energy>
    <i name="e_fr_energy">     -5.40574871 </i>
    <i name="e_wo_entrp">     -5.30863239 </i>
    <i name="e_0_energy">     -5.35719055 </i>
   </energy>
  </scstep>
  <scstep>
   <time name="total">    1.38    1.38</time>
   <energy>
    <i name="e_fr_energy">     42.87570111 </i>
    <i name="e_wo_entrp">     42.88716597 </i>
    <i name="e_0_energy">     42.88143354 </i>
   </energy>
  </scstep>
  <scstep>
   <time name="total">    1.37    1.37</time>
   <energy>
    <i name="e_fr_energy">     59.23258602 </i>
    <i name="e_wo_entrp">     59.31919509 </i>
    <i name="e_0_energy">     59.27589055 </i>
   </energy>
  </scstep>
  <scstep>
   <time name="total">    1.36    1.36</time>
   <energy>
    <i name="e_fr_energy">     73.57235260 </i>
    <i name="e_wo_entrp">     73.58091671 </i>
    <i name="e_0_energy">     73.57663466 </i>
   </energy>
  </scstep>
  <scstep>
   <time name="total">    1.36    1.37</time>
   <energy>
    <i name="e_fr_energy">     34.84605651 </i>
    <i name="e_wo_entrp">     34.88990151 </i>
    <i name="e_0_energy">     34.86797901 </i>
   </energy>
  </scstep>
  <scstep>
   <time name="total">    1.36    1.36</time>
   <energy>
    <i name="e_fr_energy">     12.41367565 </i>
    <i name="e_wo_entrp">     12.44829979 </i>
    <i name="e_0_energy">     12.43098772 </i>
   </energy>
  </scstep>
  <scstep>
   <time name="total">    1.37    1.37</time>
   <energy>
    <i name="e_fr_energy">      6.28939656 </i>
    <i name="e_wo_entrp">      6.34199835 </i>
    <i name="e_0_energy">      6.31569745 </i>
   </energy>
  </scstep>
  <scstep>
   <time name="total">    1.36    1.36</time>
   <energy>
    <i name="e_fr_energy">     14.15302400 </i>
    <i name="e_wo_entrp">     14.18659137 </i>
    <i name="e_0_energy">     14.16980768 </i>
   </energy>
  </scstep>
  <scstep>
   <time name="total">    1.37    1.37</time>
   <energy>
    <i name="e_fr_energy">     28.64080850 </i>
    <i name="e_wo_entrp">     28.69066146 </i>
    <i name="e_0_energy">     28.66573498 </i>
   </energy>
  </scstep>
  <scstep>
   <time name="total">    1.35    1.35</time>
   <energy>
    <i name="e_fr_energy">     15.36774846 </i>
    <i name="e_wo_entrp">     15.41430800 </i>
    <i name="e_0_energy">     15.39102823 </i>
   </energy>
  </scstep>
  <scstep>
   <time name="total">    1.35    1.35</time>
   <energy>
    <i name="e_fr_energy">      4.09997697 </i>
    <i name="e_wo_entrp">      4.13517826 </i>
    <i name="e_0_energy">      4.11757762 </i>
   </energy>
  </scstep>
  <scstep>
   <time name="total">    1.37    1.37</time>
   <energy>
    <i name="e_fr_energy">      0.91310760 </i>
    <i name="e_wo_entrp">      0.98264512 </i>
    <i name="e_0_energy">      0.94787636 </i>
   </energy>
  </scstep>
  <scstep>
   <time name="total">    1.38    1.39</time>
   <energy>
    <i name="e_fr_energy">     13.52291750 </i>
    <i name="e_wo_entrp">     13.52291750 </i>
    <i name="e_0_energy">     13.52291750 </i>
   </energy>
  </scstep>
  <scstep>
   <time name="total">    1.36    1.36</time>
   <energy>
    <i name="e_fr_energy">     55.19808310 </i>
    <i name="e_wo_entrp">     55.20227581 </i>
    <i name="e_0_energy">     55.20017945 </i>
   </energy>
  </scstep>
  <scstep>
   <time name="total">    1.37    1.37</time>
   <energy>
    <i name="e_fr_energy">     22.13183118 </i>
    <i name="e_wo_entrp">     22.13271634 </i>
    <i name="e_0_energy">     22.13227376 </i>
   </energy>
  </scstep>
  <scstep>
   <time name="total">    1.36    1.36</time>
   <energy>
    <i name="e_fr_energy">      2.11392075 </i>
    <i name="e_wo_entrp">      2.11392075 </i>
    <i name="e_0_energy">      2.11392075 </i>
   </energy>
  </scstep>
  <scstep>
   <time name="total">    1.35    1.35</time>
   <energy>
    <i name="e_fr_energy">      1.51960370 </i>
    <i name="e_wo_entrp">      1.52555883 </i>
    <i name="e_0_energy">      1.52258127 </i>
   </energy>
  </scstep>
  <scstep>
   <time name="total">    1.34    1.34</time>
   <energy>
    <i name="e_fr_energy">      0.32736855 </i>
    <i name="e_wo_entrp">      0.35957629 </i>
    <i name="e_0_energy">      0.34347242 </i>
   </energy>
  </scstep>
  <scstep>
   <time name="total">    1.36    1.36</time>
   <energy>
    <i name="e_fr_energy">     12.12633906 </i>
    <i name="e_wo_entrp">     12.14465900 </i>
    <i name="e_0_energy">     12.13549903 </i>
   </energy>
  </scstep>
  <scstep>
   <time name="total">    1.36    1.36</time>
   <energy>
    <i name="e_fr_energy">     26.06055282 </i>
    <i name="e_wo_entrp">     26.09343415 </i>
    <i name="e_0_energy">     26.07699348 </i>
   </energy>
  </scstep>
  <scstep>
   <time name="total">    1.36    1.36</time>
   <energy>
    <i name="e_fr_energy">     13.15740958 </i>
    <i name="e_wo_entrp">     13.15743447 </i>
    <i name="e_0_energy">     13.15742202 </i>
   </energy>
  </scstep>
  <scstep>
   <time name="total">    1.35    1.35</time>
   <energy>
    <i name="e_fr_energy">      2.20299265 </i>
    <i name="e_wo_entrp">      2.20299265 </i>
    <i name="e_0_energy">      2.20299265 </i>
   </energy>
  </scstep>
  <scstep>
   <time name="total">    1.35    1.35</time>
   <energy>
    <i name="e_fr_energy">      0.79495931 </i>
    <i name="e_wo_entrp">      0.82804383 </i>
    <i name="e_0_energy">      0.81150157 </i>
   </energy>
  </scstep>
  <scstep>
   <time name="total">    1.35    1.35</time>
   <energy>
    <i name="e_fr_energy">      6.67710836 </i>
    <i name="e_wo_entrp">      6.69094959 </i>
    <i name="e_0_energy">      6.68402897 </i>
   </energy>
  </scstep>
  <scstep>
   <time name="total">    1.36    1.36</time>
   <energy>
    <i name="e_fr_energy">     13.87459196 </i>
    <i name="e_wo_entrp">     13.90484403 </i>
    <i name="e_0_energy">     13.88971799 </i>
   </energy>
  </scstep>
  <scstep>
   <time name="total">    1.36    1.36</time>
   <energy>
    <i name="e_fr_energy">     12.41120009 </i>
    <i name="e_wo_entrp">     12.41124114 </i>
    <i name="e_0_energy">     12.41122061 </i>
   </energy>
  </scstep>
  <scstep>
   <time name="total">    1.35    1.35</time>
   <energy>
    <i name="e_fr_energy">     18.19575639 </i>
    <i name="e_wo_entrp">     18.24665846 </i>
    <i name="e_0_energy">     18.22120743 </i>
   </energy>
  </scstep>
  <scstep>
   <time name="total">    1.36    1.36</time>
   <energy>
    <i name="e_fr_energy">     13.74492765 </i>
    <i name="e_wo_entrp">     13.74563911 </i>
    <i name="e_0_energy">     13.74528338 </i>
   </energy>
  </scstep>
  <scstep>
   <time name="total">    1.35    1.35</time>
   <energy>
    <i name="e_fr_energy">     18.68821333 </i>
    <i name="e_wo_entrp">     18.75027357 </i>
    <i name="e_0_energy">     18.71924345 </i>
   </energy>
  </scstep>
  <scstep>
   <time name="total">    1.35    1.35</time>
   <energy>
    <i name="e_fr_energy">     14.68204944 </i>
    <i name="e_wo_entrp">     14.68586718 </i>
    <i name="e_0_energy">     14.68395831 </i>
   </energy>
  </scstep>
  <scstep>
   <time name="total">    1.35    1.35</time>
   <energy>
    <i name="e_fr_energy">      2.32670551 </i>
    <i name="e_wo_entrp">      2.32670551 </i>
    <i name="e_0_energy">      2.32670551 </i>
   </energy>
  </scstep>
  <scstep>
   <time name="total">    1.36    1.36</time>
   <energy>
    <i name="e_fr_energy">      1.23107493 </i>
    <i name="e_wo_entrp">      1.28578187 </i>
    <i name="e_0_energy">      1.25842840 </i>
   </energy>
  </scstep>
  <scstep>
   <time name="total">    1.36    1.36</time>
   <energy>
    <i name="e_fr_energy">      2.50477869 </i>
    <i name="e_wo_entrp">      2.50477870 </i>
    <i name="e_0_energy">      2.50477869 </i>
   </energy>
  </scstep>
  <scstep>
   <time name="total">    1.35    1.35</time>
   <energy>
    <i name="e_fr_energy">      0.50245558 </i>
    <i name="e_wo_entrp">      0.54188534 </i>
    <i name="e_0_energy">      0.52217046 </i>
   </energy>
  </scstep>
  <scstep>
   <time name="total">    1.36    1.36</time>
   <energy>
    <i name="e_fr_energy">     -0.83750857 </i>
    <i name="e_wo_entrp">     -0.76823593 </i>
    <i name="e_0_energy">     -0.80287225 </i>
   </energy>
  </scstep>
  <scstep>
   <time name="total">    1.38    1.39</time>
   <energy>
    <i name="e_fr_energy">      2.99121410 </i>
    <i name="e_wo_entrp">      2.99121435 </i>
    <i name="e_0_energy">      2.99121423 </i>
   </energy>
  </scstep>
  <scstep>
   <time name="total">    1.34    1.34</time>
   <energy>
    <i name="e_fr_energy">      0.71286578 </i>
    <i name="e_wo_entrp">      0.71287056 </i>
    <i name="e_0_energy">      0.71286817 </i>
   </energy>
  </scstep>
  <scstep>
   <time name="total">    1.35    1.35</time>
   <energy>
    <i name="e_fr_energy">      0.06586200 </i>
    <i name="e_wo_entrp">      0.12790521 </i>
    <i name="e_0_energy">      0.09688361 </i>
   </energy>
  </scstep>
  <scstep>
   <time name="total">    1.36    1.36</time>
   <energy>
    <i name="e_fr_energy">     10.95687840 </i>
    <i name="e_wo_entrp">     10.97192033 </i>
    <i name="e_0_energy">     10.96439936 </i>
   </energy>
  </scstep>
  <scstep>
   <time name="total">    1.36    1.36</time>
   <energy>
    <i name="e_fr_energy">     50.66051742 </i>
    <i name="e_wo_entrp">     50.68299287 </i>
    <i name="e_0_energy">     50.67175515 </i>
   </energy>
  </scstep>
  <scstep>
   <time name="total">    1.37    1.37</time>
   <energy>
    <i name="e_fr_energy">     18.18462998 </i>
    <i name="e_wo_entrp">     18.18496316 </i>
    <i name="e_0_energy">     18.18479657 </i>
   </energy>
  </scstep>
  <scstep>
   <time name="total">    1.36    1.36</time>
   <energy>
    <i name="e_fr_energy">      1.08877883 </i>
    <i name="e_wo_entrp">      1.08877883 </i>
    <i name="e_0_energy">      1.08877883 </i>
   </energy>
  </scstep>
  <scstep>
   <time name="total">    1.36    1.36</time>
   <energy>
    <i name="e_fr_energy">      0.71049163 </i>
    <i name="e_wo_entrp">      0.71049163 </i>
    <i name="e_0_energy">      0.71049163 </i>
   </energy>
  </scstep>
  <scstep>
   <time name="total">    1.35    1.35</time>
   <energy>
    <i name="e_fr_energy">     -0.39117166 </i>
    <i name="e_wo_entrp">     -0.34034914 </i>
    <i name="e_0_energy">     -0.36576040 </i>
   </energy>
  </scstep>
  <scstep>
   <time name="total">    1.35    1.35</time>
   <energy>
    <i name="e_fr_energy">      2.19519312 </i>
    <i name="e_wo_entrp">      2.19519312 </i>
    <i name="e_0_energy">      2.19519312 </i>
   </energy>
  </scstep>
  <scstep>
   <time name="total">    1.35    1.35</time>
   <energy>
    <i name="e_fr_energy">      0.16076614 </i>
    <i name="e_wo_entrp">      0.16084692 </i>
    <i name="e_0_energy">      0.16080653 </i>
   </energy>
  </scstep>
  <scstep>
   <time name="total">    1.36    1.36</time>
   <energy>
    <i name="e_fr_energy">     -0.12608299 </i>
    <i name="e_wo_entrp">     -0.04955573 </i>
    <i name="e_0_energy">     -0.08781936 </i>
   </energy>
  </scstep>
  <scstep>
   <time name="total">    1.37    1.37</time>
   <energy>
    <i name="e_fr_energy">     11.55862518 </i>
    <i name="e_wo_entrp">     11.55950626 </i>
    <i name="e_0_energy">     11.55906572 </i>
   </energy>
  </scstep>
  <scstep>
   <time name="total">    1.35    1.35</time>
   <energy>
    <i name="e_fr_energy">     52.10470590 </i>
    <i name="e_wo_entrp">     52.11954706 </i>
    <i name="e_0_energy">     52.11212648 </i>
   </energy>
  </scstep>
  <scstep>
   <time name="total">    1.36    1.36</time>
   <energy>
    <i name="e_fr_energy">     18.43845092 </i>
    <i name="e_wo_entrp">     18.43845354 </i>
    <i name="e_0_energy">     18.43845223 </i>
   </energy>
  </scstep>
  <scstep>
   <time name="total">    1.35    1.35</time>
   <energy>
    <i name="e_fr_energy">      1.01232320 </i>
    <i name="e_wo_entrp">      1.01232320 </i>
    <i name="e_0_energy">      1.01232320 </i>
   </energy>
  </scstep>
  <scstep>
   <time name="total">    1.36    1.36</time>
   <energy>
    <i name="e_fr_energy">      0.88393082 </i>
    <i name="e_wo_entrp">      0.88393082 </i>
    <i name="e_0_energy">      0.88393082 </i>
   </energy>
  </scstep>
  <scstep>
   <time name="total">    1.35    1.35</time>
   <energy>
    <i name="e_fr_energy">     -0.04102599 </i>
    <i name="e_wo_entrp">     -0.01252242 </i>
    <i name="e_0_energy">     -0.02677420 </i>
   </energy>
  </scstep>
  <scstep>
   <time name="total">    1.36    1.36</time>
   <energy>
    <i name="e_fr_energy">      1.90162605 </i>
    <i name="e_wo_entrp">      1.90162605 </i>
    <i name="e_0_energy">      1.90162605 </i>
   </energy>
  </scstep>
  <scstep>
   <time name="total">    1.35    1.35</time>
   <energy>
    <i name="e_fr_energy">      0.14985298 </i>
    <i name="e_wo_entrp">      0.15452363 </i>
    <i name="e_0_energy">      0.15218830 </i>
   </energy>
  </scstep>
  <scstep>
   <time name="total">    1.35    1.35</time>
   <energy>
    <i name="e_fr_energy">     -0.19717883 </i>
    <i name="e_wo_entrp">     -0.18357408 </i>
    <i name="e_0_energy">     -0.19037645 </i>
   </energy>
  </scstep>
  <scstep>
   <time name="total">    1.36    1.36</time>
   <energy>
    <i name="e_fr_energy">     10.90392704 </i>
    <i name="e_wo_entrp">     10.92062626 </i>
    <i name="e_0_energy">     10.91227665 </i>
   </energy>
  </scstep>
  <scstep>
   <time name="total">    1.39    1.39</time>
   <energy>
    <i name="e_fr_energy">     50.95638448 </i>
    <i name="e_wo_entrp">     50.95664650 </i>
    <i name="e_0_energy">     50.95651549 </i>
   </energy>
  </scstep>
  <scstep>
   <time name="total">    1.39    1.39</time>
   <energy>
    <i name="e_fr_energy">     17.62913657 </i>
    <i name="e_wo_entrp">     17.62913657 </i>
    <i name="e_0_energy">     17.62913657 </i>
   </energy>
  </scstep>
  <scstep>
   <time name="total">    1.35    1.35</time>
   <energy>
    <i name="e_fr_energy">      0.94844532 </i>
    <i name="e_wo_entrp">      0.94844532 </i>
    <i name="e_0_energy">      0.94844532 </i>
   </energy>
  </scstep>
  <scstep>
   <time name="total">    1.35    1.35</time>
   <energy>
    <i name="e_fr_energy">      0.54043034 </i>
    <i name="e_wo_entrp">      0.54043034 </i>
    <i name="e_0_energy">      0.54043034 </i>
   </energy>
  </scstep>
  <scstep>
   <time name="total">    1.36    1.36</time>
   <energy>
    <i name="e_fr_energy">     -0.45241114 </i>
    <i name="e_wo_entrp">     -0.40390778 </i>
    <i name="e_0_energy">     -0.42815946 </i>
   </energy>
  </scstep>
  <scstep>
   <time name="total">    1.35    1.35</time>
   <energy>
    <i name="e_fr_energy">      2.10546188 </i>
    <i name="e_wo_entrp">      2.10546188 </i>
    <i name="e_0_energy">      2.10546188 </i>
   </energy>
  </scstep>
  <scstep>
   <time name="total">    1.35    1.35</time>
   <energy>
    <i name="e_fr_energy">      0.00683894 </i>
    <i name="e_wo_entrp">      0.00683966 </i>
    <i name="e_0_energy">      0.00683930 </i>
   </energy>
  </scstep>
  <scstep>
   <time name="total">    1.36    1.36</time>
   <energy>
    <i name="e_fr_energy">     -0.22935614 </i>
    <i name="e_wo_entrp">     -0.18021692 </i>
    <i name="e_0_energy">     -0.20478653 </i>
   </energy>
  </scstep>
  <scstep>
   <time name="total">    1.36    1.36</time>
   <energy>
    <i name="e_fr_energy">     11.15365499 </i>
    <i name="e_wo_entrp">     11.18955739 </i>
    <i name="e_0_energy">     11.17160619 </i>
   </energy>
  </scstep>
  <scstep>
   <time name="total">    1.35    1.35</time>
   <energy>
    <i name="e_fr_energy">     50.80999035 </i>
    <i name="e_wo_entrp">     50.81081076 </i>
    <i name="e_0_energy">     50.81040056 </i>
   </energy>
  </scstep>
  <scstep>
   <time name="total">    1.36    1.36</time>
   <energy>
    <i name="e_fr_energy">     17.84195023 </i>
    <i name="e_wo_entrp">     17.86702145 </i>
    <i name="e_0_energy">     17.85448584 </i>
   </energy>
  </scstep>
  <scstep>
   <time name="total">    1.35    1.35</time>
   <energy>
    <i name="e_fr_energy">      1.07371416 </i>
    <i name="e_wo_entrp">      1.08156895 </i>
    <i name="e_0_energy">      1.07764156 </i>
   </energy>
  </scstep>
  <scstep>
   <time name="total">    1.35    1.35</time>
   <energy>
    <i name="e_fr_energy">     13.15793878 </i>
    <i name="e_wo_entrp">     13.15799729 </i>
    <i name="e_0_energy">     13.15796803 </i>
   </energy>
  </scstep>
  <scstep>
   <time name="total">    1.35    1.36</time>
   <energy>
    <i name="e_fr_energy">     18.50486553 </i>
    <i name="e_wo_entrp">     18.50486840 </i>
    <i name="e_0_energy">     18.50486697 </i>
   </energy>
  </scstep>
  <scstep>
   <time name="total">    1.36    1.36</time>
   <energy>
    <i name="e_fr_energy">     17.45794585 </i>
    <i name="e_wo_entrp">     17.45799080 </i>
    <i name="e_0_energy">     17.45796833 </i>
   </energy>
  </scstep>
  <scstep>
   <time name="total">    1.36    1.36</time>
   <energy>
    <i name="e_fr_energy">     15.02986249 </i>
    <i name="e_wo_entrp">     15.03026020 </i>
    <i name="e_0_energy">     15.03006135 </i>
   </energy>
  </scstep>
  <scstep>
   <time name="total">    1.35    1.35</time>
   <energy>
    <i name="e_fr_energy">     19.36799633 </i>
    <i name="e_wo_entrp">     19.36800307 </i>
    <i name="e_0_energy">     19.36799970 </i>
   </energy>
  </scstep>
  <scstep>
   <time name="total">    1.35    1.35</time>
   <energy>
    <i name="e_fr_energy">     14.52331923 </i>
    <i name="e_wo_entrp">     14.55151553 </i>
    <i name="e_0_energy">     14.53741738 </i>
   </energy>
  </scstep>
  <scstep>
   <time name="total">    1.35    1.35</time>
   <energy>
    <i name="e_fr_energy">      3.62186182 </i>
    <i name="e_wo_entrp">      3.62186182 </i>
    <i name="e_0_energy">      3.62186182 </i>
   </energy>
  </scstep>
  <scstep>
   <time name="total">    1.35    1.35</time>
   <energy>
    <i name="e_fr_energy">      0.64685261 </i>
    <i name="e_wo_entrp">      0.67529738 </i>
    <i name="e_0_energy">      0.66107499 </i>
   </energy>
  </scstep>
  <scstep>
   <time name="total">    1.35    1.35</time>
   <energy>
    <i name="e_fr_energy">      1.22723135 </i>
    <i name="e_wo_entrp">      1.24666689 </i>
    <i name="e_0_energy">      1.23694912 </i>
   </energy>
  </scstep>
  <scstep>
   <time name="total">    1.36    1.36</time>
   <energy>
    <i name="e_fr_energy">     -0.01940358 </i>
    <i name="e_wo_entrp">     -0.01928265 </i>
    <i name="e_0_energy">     -0.01934311 </i>
   </energy>
  </scstep>
  <scstep>
   <time name="total">    1.35    1.35</time>
   <energy>
    <i name="e_fr_energy">     -0.43183490 </i>
    <i name="e_wo_entrp">     -0.41850779 </i>
    <i name="e_0_energy">     -0.42517134 </i>
   </energy>
  </scstep>
  <scstep>
   <time name="total">    1.36    1.36</time>
   <energy>
    <i name="e_fr_energy">     11.23786321 </i>
    <i name="e_wo_entrp">     11.27550678 </i>
    <i name="e_0_energy">     11.25668500 </i>
   </energy>
  </scstep>
  <scstep>
   <time name="total">    1.38    1.39</time>
   <energy>
    <i name="e_fr_energy">     39.80836170 </i>
    <i name="e_wo_entrp">     39.80908272 </i>
    <i name="e_0_energy">     39.80872221 </i>
   </energy>
  </scstep>
  <scstep>
   <time name="total">    1.36    1.36</time>
   <energy>
    <i name="e_fr_energy">     15.82937432 </i>
    <i name="e_wo_entrp">     15.83752325 </i>
    <i name="e_0_energy">     15.83344879 </i>
   </energy>
  </scstep>
  <scstep>
   <time name="total">    1.35    1.35</time>
   <energy>
    <i name="e_fr_energy">      1.53671582 </i>
    <i name="e_wo_entrp">      1.53671582 </i>
    <i name="e_0_energy">      1.53671582 </i>
   </energy>
  </scstep>
  <scstep>
   <time name="total">    1.35    1.35</time>
   <energy>
    <i name="e_fr_energy">      0.56669969 </i>
    <i name="e_wo_entrp">      0.56669969 </i>
    <i name="e_0_energy">      0.56669969 </i>
   </energy>
  </scstep>
  <scstep>
   <time name="total">    1.35    1.35</time>
   <energy>
    <i name="e_fr_energy">     -0.40044693 </i>
    <i name="e_wo_entrp">     -0.35639887 </i>
    <i name="e_0_energy">     -0.37842290 </i>
   </energy>
  </scstep>
  <scstep>
   <time name="total">    1.36    1.36</time>
   <energy>
    <i name="e_fr_energy">     12.07112433 </i>
    <i name="e_wo_entrp">     12.08115737 </i>
    <i name="e_0_energy">     12.07614085 </i>
   </energy>
  </scstep>
  <scstep>
   <time name="total">    1.36    1.36</time>
   <energy>
    <i name="e_fr_energy">     52.67567709 </i>
    <i name="e_wo_entrp">     52.67568523 </i>
    <i name="e_0_energy">     52.67568116 </i>
   </energy>
  </scstep>
  <scstep>
   <time name="total">    1.36    1.36</time>
   <energy>
    <i name="e_fr_energy">     18.09109688 </i>
    <i name="e_wo_entrp">     18.12659184 </i>
    <i name="e_0_energy">     18.10884436 </i>
   </energy>
  </scstep>
  <scstep>
   <time name="total">    1.35    1.35</time>
   <energy>
    <i name="e_fr_energy">      1.09071610 </i>
    <i name="e_wo_entrp">      1.09299734 </i>
    <i name="e_0_energy">      1.09185672 </i>
   </energy>
  </scstep>
  <scstep>
   <time name="total">    1.35    1.35</time>
   <energy>
    <i name="e_fr_energy">     12.91398049 </i>
    <i name="e_wo_entrp">     12.91398757 </i>
    <i name="e_0_energy">     12.91398403 </i>
   </energy>
  </scstep>
  <scstep>
   <time name="total">    1.36    1.36</time>
   <energy>
    <i name="e_fr_energy">     18.55853540 </i>
    <i name="e_wo_entrp">     18.55853540 </i>
    <i name="e_0_energy">     18.55853540 </i>
   </energy>
  </scstep>
  <scstep>
   <time name="total">    1.35    1.35</time>
   <energy>
    <i name="e_fr_energy">     16.33738358 </i>
    <i name="e_wo_entrp">     16.33739809 </i>
    <i name="e_0_energy">     16.33739084 </i>
   </energy>
  </scstep>
  <scstep>
   <time name="total">    1.36    1.36</time>
   <energy>
    <i name="e_fr_energy">     14.98212098 </i>
    <i name="e_wo_entrp">     14.98212105 </i>
    <i name="e_0_energy">     14.98212102 </i>
   </energy>
  </scstep>
  <scstep>
   <time name="total">    1.35    1.35</time>
   <energy>
    <i name="e_fr_energy">     18.46318377 </i>
    <i name="e_wo_entrp">     18.46318526 </i>
    <i name="e_0_energy">     18.46318452 </i>
   </energy>
  </scstep>
  <scstep>
   <time name="total">    1.35    1.35</time>
   <energy>
    <i name="e_fr_energy">     14.63252069 </i>
    <i name="e_wo_entrp">     14.63508344 </i>
    <i name="e_0_energy">     14.63380206 </i>
   </energy>
  </scstep>
  <scstep>
   <time name="total">    1.35    1.35</time>
   <energy>
    <i name="e_fr_energy">     16.88906711 </i>
    <i name="e_wo_entrp">     16.88914391 </i>
    <i name="e_0_energy">     16.88910551 </i>
   </energy>
  </scstep>
  <scstep>
   <time name="total">    1.36    1.36</time>
   <energy>
    <i name="e_fr_energy">     14.69606188 </i>
    <i name="e_wo_entrp">     14.69606191 </i>
    <i name="e_0_energy">     14.69606190 </i>
   </energy>
  </scstep>
  <scstep>
   <time name="total">    1.35    1.35</time>
   <energy>
    <i name="e_fr_energy">     16.90469992 </i>
    <i name="e_wo_entrp">     16.92311277 </i>
    <i name="e_0_energy">     16.91390634 </i>
   </energy>
  </scstep>
  <scstep>
   <time name="total">    1.36    1.36</time>
   <energy>
    <i name="e_fr_energy">     14.53852615 </i>
    <i name="e_wo_entrp">     14.53858127 </i>
    <i name="e_0_energy">     14.53855371 </i>
   </energy>
  </scstep>
  <scstep>
   <time name="total">    1.35    1.35</time>
   <energy>
    <i name="e_fr_energy">     17.27212055 </i>
    <i name="e_wo_entrp">     17.27354259 </i>
    <i name="e_0_energy">     17.27283157 </i>
   </energy>
  </scstep>
  <scstep>
   <time name="total">    1.36    1.36</time>
   <energy>
    <i name="e_fr_energy">     14.80130595 </i>
    <i name="e_wo_entrp">     14.80130595 </i>
    <i name="e_0_energy">     14.80130595 </i>
   </energy>
  </scstep>
  <scstep>
   <time name="total">    1.38    1.38</time>
   <energy>
    <i name="e_fr_energy">     17.33802094 </i>
    <i name="e_wo_entrp">     17.35852223 </i>
    <i name="e_0_energy">     17.34827158 </i>
   </energy>
  </scstep>
  <scstep>
   <time name="total">    1.36    1.36</time>
   <energy>
    <i name="e_fr_energy">     11.69043624 </i>
    <i name="e_wo_entrp">     11.71818135 </i>
    <i name="e_0_energy">     11.70430879 </i>
   </energy>
  </scstep>
  <scstep>
   <time name="total">    1.36    1.36</time>
   <energy>
    <i name="e_fr_energy">      5.73877597 </i>
    <i name="e_wo_entrp">      5.73878169 </i>
    <i name="e_0_energy">      5.73877883 </i>
   </energy>
  </scstep>
  <scstep>
   <time name="total">    1.36    1.37</time>
   <energy>
    <i name="e_fr_energy">     -0.18459760 </i>
    <i name="e_wo_entrp">     -0.13041167 </i>
    <i name="e_0_energy">     -0.15750463 </i>
   </energy>
  </scstep>
  <scstep>
   <time name="total">    1.36    1.36</time>
   <energy>
    <i name="e_fr_energy">      2.27635176 </i>
    <i name="e_wo_entrp">      2.27635275 </i>
    <i name="e_0_energy">      2.27635226 </i>
   </energy>
  </scstep>
  <scstep>
   <time name="total">    1.36    1.36</time>
   <energy>
    <i name="e_fr_energy">     -0.19596414 </i>
    <i name="e_wo_entrp">     -0.19574422 </i>
    <i name="e_0_energy">     -0.19585418 </i>
   </energy>
  </scstep>
  <scstep>
   <time name="total">    1.35    1.35</time>
   <energy>
    <i name="e_fr_energy">     -0.62116437 </i>
    <i name="e_wo_entrp">     -0.55195317 </i>
    <i name="e_0_energy">     -0.58655877 </i>
   </energy>
  </scstep>
  <scstep>
   <time name="total">    1.35    1.35</time>
   <energy>
    <i name="e_fr_energy">      7.05566491 </i>
    <i name="e_wo_entrp">      7.06307286 </i>
    <i name="e_0_energy">      7.05936888 </i>
   </energy>
  </scstep>
  <scstep>
   <time name="total">    1.36    1.36</time>
   <energy>
    <i name="e_fr_energy">     15.49566196 </i>
    <i name="e_wo_entrp">     15.51226339 </i>
    <i name="e_0_energy">     15.50396267 </i>
   </energy>
  </scstep>
  <scstep>
   <time name="total">    1.35    1.35</time>
   <energy>
    <i name="e_fr_energy">     12.58912759 </i>
    <i name="e_wo_entrp">     12.58913787 </i>
    <i name="e_0_energy">     12.58913273 </i>
   </energy>
  </scstep>
  <scstep>
   <time name="total">    1.35    1.35</time>
   <energy>
    <i name="e_fr_energy">     17.04114577 </i>
    <i name="e_wo_entrp">     17.04313319 </i>
    <i name="e_0_energy">     17.04213948 </i>
   </energy>
  </scstep>
  <scstep>
   <time name="total">    1.37    1.37</time>
   <energy>
    <i name="e_fr_energy">     14.04086997 </i>
    <i name="e_wo_entrp">     14.04086997 </i>
    <i name="e_0_energy">     14.04086997 </i>
   </energy>
  </scstep>
  <scstep>
   <time name="total">    1.35    1.35</time>
   <energy>
    <i name="e_fr_energy">     17.13149999 </i>
    <i name="e_wo_entrp">     17.15007082 </i>
    <i name="e_0_energy">     17.14078540 </i>
   </energy>
  </scstep>
  <scstep>
   <time name="total">    1.36    1.36</time>
   <energy>
    <i name="e_fr_energy">     12.02231687 </i>
    <i name="e_wo_entrp">     12.02231721 </i>
    <i name="e_0_energy">     12.02231704 </i>
   </energy>
  </scstep>
  <scstep>
   <time name="total">    1.34    1.34</time>
   <energy>
    <i name="e_fr_energy">     16.31900072 </i>
    <i name="e_wo_entrp">     16.37945739 </i>
    <i name="e_0_energy">     16.34922906 </i>
   </energy>
  </scstep>
  <scstep>
   <time name="total">    1.35    1.35</time>
   <energy>
    <i name="e_fr_energy">     14.74107591 </i>
    <i name="e_wo_entrp">     14.74114581 </i>
    <i name="e_0_energy">     14.74111086 </i>
   </energy>
  </scstep>
  <scstep>
   <time name="total">    1.35    1.35</time>
   <energy>
    <i name="e_fr_energy">     17.28102854 </i>
    <i name="e_wo_entrp">     17.30208953 </i>
    <i name="e_0_energy">     17.29155903 </i>
   </energy>
  </scstep>
  <scstep>
   <time name="total">    1.36    1.36</time>
   <energy>
    <i name="e_fr_energy">     15.01537414 </i>
    <i name="e_wo_entrp">     15.01568118 </i>
    <i name="e_0_energy">     15.01552766 </i>
   </energy>
  </scstep>
  <scstep>
   <time name="total">    1.35    1.35</time>
   <energy>
    <i name="e_fr_energy">     17.78064460 </i>
    <i name="e_wo_entrp">     17.78326973 </i>
    <i name="e_0_energy">     17.78195717 </i>
   </energy>
  </scstep>
  <scstep>
   <time name="total">    1.36    1.36</time>
   <energy>
    <i name="e_fr_energy">     14.82629908 </i>
    <i name="e_wo_entrp">     14.83347087 </i>
    <i name="e_0_energy">     14.82988497 </i>
   </energy>
  </scstep>
  <scstep>
   <time name="total">    1.35    1.35</time>
   <energy>
    <i name="e_fr_energy">     16.42283865 </i>
    <i name="e_wo_entrp">     16.42349558 </i>
    <i name="e_0_energy">     16.42316712 </i>
   </energy>
  </scstep>
  <scstep>
   <time name="total">    1.35    1.35</time>
   <energy>
    <i name="e_fr_energy">     14.50049055 </i>
    <i name="e_wo_entrp">     14.50049056 </i>
    <i name="e_0_energy">     14.50049055 </i>
   </energy>
  </scstep>
  <scstep>
   <time name="total">    1.36    1.36</time>
   <energy>
    <i name="e_fr_energy">     16.90242994 </i>
    <i name="e_wo_entrp">     16.90247310 </i>
    <i name="e_0_energy">     16.90245152 </i>
   </energy>
  </scstep>
  <scstep>
   <time name="total">    1.35    1.35</time>
   <energy>
    <i name="e_fr_energy">     14.61523734 </i>
    <i name="e_wo_entrp">     14.61523734 </i>
    <i name="e_0_energy">     14.61523734 </i>
   </energy>
  </scstep>
  <scstep>
   <time name="total">    1.35    1.35</time>
   <energy>
    <i name="e_fr_energy">     16.62167698 </i>
    <i name="e_wo_entrp">     16.65203346 </i>
    <i name="e_0_energy">     16.63685522 </i>
   </energy>
  </scstep>
  <scstep>
   <time name="total">    1.35    1.36</time>
   <energy>
    <i name="e_fr_energy">      2.10310411 </i>
    <i name="e_wo_entrp">      2.10313207 </i>
    <i name="e_0_energy">      2.10311809 </i>
   </energy>
  </scstep>
  <scstep>
   <time name="total">    1.36    1.36</time>
   <energy>
    <i name="e_fr_energy">     -0.52915843 </i>
    <i name="e_wo_entrp">     -0.52848032 </i>
    <i name="e_0_energy">     -0.52881937 </i>
   </energy>
  </scstep>
  <scstep>
   <time name="total">    1.36    1.36</time>
   <energy>
    <i name="e_fr_energy">     -0.81389275 </i>
    <i name="e_wo_entrp">     -0.75868309 </i>
    <i name="e_0_energy">     -0.78628792 </i>
   </energy>
  </scstep>
  <scstep>
   <time name="total">    1.35    1.35</time>
   <energy>
    <i name="e_fr_energy">      0.93124819 </i>
    <i name="e_wo_entrp">      0.93682683 </i>
    <i name="e_0_energy">      0.93403751 </i>
   </energy>
  </scstep>
  <scstep>
   <time name="total">    1.36    1.36</time>
   <energy>
    <i name="e_fr_energy">     -0.39916380 </i>
    <i name="e_wo_entrp">     -0.36542658 </i>
    <i name="e_0_energy">     -0.38229519 </i>
   </energy>
  </scstep>
  <scstep>
   <time name="total">    1.35    1.35</time>
   <energy>
    <i name="e_fr_energy">     -0.72406695 </i>
    <i name="e_wo_entrp">     -0.65689670 </i>
    <i name="e_0_energy">     -0.69048182 </i>
   </energy>
  </scstep>
  <scstep>
   <time name="total">    1.35    1.35</time>
   <energy>
    <i name="e_fr_energy">     11.00249430 </i>
    <i name="e_wo_entrp">     11.00249530 </i>
    <i name="e_0_energy">     11.00249480 </i>
   </energy>
  </scstep>
  <scstep>
   <time name="total">    1.34    1.35</time>
   <energy>
    <i name="e_fr_energy">     18.35927978 </i>
    <i name="e_wo_entrp">     18.42688200 </i>
    <i name="e_0_energy">     18.39308089 </i>
   </energy>
  </scstep>
  <scstep>
   <time name="total">    1.35    1.35</time>
   <energy>
    <i name="e_fr_energy">     11.81089411 </i>
    <i name="e_wo_entrp">     11.87951439 </i>
    <i name="e_0_energy">     11.84520425 </i>
   </energy>
  </scstep>
  <scstep>
   <time name="total">    1.34    1.35</time>
   <energy>
    <i name="e_fr_energy">     47.18162959 </i>
    <i name="e_wo_entrp">     47.18675200 </i>
    <i name="e_0_energy">     47.18419080 </i>
   </energy>
  </scstep>
  <scstep>
   <time name="total">    1.35    1.36</time>
   <energy>
    <i name="e_fr_energy">     21.79862859 </i>
    <i name="e_wo_entrp">     21.87585033 </i>
    <i name="e_0_energy">     21.83723946 </i>
   </energy>
  </scstep>
  <scstep>
   <time name="total">    1.35    1.35</time>
   <energy>
    <i name="e_fr_energy">     14.79100158 </i>
    <i name="e_wo_entrp">     14.82778627 </i>
    <i name="e_0_energy">     14.80939392 </i>
   </energy>
  </scstep>
  <scstep>
   <time name="total">    1.35    1.35</time>
   <energy>
    <i name="e_fr_energy">     -0.71550000 </i>
    <i name="e_wo_entrp">     -0.65327950 </i>
    <i name="e_0_energy">     -0.68438975 </i>
   </energy>
  </scstep>
  <scstep>
   <time name="total">    1.35    1.35</time>
   <energy>
    <i name="e_fr_energy">     17.49567941 </i>
    <i name="e_wo_entrp">     17.53297970 </i>
    <i name="e_0_energy">     17.51432956 </i>
   </energy>
  </scstep>
  <scstep>
   <time name="total">    1.34    1.34</time>
   <energy>
    <i name="e_fr_energy">     50.83777744 </i>
    <i name="e_wo_entrp">     50.83915608 </i>
    <i name="e_0_energy">     50.83846676 </i>
   </energy>
  </scstep>
  <scstep>
   <time name="total">    1.35    1.35</time>
   <energy>
    <i name="e_fr_energy">     20.28565252 </i>
    <i name="e_wo_entrp">     20.28565252 </i>
    <i name="e_0_energy">     20.28565252 </i>
   </energy>
  </scstep>
  <scstep>
   <time name="total">    1.35    1.35</time>
   <energy>
    <i name="e_fr_energy">     14.62048970 </i>
    <i name="e_wo_entrp">     14.65949016 </i>
    <i name="e_0_energy">     14.63998993 </i>
   </energy>
  </scstep>
  <scstep>
   <time name="total">    1.35    1.35</time>
   <energy>
    <i name="e_fr_energy">     14.94006169 </i>
    <i name="e_wo_entrp">     14.94006169 </i>
    <i name="e_0_energy">     14.94006169 </i>
   </energy>
  </scstep>
  <scstep>
   <time name="total">    1.35    1.35</time>
   <energy>
    <i name="e_fr_energy">     15.58427721 </i>
    <i name="e_wo_entrp">     15.63344643 </i>
    <i name="e_0_energy">     15.60886182 </i>
   </energy>
  </scstep>
  <scstep>
   <time name="total">    1.36    1.36</time>
   <energy>
    <i name="e_fr_energy">     13.89078145 </i>
    <i name="e_wo_entrp">     13.89078145 </i>
    <i name="e_0_energy">     13.89078145 </i>
   </energy>
  </scstep>
  <scstep>
   <time name="total">    1.35    1.36</time>
   <energy>
    <i name="e_fr_energy">     16.03861307 </i>
    <i name="e_wo_entrp">     16.10272748 </i>
    <i name="e_0_energy">     16.07067027 </i>
   </energy>
  </scstep>
  <scstep>
   <time name="total">    1.35    1.35</time>
   <energy>
    <i name="e_fr_energy">     14.26013465 </i>
    <i name="e_wo_entrp">     14.26013466 </i>
    <i name="e_0_energy">     14.26013466 </i>
   </energy>
  </scstep>
  <scstep>
   <time name="total">    1.35    1.35</time>
   <energy>
    <i name="e_fr_energy">     16.35420299 </i>
    <i name="e_wo_entrp">     16.40046554 </i>
    <i name="e_0_energy">     16.37733426 </i>
   </energy>
  </scstep>
  <scstep>
   <time name="total">    1.36    1.36</time>
   <energy>
    <i name="e_fr_energy">     -1.00145806 </i>
    <i name="e_wo_entrp">     -0.93073679 </i>
    <i name="e_0_energy">     -0.96609743 </i>
   </energy>
  </scstep>
  <scstep>
   <time name="total">    1.35    1.35</time>
   <energy>
    <i name="e_fr_energy">     14.89787447 </i>
    <i name="e_wo_entrp">     14.89788094 </i>
    <i name="e_0_energy">     14.89787770 </i>
   </energy>
  </scstep>
  <scstep>
   <time name="total">    1.35    1.35</time>
   <energy>
    <i name="e_fr_energy">     18.53299117 </i>
    <i name="e_wo_entrp">     18.59003752 </i>
    <i name="e_0_energy">     18.56151435 </i>
   </energy>
  </scstep>
  <scstep>
   <time name="total">    1.36    1.36</time>
   <energy>
    <i name="e_fr_energy">     12.81400487 </i>
    <i name="e_wo_entrp">     12.85250865 </i>
    <i name="e_0_energy">     12.83325676 </i>
   </energy>
  </scstep>
  <scstep>
   <time name="total">    1.34    1.34</time>
   <energy>
    <i name="e_fr_energy">      1.70571629 </i>
    <i name="e_wo_entrp">      1.74418417 </i>
    <i name="e_0_energy">      1.72495023 </i>
   </energy>
  </scstep>
  <scstep>
   <time name="total">    1.35    1.35</time>
   <energy>
    <i name="e_fr_energy">      0.27243701 </i>
    <i name="e_wo_entrp">      0.31095606 </i>
    <i name="e_0_energy">      0.29169654 </i>
   </energy>
  </scstep>
  <scstep>
   <time name="total">    1.36    1.36</time>
   <energy>
    <i name="e_fr_energy">     -0.95991165 </i>
    <i name="e_wo_entrp">     -0.88176928 </i>
    <i name="e_0_energy">     -0.92084047 </i>
   </energy>
  </scstep>
  <scstep>
   <time name="total">    1.36    1.36</time>
   <energy>
    <i name="e_fr_energy">     13.15217888 </i>
    <i name="e_wo_entrp">     13.17555332 </i>
    <i name="e_0_energy">     13.16386610 </i>
   </energy>
  </scstep>
  <scstep>
   <time name="total">    1.36    1.36</time>
   <energy>
    <i name="e_fr_energy">     19.98250803 </i>
    <i name="e_wo_entrp">     20.06142181 </i>
    <i name="e_0_energy">     20.02196492 </i>
   </energy>
  </scstep>
  <scstep>
   <time name="total">    1.35    1.35</time>
   <energy>
    <i name="e_fr_energy">     12.48619170 </i>
    <i name="e_wo_entrp">     12.51249674 </i>
    <i name="e_0_energy">     12.49934422 </i>
   </energy>
  </scstep>
  <scstep>
   <time name="total">    1.35    1.35</time>
   <energy>
    <i name="e_fr_energy">     13.07095906 </i>
    <i name="e_wo_entrp">     13.10896984 </i>
    <i name="e_0_energy">     13.08996445 </i>
   </energy>
  </scstep>
  <scstep>
   <time name="total">    1.36    1.36</time>
   <energy>
    <i name="e_fr_energy">     -0.79166840 </i>
    <i name="e_wo_entrp">     -0.72979795 </i>
    <i name="e_0_energy">     -0.76073317 </i>
   </energy>
  </scstep>
  <scstep>
   <time name="total">    1.35    1.35</time>
   <energy>
    <i name="e_fr_energy">     14.86040664 </i>
    <i name="e_wo_entrp">     14.86044610 </i>
    <i name="e_0_energy">     14.86042637 </i>
   </energy>
  </scstep>
  <scstep>
   <time name="total">    1.35    1.35</time>
   <energy>
    <i name="e_fr_energy">     19.40334857 </i>
    <i name="e_wo_entrp">     19.43333012 </i>
    <i name="e_0_energy">     19.41833934 </i>
   </energy>
  </scstep>
  <scstep>
   <time name="total">    1.35    1.35</time>
   <energy>
    <i name="e_fr_energy">     12.77932399 </i>
    <i name="e_wo_entrp">     12.77932399 </i>
    <i name="e_0_energy">     12.77932399 </i>
   </energy>
  </scstep>
  <scstep>
   <time name="total">    1.35    1.35</time>
   <energy>
    <i name="e_fr_energy">     19.30031613 </i>
    <i name="e_wo_entrp">     19.30444275 </i>
    <i name="e_0_energy">     19.30237944 </i>
   </energy>
  </scstep>
  <scstep>
   <time name="total">    1.36    1.36</time>
   <energy>
    <i name="e_fr_energy">     14.60273019 </i>
    <i name="e_wo_entrp">     14.60301081 </i>
    <i name="e_0_energy">     14.60287050 </i>
   </energy>
  </scstep>
  <scstep>
   <time name="total">    1.35    1.35</time>
   <energy>
    <i name="e_fr_energy">     17.78604304 </i>
    <i name="e_wo_entrp">     17.78676503 </i>
    <i name="e_0_energy">     17.78640403 </i>
   </energy>
  </scstep>
  <scstep>
   <time name="total">    1.36    1.36</time>
   <energy>
    <i name="e_fr_energy">     14.90205200 </i>
    <i name="e_wo_entrp">     14.90205200 </i>
    <i name="e_0_energy">     14.90205200 </i>
   </energy>
  </scstep>
  <scstep>
   <time name="total">    1.34    1.34</time>
   <energy>
    <i name="e_fr_energy">     16.80229589 </i>
    <i name="e_wo_entrp">     16.80236198 </i>
    <i name="e_0_energy">     16.80232893 </i>
   </energy>
  </scstep>
  <scstep>
   <time name="total">    1.35    1.35</time>
   <energy>
    <i name="e_fr_energy">     14.71850844 </i>
    <i name="e_wo_entrp">     14.71850844 </i>
    <i name="e_0_energy">     14.71850844 </i>
   </energy>
  </scstep>
  <scstep>
   <time name="total">    1.35    1.35</time>
   <energy>
    <i name="e_fr_energy">     16.80415989 </i>
    <i name="e_wo_entrp">     16.80416918 </i>
    <i name="e_0_energy">     16.80416454 </i>
   </energy>
  </scstep>
  <scstep>
   <time name="total">    1.35    1.35</time>
   <energy>
    <i name="e_fr_energy">     14.70736706 </i>
    <i name="e_wo_entrp">     14.70736706 </i>
    <i name="e_0_energy">     14.70736706 </i>
   </energy>
  </scstep>
  <scstep>
   <time name="total">    1.36    1.37</time>
   <energy>
    <i name="e_fr_energy">     17.03706028 </i>
    <i name="e_wo_entrp">     17.04355769 </i>
    <i name="e_0_energy">     17.04030898 </i>
   </energy>
  </scstep>
  <scstep>
   <time name="total">    1.35    1.35</time>
   <energy>
    <i name="e_fr_energy">     -0.85487820 </i>
    <i name="e_wo_entrp">     -0.78277323 </i>
    <i name="e_0_energy">     -0.81882572 </i>
   </energy>
  </scstep>
  <scstep>
   <time name="total">    1.36    1.36</time>
   <energy>
    <i name="e_fr_energy">     16.02736731 </i>
    <i name="e_wo_entrp">     16.02736731 </i>
    <i name="e_0_energy">     16.02736731 </i>
   </energy>
  </scstep>
  <scstep>
   <time name="total">    1.34    1.34</time>
   <energy>
    <i name="e_fr_energy">     18.71896142 </i>
    <i name="e_wo_entrp">     18.77498313 </i>
    <i name="e_0_energy">     18.74697228 </i>
   </energy>
  </scstep>
  <scstep>
   <time name="total">    1.36    1.36</time>
   <energy>
    <i name="e_fr_energy">     12.16853345 </i>
    <i name="e_wo_entrp">     12.20062311 </i>
    <i name="e_0_energy">     12.18457828 </i>
   </energy>
  </scstep>
  <scstep>
   <time name="total">    1.35    1.35</time>
   <energy>
    <i name="e_fr_energy">     10.46640409 </i>
    <i name="e_wo_entrp">     10.46733885 </i>
    <i name="e_0_energy">     10.46687147 </i>
   </energy>
  </scstep>
  <scstep>
   <time name="total">    1.35    1.35</time>
   <energy>
    <i name="e_fr_energy">     -0.54403743 </i>
    <i name="e_wo_entrp">     -0.48819679 </i>
    <i name="e_0_energy">     -0.51611711 </i>
   </energy>
  </scstep>
  <scstep>
   <time name="total">    1.35    1.35</time>
   <energy>
    <i name="e_fr_energy">     13.54338211 </i>
    <i name="e_wo_entrp">     13.54342228 </i>
    <i name="e_0_energy">     13.54340219 </i>
   </energy>
  </scstep>
  <scstep>
   <time name="total">    1.34    1.34</time>
   <energy>
    <i name="e_fr_energy">     18.96851013 </i>
    <i name="e_wo_entrp">     19.03540771 </i>
    <i name="e_0_energy">     19.00195892 </i>
   </energy>
  </scstep>
  <scstep>
   <time name="total">    1.36    1.36</time>
   <energy>
    <i name="e_fr_energy">     12.87250705 </i>
    <i name="e_wo_entrp">     12.90050512 </i>
    <i name="e_0_energy">     12.88650608 </i>
   </energy>
  </scstep>
  <scstep>
   <time name="total">    1.35    1.35</time>
   <energy>
    <i name="e_fr_energy">      2.17388291 </i>
    <i name="e_wo_entrp">      2.17388291 </i>
    <i name="e_0_energy">      2.17388291 </i>
   </energy>
  </scstep>
  <scstep>
   <time name="total">    1.35    1.35</time>
   <energy>
    <i name="e_fr_energy">      0.65876927 </i>
    <i name="e_wo_entrp">      0.66098725 </i>
    <i name="e_0_energy">      0.65987826 </i>
   </energy>
  </scstep>
  <scstep>
   <time name="total">    1.35    1.35</time>
   <energy>
    <i name="e_fr_energy">     -0.53777938 </i>
    <i name="e_wo_entrp">     -0.48569904 </i>
    <i name="e_0_energy">     -0.51173921 </i>
   </energy>
  </scstep>
  <scstep>
   <time name="total">    1.35    1.35</time>
   <energy>
    <i name="e_fr_energy">     12.40525397 </i>
    <i name="e_wo_entrp">     12.40568365 </i>
    <i name="e_0_energy">     12.40546881 </i>
   </energy>
  </scstep>
  <scstep>
   <time name="total">    1.35    1.35</time>
   <energy>
    <i name="e_fr_energy">     20.19362076 </i>
    <i name="e_wo_entrp">     20.20788387 </i>
    <i name="e_0_energy">     20.20075231 </i>
   </energy>
  </scstep>
  <scstep>
   <time name="total">    1.36    1.36</time>
   <energy>
    <i name="e_fr_energy">     11.72299507 </i>
    <i name="e_wo_entrp">     11.72299737 </i>
    <i name="e_0_energy">     11.72299622 </i>
   </energy>
  </scstep>
  <scstep>
   <time name="total">    1.35    1.35</time>
   <energy>
    <i name="e_fr_energy">      2.60549809 </i>
    <i name="e_wo_entrp">      2.60552214 </i>
    <i name="e_0_energy">      2.60551011 </i>
   </energy>
  </scstep>
  <scstep>
   <time name="total">    1.35    1.35</time>
   <energy>
    <i name="e_fr_energy">      0.87581566 </i>
    <i name="e_wo_entrp">      0.91973551 </i>
    <i name="e_0_energy">      0.89777559 </i>
   </energy>
  </scstep>
  <scstep>
   <time name="total">    1.35    1.35</time>
   <energy>
    <i name="e_fr_energy">     11.86783751 </i>
    <i name="e_wo_entrp">     11.86785033 </i>
    <i name="e_0_energy">     11.86784392 </i>
   </energy>
  </scstep>
  <scstep>
   <time name="total">    1.35    1.35</time>
   <energy>
    <i name="e_fr_energy">     18.85353708 </i>
    <i name="e_wo_entrp">     18.85647285 </i>
    <i name="e_0_energy">     18.85500496 </i>
   </energy>
  </scstep>
  <scstep>
   <time name="total">    1.35    1.35</time>
   <energy>
    <i name="e_fr_energy">     12.42251956 </i>
    <i name="e_wo_entrp">     12.42257112 </i>
    <i name="e_0_energy">     12.42254534 </i>
   </energy>
  </scstep>
  <scstep>
   <time name="total">    1.34    1.35</time>
   <energy>
    <i name="e_fr_energy">     17.48389171 </i>
    <i name="e_wo_entrp">     17.48488444 </i>
    <i name="e_0_energy">     17.48438807 </i>
   </energy>
  </scstep>
  <scstep>
   <time name="total">    1.36    1.36</time>
   <energy>
    <i name="e_fr_energy">     14.40495040 </i>
    <i name="e_wo_entrp">     14.40673327 </i>
    <i name="e_0_energy">     14.40584184 </i>
   </energy>
  </scstep>
  <scstep>
   <time name="total">    1.37    1.37</time>
   <energy>
    <i name="e_fr_energy">     17.97604550 </i>
    <i name="e_wo_entrp">     17.97607848 </i>
    <i name="e_0_energy">     17.97606199 </i>
   </energy>
  </scstep>
  <scstep>
   <time name="total">    1.35    1.35</time>
   <energy>
    <i name="e_fr_energy">     14.81771980 </i>
    <i name="e_wo_entrp">     14.81772799 </i>
    <i name="e_0_energy">     14.81772389 </i>
   </energy>
  </scstep>
  <scstep>
   <time name="total">    1.36    1.36</time>
   <energy>
    <i name="e_fr_energy">     19.69315791 </i>
    <i name="e_wo_entrp">     19.69315994 </i>
    <i name="e_0_energy">     19.69315892 </i>
   </energy>
  </scstep>
  <scstep>
   <time name="total">    1.35    1.35</time>
   <energy>
    <i name="e_fr_energy">     15.22545218 </i>
    <i name="e_wo_entrp">     15.22546839 </i>
    <i name="e_0_energy">     15.22546028 </i>
   </energy>
  </scstep>
  <scstep>
   <time name="total">    1.35    1.35</time>
   <energy>
    <i name="e_fr_energy">     20.86129466 </i>
    <i name="e_wo_entrp">     20.86129651 </i>
    <i name="e_0_energy">     20.86129558 </i>
   </energy>
  </scstep>
  <scstep>
   <time name="total">    1.36    1.36</time>
   <energy>
    <i name="e_fr_energy">     15.98110683 </i>
    <i name="e_wo_entrp">     15.98173790 </i>
    <i name="e_0_energy">     15.98142236 </i>
   </energy>
  </scstep>
  <scstep>
   <time name="total">    1.35    1.35</time>
   <energy>
    <i name="e_fr_energy">     21.91981993 </i>
    <i name="e_wo_entrp">     21.93296843 </i>
    <i name="e_0_energy">     21.92639418 </i>
   </energy>
  </scstep>
  <scstep>
   <time name="total">    1.36    1.36</time>
   <energy>
    <i name="e_fr_energy">     16.35544015 </i>
    <i name="e_wo_entrp">     16.36069680 </i>
    <i name="e_0_energy">     16.35806848 </i>
   </energy>
  </scstep>
  <scstep>
   <time name="total">    1.35    1.35</time>
   <energy>
    <i name="e_fr_energy">      4.57109810 </i>
    <i name="e_wo_entrp">      4.57109810 </i>
    <i name="e_0_energy">      4.57109810 </i>
   </energy>
  </scstep>
  <scstep>
   <time name="total">    1.35    1.35</time>
   <energy>
    <i name="e_fr_energy">      0.95393950 </i>
    <i name="e_wo_entrp">      0.98242752 </i>
    <i name="e_0_energy">      0.96818351 </i>
   </energy>
  </scstep>
  <scstep>
   <time name="total">    1.36    1.36</time>
   <energy>
    <i name="e_fr_energy">      1.78007936 </i>
    <i name="e_wo_entrp">      1.80038155 </i>
    <i name="e_0_energy">      1.79023045 </i>
   </energy>
  </scstep>
  <scstep>
   <time name="total">    1.35    1.35</time>
   <energy>
    <i name="e_fr_energy">     -0.82817011 </i>
    <i name="e_wo_entrp">     -0.78959833 </i>
    <i name="e_0_energy">     -0.80888422 </i>
   </energy>
  </scstep>
  <scstep>
   <time name="total">    1.34    1.34</time>
   <energy>
    <i name="e_fr_energy">     -1.04885080 </i>
    <i name="e_wo_entrp">     -1.01646463 </i>
    <i name="e_0_energy">     -1.03265771 </i>
   </energy>
  </scstep>
  <scstep>
   <time name="total">    1.35    1.35</time>
   <energy>
    <i name="e_fr_energy">     -1.25318905 </i>
    <i name="e_wo_entrp">     -1.22259301 </i>
    <i name="e_0_energy">     -1.23789103 </i>
   </energy>
  </scstep>
  <scstep>
   <time name="total">    1.35    1.35</time>
   <energy>
    <i name="e_fr_energy">      0.04118340 </i>
    <i name="e_wo_entrp">      0.04118340 </i>
    <i name="e_0_energy">      0.04118340 </i>
   </energy>
  </scstep>
  <scstep>
   <time name="total">    1.35    1.35</time>
   <energy>
    <i name="e_fr_energy">      0.46988169 </i>
    <i name="e_wo_entrp">      0.49898274 </i>
    <i name="e_0_energy">      0.48443221 </i>
   </energy>
  </scstep>
  <scstep>
   <time name="total">    1.35    1.35</time>
   <energy>
    <i name="e_fr_energy">      0.08908328 </i>
    <i name="e_wo_entrp">      0.11653547 </i>
    <i name="e_0_energy">      0.10280938 </i>
   </energy>
  </scstep>
  <scstep>
   <time name="total">    1.35    1.35</time>
   <energy>
    <i name="e_fr_energy">      0.01523205 </i>
    <i name="e_wo_entrp">      0.01606266 </i>
    <i name="e_0_energy">      0.01564736 </i>
   </energy>
  </scstep>
  <scstep>
   <time name="total">    1.35    1.35</time>
   <energy>
    <i name="e_fr_energy">     -0.75959363 </i>
    <i name="e_wo_entrp">     -0.73252780 </i>
    <i name="e_0_energy">     -0.74606071 </i>
   </energy>
  </scstep>
  <scstep>
   <time name="total">    1.36    1.36</time>
   <energy>
    <i name="e_fr_energy">     10.97536532 </i>
    <i name="e_wo_entrp">     11.00583308 </i>
    <i name="e_0_energy">     10.99059920 </i>
   </energy>
  </scstep>
  <scstep>
   <time name="total">    1.35    1.35</time>
   <energy>
    <i name="e_fr_energy">     51.49921976 </i>
    <i name="e_wo_entrp">     51.50751346 </i>
    <i name="e_0_energy">     51.50336661 </i>
   </energy>
  </scstep>
  <scstep>
   <time name="total">    1.35    1.35</time>
   <energy>
    <i name="e_fr_energy">     17.80355475 </i>
    <i name="e_wo_entrp">     17.80355608 </i>
    <i name="e_0_energy">     17.80355541 </i>
   </energy>
  </scstep>
  <scstep>
   <time name="total">    1.34    1.34</time>
   <energy>
    <i name="e_fr_energy">      0.97373780 </i>
    <i name="e_wo_entrp">      0.98117835 </i>
    <i name="e_0_energy">      0.97745808 </i>
   </energy>
  </scstep>
  <scstep>
   <time name="total">    1.35    1.36</time>
   <energy>
    <i name="e_fr_energy">      0.63124439 </i>
    <i name="e_wo_entrp">      0.67943979 </i>
    <i name="e_0_energy">      0.65534209 </i>
   </energy>
  </scstep>
  <scstep>
   <time name="total">    1.35    1.35</time>
   <energy>
    <i name="e_fr_energy">     -0.60727416 </i>
    <i name="e_wo_entrp">     -0.53668824 </i>
    <i name="e_0_energy">     -0.57198120 </i>
   </energy>
  </scstep>
  <scstep>
   <time name="total">    1.35    1.35</time>
   <energy>
    <i name="e_fr_energy">     13.00861243 </i>
    <i name="e_wo_entrp">     13.00861243 </i>
    <i name="e_0_energy">     13.00861243 </i>
   </energy>
  </scstep>
  <scstep>
   <time name="total">    1.34    1.34</time>
   <energy>
    <i name="e_fr_energy">     51.23802376 </i>
    <i name="e_wo_entrp">     51.24461813 </i>
    <i name="e_0_energy">     51.24132095 </i>
   </energy>
  </scstep>
  <scstep>
   <time name="total">    1.36    1.36</time>
   <energy>
    <i name="e_fr_energy">     18.69491760 </i>
    <i name="e_wo_entrp">     18.69491760 </i>
    <i name="e_0_energy">     18.69491760 </i>
   </energy>
  </scstep>
  <scstep>
   <time name="total">    1.35    1.35</time>
   <energy>
    <i name="e_fr_energy">      1.38047738 </i>
    <i name="e_wo_entrp">      1.38047738 </i>
    <i name="e_0_energy">      1.38047738 </i>
   </energy>
  </scstep>
  <scstep>
   <time name="total">    1.35    1.35</time>
   <energy>
    <i name="e_fr_energy">      0.54522954 </i>
    <i name="e_wo_entrp">      0.54522954 </i>
    <i name="e_0_energy">      0.54522954 </i>
   </energy>
  </scstep>
  <scstep>
   <time name="total">    1.36    1.36</time>
   <energy>
    <i name="e_fr_energy">     -0.47867933 </i>
    <i name="e_wo_entrp">     -0.41393767 </i>
    <i name="e_0_energy">     -0.44630850 </i>
   </energy>
  </scstep>
  <scstep>
   <time name="total">    1.36    1.36</time>
   <energy>
    <i name="e_fr_energy">      1.57574835 </i>
    <i name="e_wo_entrp">      1.57574835 </i>
    <i name="e_0_energy">      1.57574835 </i>
   </energy>
  </scstep>
  <scstep>
   <time name="total">    1.35    1.35</time>
   <energy>
    <i name="e_fr_energy">     -0.02966112 </i>
    <i name="e_wo_entrp">      0.03353339 </i>
    <i name="e_0_energy">      0.00193614 </i>
   </energy>
  </scstep>
  <scstep>
   <time name="total">    1.35    1.35</time>
   <energy>
    <i name="e_fr_energy">     -0.32460969 </i>
    <i name="e_wo_entrp">     -0.32460969 </i>
    <i name="e_0_energy">     -0.32460969 </i>
   </energy>
  </scstep>
  <scstep>
   <time name="total">    1.35    1.36</time>
   <energy>
    <i name="e_fr_energy">      0.13734872 </i>
    <i name="e_wo_entrp">      0.17591430 </i>
    <i name="e_0_energy">      0.15663151 </i>
   </energy>
  </scstep>
  <scstep>
   <time name="total">    1.35    1.35</time>
   <energy>
    <i name="e_fr_energy">      9.53527047 </i>
    <i name="e_wo_entrp">      9.57176867 </i>
    <i name="e_0_energy">      9.55351957 </i>
   </energy>
  </scstep>
  <scstep>
   <time name="total">    1.34    1.34</time>
   <energy>
    <i name="e_fr_energy">     50.43180355 </i>
    <i name="e_wo_entrp">     50.47036933 </i>
    <i name="e_0_energy">     50.45108644 </i>
   </energy>
  </scstep>
  <scstep>
   <time name="total">    1.35    1.35</time>
   <energy>
    <i name="e_fr_energy">     16.10090837 </i>
    <i name="e_wo_entrp">     16.13922702 </i>
    <i name="e_0_energy">     16.12006769 </i>
   </energy>
  </scstep>
  <scstep>
   <time name="total">    1.36    1.36</time>
   <energy>
    <i name="e_fr_energy">      0.59302408 </i>
    <i name="e_wo_entrp">      0.59339707 </i>
    <i name="e_0_energy">      0.59321058 </i>
   </energy>
  </scstep>
  <scstep>
   <time name="total">    1.34    1.34</time>
   <energy>
    <i name="e_fr_energy">     13.76603028 </i>
    <i name="e_wo_entrp">     13.76603394 </i>
    <i name="e_0_energy">     13.76603211 </i>
   </energy>
  </scstep>
  <scstep>
   <time name="total">    1.35    1.35</time>
   <energy>
    <i name="e_fr_energy">     17.40505403 </i>
    <i name="e_wo_entrp">     17.40505407 </i>
    <i name="e_0_energy">     17.40505405 </i>
   </energy>
  </scstep>
  <scstep>
   <time name="total">    1.37    1.38</time>
   <energy>
    <i name="e_fr_energy">     16.29464014 </i>
    <i name="e_wo_entrp">     16.29466309 </i>
    <i name="e_0_energy">     16.29465161 </i>
   </energy>
  </scstep>
  <scstep>
   <time name="total">    1.35    1.35</time>
   <energy>
    <i name="e_fr_energy">     14.70744078 </i>
    <i name="e_wo_entrp">     14.70744078 </i>
    <i name="e_0_energy">     14.70744078 </i>
   </energy>
  </scstep>
  <scstep>
   <time name="total">    1.35    1.35</time>
   <energy>
    <i name="e_fr_energy">     18.26505175 </i>
    <i name="e_wo_entrp">     18.26506340 </i>
    <i name="e_0_energy">     18.26505758 </i>
   </energy>
  </scstep>
  <scstep>
   <time name="total">    1.35    1.35</time>
   <energy>
    <i name="e_fr_energy">     14.27716784 </i>
    <i name="e_wo_entrp">     14.27717362 </i>
    <i name="e_0_energy">     14.27717073 </i>
   </energy>
  </scstep>
  <scstep>
   <time name="total">    1.34    1.34</time>
   <energy>
    <i name="e_fr_energy">     17.79064009 </i>
    <i name="e_wo_entrp">     17.79064628 </i>
    <i name="e_0_energy">     17.79064318 </i>
   </energy>
  </scstep>
  <scstep>
   <time name="total">    1.36    1.37</time>
   <energy>
    <i name="e_fr_energy">     14.63215564 </i>
    <i name="e_wo_entrp">     14.63477751 </i>
    <i name="e_0_energy">     14.63346657 </i>
   </energy>
  </scstep>
  <scstep>
   <time name="total">    1.34    1.35</time>
   <energy>
    <i name="e_fr_energy">     17.63083518 </i>
    <i name="e_wo_entrp">     17.63083760 </i>
    <i name="e_0_energy">     17.63083639 </i>
   </energy>
  </scstep>
  <scstep>
   <time name="total">    1.36    1.36</time>
   <energy>
    <i name="e_fr_energy">     14.63749951 </i>
    <i name="e_wo_entrp">     14.63750080 </i>
    <i name="e_0_energy">     14.63750015 </i>
   </energy>
  </scstep>
  <scstep>
   <time name="total">    1.35    1.35</time>
   <energy>
    <i name="e_fr_energy">     18.44113051 </i>
    <i name="e_wo_entrp">     18.44113070 </i>
    <i name="e_0_energy">     18.44113060 </i>
   </energy>
  </scstep>
  <scstep>
   <time name="total">    1.36    1.36</time>
   <energy>
    <i name="e_fr_energy">     14.81372399 </i>
    <i name="e_wo_entrp">     14.81372402 </i>
    <i name="e_0_energy">     14.81372401 </i>
   </energy>
  </scstep>
  <scstep>
   <time name="total">    1.35    1.35</time>
   <energy>
    <i name="e_fr_energy">     18.41707915 </i>
    <i name="e_wo_entrp">     18.41707924 </i>
    <i name="e_0_energy">     18.41707919 </i>
   </energy>
  </scstep>
  <scstep>
   <time name="total">    1.35    1.35</time>
   <energy>
    <i name="e_fr_energy">     14.91896368 </i>
    <i name="e_wo_entrp">     14.92694396 </i>
    <i name="e_0_energy">     14.92295382 </i>
   </energy>
  </scstep>
  <scstep>
   <time name="total">    1.35    1.35</time>
   <energy>
    <i name="e_fr_energy">     17.41316006 </i>
    <i name="e_wo_entrp">     17.41316290 </i>
    <i name="e_0_energy">     17.41316148 </i>
   </energy>
  </scstep>
  <scstep>
   <time name="total">    1.36    1.36</time>
   <energy>
    <i name="e_fr_energy">     14.57356724 </i>
    <i name="e_wo_entrp">     14.58288870 </i>
    <i name="e_0_energy">     14.57822797 </i>
   </energy>
  </scstep>
  <scstep>
   <time name="total">    1.34    1.34</time>
   <energy>
    <i name="e_fr_energy">     17.93532797 </i>
    <i name="e_wo_entrp">     17.94659253 </i>
    <i name="e_0_energy">     17.94096025 </i>
   </energy>
  </scstep>
  <scstep>
   <time name="total">    1.35    1.35</time>
   <energy>
    <i name="e_fr_energy">     14.38599663 </i>
    <i name="e_wo_entrp">     14.42133465 </i>
    <i name="e_0_energy">     14.40366564 </i>
   </energy>
  </scstep>
  <scstep>
   <time name="total">    1.35    1.35</time>
   <energy>
    <i name="e_fr_energy">     11.87959887 </i>
    <i name="e_wo_entrp">     11.87963365 </i>
    <i name="e_0_energy">     11.87961626 </i>
   </energy>
  </scstep>
  <scstep>
   <time name="total">    1.36    1.36</time>
   <energy>
    <i name="e_fr_energy">     -0.31625830 </i>
    <i name="e_wo_entrp">     -0.25590331 </i>
    <i name="e_0_energy">     -0.28608081 </i>
   </energy>
  </scstep>
  <scstep>
   <time name="total">    1.35    1.35</time>
   <energy>
    <i name="e_fr_energy">     13.58791493 </i>
    <i name="e_wo_entrp">     13.59877181 </i>
    <i name="e_0_energy">     13.59334337 </i>
   </energy>
  </scstep>
  <scstep>
   <time name="total">    1.35    1.35</time>
   <energy>
    <i name="e_fr_energy">      4.99606631 </i>
    <i name="e_wo_entrp">      5.03463312 </i>
    <i name="e_0_energy">      5.01534971 </i>
   </energy>
  </scstep>
  <scstep>
   <time name="total">    1.35    1.35</time>
   <energy>
    <i name="e_fr_energy">      0.10665472 </i>
    <i name="e_wo_entrp">      0.13485416 </i>
    <i name="e_0_energy">      0.12075444 </i>
   </energy>
  </scstep>
  <scstep>
   <time name="total">    1.34    1.35</time>
   <energy>
    <i name="e_fr_energy">      1.49279037 </i>
    <i name="e_wo_entrp">      1.55474982 </i>
    <i name="e_0_energy">      1.52377009 </i>
   </energy>
  </scstep>
  <scstep>
   <time name="total">    1.35    1.35</time>
   <energy>
    <i name="e_fr_energy">      1.48456754 </i>
    <i name="e_wo_entrp">      1.48548597 </i>
    <i name="e_0_energy">      1.48502676 </i>
   </energy>
  </scstep>
  <scstep>
   <time name="total">    1.36    1.36</time>
   <energy>
    <i name="e_fr_energy">      0.30605445 </i>
    <i name="e_wo_entrp">      0.30605445 </i>
    <i name="e_0_energy">      0.30605445 </i>
   </energy>
  </scstep>
  <scstep>
   <time name="total">    1.35    1.35</time>
   <energy>
    <i name="e_fr_energy">     -0.65120432 </i>
    <i name="e_wo_entrp">     -0.58224298 </i>
    <i name="e_0_energy">     -0.61672365 </i>
   </energy>
  </scstep>
  <scstep>
   <time name="total">    1.36    1.36</time>
   <energy>
    <i name="e_fr_energy">     11.19360544 </i>
    <i name="e_wo_entrp">     11.20450846 </i>
    <i name="e_0_energy">     11.19905695 </i>
   </energy>
[...]
        <r>     4.2938     0.0000     0.0000     0.0000     0.0000     0.0000     0.0000     0.0000     0.0000     0.0000     0.0000     0.0000     0.0000     0.0000     0.0000     0.0000     0.0000 </r>
        <r>     4.4938     0.0000     0.0000     0.0000     0.0000     0.0000     0.0000     0.0000     0.0000     0.0000     0.0000     0.0000     0.0000     0.0000     0.0000     0.0000     0.0000 </r>
        <r>     4.6938     0.0000     0.0000     0.0000     0.0000     0.0000     0.0000     0.0000     0.0000     0.0000     0.0000     0.0000     0.0000     0.0000     0.0000     0.0000     0.0000 </r>
        <r>     4.8937     0.0000     0.0000     0.0000     0.0000     0.0000     0.0000     0.0000     0.0000     0.0000     0.0000     0.0000     0.0000     0.0000     0.0000     0.0000     0.0000 </r>
        <r>     5.0937     0.0000     0.0000     0.0000     0.0000     0.0000     0.0000     0.0000     0.0000     0.0000     0.0000     0.0000     0.0000     0.0000     0.0000     0.0000     0.0000 </r>
        <r>     5.2937     0.0000     0.0000     0.0000     0.0000     0.0000     0.0000     0.0000     0.0000     0.0000     0.0000     0.0000     0.0000     0.0000     0.0000     0.0000     0.0000 </r>
        <r>     5.4937     0.0000     0.0000     0.0000     0.0000     0.0000     0.0000     0.0000     0.0000     0.0000     0.0000     0.0000     0.0000     0.0000     0.0000     0.0000     0.0000 </r>
        <r>     5.6936     0.0000     0.0000     0.0000     0.0000     0.0000     0.0000     0.0000     0.0000     0.0000     0.0000     0.0000     0.0000     0.0000     0.0000     0.0000     0.0000 </r>
       </set>
      </set>
     </set>
    </array>
   </partial>
  </dos>
  <projected>
   <eigenvalues>
    <array>
     <dimension dim="1">band</dimension>
     <dimension dim="2">kpoint</dimension>
     <dimension dim="3">spin</dimension>
     <field>eigene</field>
     <field>occ</field>
     <set>
      <set comment="spin 1">
       <set comment="kpoint 1">
        <r>  -51.5727    1.0000 </r>
        <r>  -32.4984    1.0000 </r>
        <r>  -32.4983    1.0000 </r>
        <r>  -32.4981    1.0000 </r>
        <r>  -22.6625    0.9929 </r>
        <r>  -22.6624    0.9928 </r>
        <r>  -22.6162    0.8727 </r>
        <r>  -22.5740    0.4787 </r>
        <r>  -22.4743    0.0020 </r>
        <r>  -22.4542    0.0003 </r>
        <r>  -18.5799    0.0000 </r>
        <r>   -9.9673    0.0000 </r>
        <r>   -7.8198    0.0000 </r>
        <r>   -7.8198    0.0000 </r>
        <r>   -7.4269    0.0000 </r>
        <r>   -7.4269    0.0000 </r>
        <r>   -7.4269    0.0000 </r>
        <r>   -2.0796    0.0000 </r>
        <r>   -2.0794    0.0000 </r>
        <r>   -2.0792    0.0000 </r>
        <r>   -0.3493    0.0000 </r>
        <r>    0.2213    0.0000 </r>
        <r>    0.2216    0.0000 </r>
        <r>    1.2703    0.0000 </r>
        <r>    1.2703    0.0000 </r>
        <r>    1.2703    0.0000 </r>
        <r>    1.3528    0.0000 </r>
        <r>    1.3532    0.0000 </r>
        <r>    1.3548    0.0000 </r>
        <r>    1.7585    0.0000 </r>
        <r>    1.9853    0.0000 </r>
        <r>    1.9995    0.0000 </r>
        <r>    1.9995    0.0000 </r>
        <r>    2.2423    0.0000 </r>
        <r>    2.2426    0.0000 </r>
        <r>    2.9462    0.0000 </r>
       </set>
      </set>
      <set comment="spin 2">
       <set comment="kpoint 1">
        <r>  -51.0847    1.0000 </r>
        <r>  -31.8646    1.0000 </r>
        <r>  -31.8646    1.0000 </r>
        <r>  -31.8646    1.0000 </r>
        <r>  -22.5768    0.5105 </r>
        <r>  -22.5230    0.0673 </r>
        <r>  -22.5228    0.0667 </r>
        <r>  -22.4985    0.0143 </r>
        <r>  -22.4624    0.0007 </r>
        <r>  -22.4622    0.0006 </r>
        <r>  -22.4612    0.0006 </r>
        <r>   -6.8872    0.0000 </r>
        <r>   -6.8872    0.0000 </r>
        <r>   -6.8872    0.0000 </r>
        <r>   -6.4469    0.0000 </r>
        <r>   -6.4466    0.0000 </r>
        <r>   -4.6978    0.0000 </r>
        <r>   -1.6058    0.0000 </r>
        <r>   -1.6054    0.0000 </r>
        <r>   -1.6054    0.0000 </r>
        <r>   -0.1928    0.0000 </r>
        <r>    0.4992    0.0000 </r>
        <r>    0.4996    0.0000 </r>
        <r>    1.4643    0.0000 </r>
        <r>    1.4643    0.0000 </r>
        <r>    1.4643    0.0000 </r>
        <r>    1.5246    0.0000 </r>
        <r>    1.5247    0.0000 </r>
        <r>    1.5247    0.0000 </r>
        <r>    1.8822    0.0000 </r>
        <r>    2.1253    0.0000 </r>
        <r>    2.1260    0.0000 </r>
        <r>    2.1260    0.0000 </r>
        <r>    2.3994    0.0000 </r>
        <r>    2.3994    0.0000 </r>
        <r>    2.9667    0.0000 </r>
       </set>
      </set>
     </set>
    </array>
   </eigenvalues>
   <array>
    <dimension dim="1">ion</dimension>
    <dimension dim="2">band</dimension>
    <dimension dim="3">kpoint</dimension>
    <dimension dim="4">spin</dimension>
    <field>    s</field>
    <field>   py</field>
    <field>   pz</field>
    <field>   px</field>
    <field>  dxy</field>
    <field>  dyz</field>
    <field>  dz2</field>
    <field>  dxz</field>
    <field>x2-y2</field>
    <field>fy3x2</field>
    <field> fxyz</field>
    <field> fyz2</field>
    <field>  fz3</field>
    <field> fxz2</field>
    <field> fzx2</field>
    <field>  fx3</field>
    <set>
     <set comment="spin1">
      <set comment="kpoint 1">
       <set comment="band 1">
        <r>  1.0411  0.0000  0.0000  0.0000  0.0000  0.0000  0.0000  0.0000  0.0000  0.0000  0.0000  0.0000  0.0000  0.0000  0.0000  0.0000 </r>
       </set>
       <set comment="band 2">
        <r>  0.0000  0.9118  0.0019  0.0333  0.0000  0.0000  0.0000  0.0000  0.0000  0.0000  0.0000  0.0000  0.0000  0.0000  0.0000  0.0000 </r>
       </set>
       <set comment="band 3">
        <r>  0.0000  0.0169  0.2823  0.6479  0.0000  0.0000  0.0000  0.0000  0.0000  0.0000  0.0000  0.0000  0.0000  0.0000  0.0000  0.0000 </r>
       </set>
       <set comment="band 4">
        <r>  0.0000  0.0183  0.6629  0.2658  0.0000  0.0000  0.0000  0.0000  0.0000  0.0000  0.0000  0.0000  0.0000  0.0000  0.0000  0.0000 </r>
       </set>
       <set comment="band 5">
        <r>  0.0000  0.0000  0.0000  0.0000  0.0000  0.0000  0.0000  0.0000  0.0000  0.3398  0.0000  0.5647  0.0000  0.0394  0.0141  0.0236 </r>
       </set>
       <set comment="band 6">
        <r>  0.0000  0.0000  0.0000  0.0000  0.0000  0.0000  0.0000  0.0000  0.0000  0.0119  0.0000  0.0204  0.0000  0.4845  0.1760  0.2887 </r>
       </set>
       <set comment="band 7">
        <r>  0.0000  0.0000  0.0000  0.0000  0.0000  0.0000  0.0000  0.0000  0.0000  0.0199  0.0000  0.0249  0.0002  0.1060  0.7890  0.0405 </r>
       </set>
       <set comment="band 8">
        <r>  0.0000  0.0000  0.0000  0.0000  0.0000  0.0000  0.0000  0.0000  0.0000  0.0000  0.9789  0.0000  0.0000  0.0000  0.0000  0.0000 </r>
       </set>
       <set comment="band 9">
        <r>  0.0016  0.0000  0.0000  0.0000  0.0000  0.0000  0.0000  0.0000  0.0000  0.0429  0.0000  0.0247  0.8999  0.0001  0.0001  0.0004 </r>
       </set>
       <set comment="band 10">
        <r>  0.0013  0.0000  0.0000  0.0000  0.0000  0.0000  0.0000  0.0000  0.0000  0.3150  0.0000  0.1866  0.0495  0.1528  0.0001  0.2645 </r>
       </set>
       <set comment="band 11">
        <r>  0.0234  0.0000  0.0000  0.0000  0.0000  0.0000  0.0000  0.0000  0.0000  0.2259  0.0000  0.1428  0.0080  0.1315  0.0010  0.2405 </r>
       </set>
       <set comment="band 12">
        <r>  0.0720  0.0000  0.0000  0.0000  0.0000  0.0000  0.0000  0.0000  0.0000  0.0263  0.0000  0.0176  0.0261  0.0670  0.0005  0.1231 </r>
       </set>
       <set comment="band 13">
        <r>  0.0000  0.0000  0.0000  0.0000  0.0000  0.0000  0.0140  0.0000  0.5304  0.0000  0.0000  0.0000  0.0000  0.0000  0.0000  0.0000 </r>
       </set>
       <set comment="band 14">
        <r>  0.0000  0.0000  0.0000  0.0000  0.0000  0.0000  0.5303  0.0000  0.0140  0.0000  0.0000  0.0000  0.0000  0.0000  0.0000  0.0000 </r>
       </set>
       <set comment="band 15">
        <r>  0.0000  0.0000  0.0000  0.0000  0.4955  0.0104  0.0000  0.0476  0.0000  0.0000  0.0000  0.0000  0.0000  0.0000  0.0000  0.0000 </r>
       </set>
       <set comment="band 16">
        <r>  0.0000  0.0000  0.0000  0.0000  0.0000  0.4545  0.0000  0.0989  0.0000  0.0000  0.0000  0.0000  0.0000  0.0000  0.0000  0.0000 </r>
       </set>
       <set comment="band 17">
        <r>  0.0000  0.0000  0.0000  0.0000  0.0579  0.0886  0.0000  0.4069  0.0000  0.0000  0.0000  0.0000  0.0000  0.0000  0.0000  0.0000 </r>
       </set>
       <set comment="band 18">
        <r>  0.0000  0.0191  0.0120  0.0083  0.0000  0.0000  0.0000  0.0000  0.0000  0.0000  0.0000  0.0000  0.0000  0.0000  0.0000  0.0000 </r>
       </set>
       <set comment="band 19">
        <r>  0.0000  0.0014  0.0225  0.0155  0.0000  0.0000  0.0000  0.0000  0.0000  0.0000  0.0000  0.0000  0.0001  0.0000  0.0000  0.0000 </r>
       </set>
       <set comment="band 20">
        <r>  0.0000  0.0190  0.0048  0.0155  0.0000  0.0000  0.0000  0.0000  0.0000  0.0000  0.0000  0.0000  0.0000  0.0000  0.0000  0.0000 </r>
       </set>
       <set comment="band 21">
        <r>  0.0228  0.0000  0.0000  0.0000  0.0000  0.0000  0.0000  0.0000  0.0000  0.0000  0.0000  0.0000  0.0000  0.0000  0.0000  0.0000 </r>
       </set>
       <set comment="band 22">
        <r>  0.0000  0.0000  0.0000  0.0000  0.0000  0.0000  0.0333  0.0000  0.0232  0.0000  0.0000  0.0000  0.0000  0.0000  0.0000  0.0000 </r>
       </set>
       <set comment="band 23">
        <r>  0.0000  0.0000  0.0000  0.0000  0.0000  0.0000  0.0232  0.0000  0.0333  0.0000  0.0000  0.0000  0.0000  0.0000  0.0000  0.0000 </r>
       </set>
       <set comment="band 24">
        <r>  0.0000  0.0000  0.0000  0.0000  0.0057  0.0144  0.0000  0.0671  0.0000  0.0000  0.0000  0.0000  0.0000  0.0000  0.0000  0.0000 </r>
       </set>
       <set comment="band 25">
        <r>  0.0000  0.0000  0.0000  0.0000  0.0000  0.0719  0.0000  0.0153  0.0000  0.0000  0.0000  0.0000  0.0000  0.0000  0.0000  0.0000 </r>
       </set>
       <set comment="band 26">
        <r>  0.0000  0.0000  0.0000  0.0000  0.0816  0.0009  0.0000  0.0048  0.0000  0.0000  0.0000  0.0000  0.0000  0.0000  0.0000  0.0000 </r>
       </set>
       <set comment="band 27">
        <r>  0.0000  0.0063  0.0003  0.0027  0.0000  0.0000  0.0000  0.0000  0.0000  0.0007  0.0000  0.0004  0.0001  0.0002  0.0000  0.0003 </r>
       </set>
       <set comment="band 28">
        <r>  0.0000  0.0021  0.0009  0.0064  0.0000  0.0000  0.0000  0.0000  0.0000  0.0002  0.0000  0.0001  0.0002  0.0004  0.0000  0.0007 </r>
       </set>
       <set comment="band 29">
        <r>  0.0000  0.0010  0.0081  0.0002  0.0000  0.0000  0.0000  0.0000  0.0000  0.0001  0.0000  0.0001  0.0013  0.0000  0.0000  0.0000 </r>
       </set>
       <set comment="band 30">
        <r>  0.0194  0.0000  0.0000  0.0000  0.0000  0.0000  0.0000  0.0000  0.0000  0.0000  0.0000  0.0000  0.0000  0.0000  0.0000  0.0000 </r>
       </set>
       <set comment="band 31">
        <r>  0.0000  0.0000  0.0000  0.0000  0.0000  0.0000  0.0000  0.0000  0.0000  0.0001  0.0000  0.0001  0.0000  0.0004  0.0034  0.0002 </r>
       </set>
       <set comment="band 32">
        <r>  0.0000  0.0000  0.0000  0.0000  0.0000  0.0000  0.0000  0.0000  0.0000  0.0012  0.0000  0.0019  0.0000  0.0001  0.0000  0.0001 </r>
       </set>
       <set comment="band 33">
        <r>  0.0000  0.0000  0.0000  0.0000  0.0000  0.0000  0.0000  0.0000  0.0000  0.0000  0.0000  0.0001  0.0000  0.0016  0.0006  0.0010 </r>
       </set>
       <set comment="band 34">
        <r>  0.0000  0.0000  0.0000  0.0000  0.0000  0.0000  0.0123  0.0000  0.0054  0.0000  0.0000  0.0000  0.0000  0.0000  0.0000  0.0000 </r>
       </set>
       <set comment="band 35">
        <r>  0.0000  0.0000  0.0000  0.0000  0.0000  0.0000  0.0053  0.0000  0.0123  0.0000  0.0000  0.0000  0.0000  0.0000  0.0000  0.0000 </r>
       </set>
       <set comment="band 36">
        <r>  0.0000  0.0000  0.0000  0.0000  0.0000  0.0000  0.0000  0.0000  0.0000  0.0000  0.0103  0.0000  0.0000  0.0000  0.0000  0.0000 </r>
       </set>
      </set>
     </set>
     <set comment="spin2">
      <set comment="kpoint 1">
       <set comment="band 1">
        <r>  1.0426  0.0000  0.0000  0.0000  0.0000  0.0000  0.0000  0.0000  0.0000  0.0000  0.0000  0.0000  0.0000  0.0000  0.0000  0.0000 </r>
       </set>
       <set comment="band 2">
        <r>  0.0000  0.0020  0.9434  0.0039  0.0000  0.0000  0.0000  0.0000  0.0000  0.0000  0.0000  0.0000  0.0000  0.0000  0.0000  0.0000 </r>
       </set>
       <set comment="band 3">
        <r>  0.0000  0.1012  0.0054  0.8427  0.0000  0.0000  0.0000  0.0000  0.0000  0.0000  0.0000  0.0000  0.0000  0.0000  0.0000  0.0000 </r>
       </set>
       <set comment="band 4">
        <r>  0.0000  0.8461  0.0005  0.1027  0.0000  0.0000  0.0000  0.0000  0.0000  0.0000  0.0000  0.0000  0.0000  0.0000  0.0000  0.0000 </r>
       </set>
       <set comment="band 5">
        <r>  0.0000  0.0000  0.0000  0.0000  0.0000  0.0000  0.0000  0.0000  0.0000  0.0000  0.9702  0.0000  0.0031  0.0019  0.0000  0.0032 </r>
       </set>
       <set comment="band 6">
        <r>  0.0000  0.0000  0.0000  0.0000  0.0000  0.0000  0.0000  0.0000  0.0000  0.0621  0.0000  0.1033  0.0000  0.2756  0.3742  0.1647 </r>
       </set>
       <set comment="band 7">
        <r>  0.0000  0.0000  0.0000  0.0000  0.0000  0.0000  0.0000  0.0000  0.0000  0.3057  0.0000  0.5087  0.0000  0.0595  0.0701  0.0359 </r>
       </set>
       <set comment="band 8">
        <r>  0.0000  0.0000  0.0000  0.0000  0.0000  0.0000  0.0000  0.0000  0.0000  0.0001  0.0000  0.0001  0.0000  0.2801  0.5353  0.1638 </r>
       </set>
       <set comment="band 9">
        <r>  0.0000  0.0000  0.0000  0.0000  0.0000  0.0000  0.0000  0.0000  0.0000  0.0272  0.0071  0.0166  0.1591  0.2864  0.0000  0.4851 </r>
       </set>
       <set comment="band 10">
        <r>  0.0000  0.0000  0.0000  0.0000  0.0000  0.0000  0.0000  0.0000  0.0000  0.0792  0.0009  0.0475  0.7561  0.0368  0.0000  0.0610 </r>
       </set>
       <set comment="band 11">
        <r>  0.0000  0.0000  0.0000  0.0000  0.0000  0.0000  0.0000  0.0000  0.0000  0.5065  0.0003  0.3043  0.0632  0.0401  0.0000  0.0671 </r>
       </set>
       <set comment="band 12">
        <r>  0.0000  0.0000  0.0000  0.0000  0.0035  0.4843  0.0000  0.0502  0.0000  0.0000  0.0000  0.0000  0.0000  0.0000  0.0000  0.0000 </r>
       </set>
       <set comment="band 13">
        <r>  0.0000  0.0000  0.0000  0.0000  0.4643  0.0180  0.0000  0.0557  0.0000  0.0000  0.0000  0.0000  0.0000  0.0000  0.0000  0.0000 </r>
       </set>
       <set comment="band 14">
        <r>  0.0000  0.0000  0.0000  0.0000  0.0702  0.0357  0.0000  0.4322  0.0000  0.0000  0.0000  0.0000  0.0000  0.0000  0.0000  0.0000 </r>
       </set>
       <set comment="band 15">
        <r>  0.0000  0.0000  0.0000  0.0000  0.0000  0.0000  0.5037  0.0000  0.0210  0.0000  0.0000  0.0000  0.0000  0.0000  0.0000  0.0000 </r>
       </set>
       <set comment="band 16">
        <r>  0.0000  0.0000  0.0000  0.0000  0.0000  0.0000  0.0210  0.0000  0.5037  0.0000  0.0000  0.0000  0.0000  0.0000  0.0000  0.0000 </r>
       </set>
       <set comment="band 17">
        <r>  0.0856  0.0000  0.0000  0.0000  0.0000  0.0000  0.0000  0.0000  0.0000  0.0000  0.0000  0.0000  0.0000  0.0000  0.0000  0.0000 </r>
       </set>
       <set comment="band 18">
        <r>  0.0000  0.0001  0.0364  0.0004  0.0000  0.0000  0.0000  0.0000  0.0000  0.0000  0.0000  0.0000  0.0001  0.0000  0.0000  0.0000 </r>
       </set>
       <set comment="band 19">
        <r>  0.0000  0.0017  0.0004  0.0347  0.0000  0.0000  0.0000  0.0000  0.0000  0.0000  0.0000  0.0000  0.0000  0.0000  0.0000  0.0000 </r>
       </set>
       <set comment="band 20">
        <r>  0.0000  0.0351  0.0000  0.0018  0.0000  0.0000  0.0000  0.0000  0.0000  0.0000  0.0000  0.0000  0.0000  0.0000  0.0000  0.0000 </r>
       </set>
       <set comment="band 21">
        <r>  0.0205  0.0000  0.0000  0.0000  0.0000  0.0000  0.0000  0.0000  0.0000  0.0000  0.0000  0.0000  0.0000  0.0000  0.0000  0.0000 </r>
       </set>
       <set comment="band 22">
        <r>  0.0000  0.0000  0.0000  0.0000  0.0000  0.0000  0.0093  0.0000  0.0464  0.0000  0.0000  0.0000  0.0000  0.0000  0.0000  0.0000 </r>
       </set>
       <set comment="band 23">
        <r>  0.0000  0.0000  0.0000  0.0000  0.0000  0.0000  0.0465  0.0000  0.0092  0.0000  0.0000  0.0000  0.0000  0.0000  0.0000  0.0000 </r>
       </set>
       <set comment="band 24">
        <r>  0.0000  0.0000  0.0000  0.0000  0.0046  0.0180  0.0000  0.0587  0.0000  0.0000  0.0000  0.0000  0.0000  0.0000  0.0000  0.0000 </r>
       </set>
       <set comment="band 25">
        <r>  0.0000  0.0000  0.0000  0.0000  0.0749  0.0049  0.0000  0.0014  0.0000  0.0000  0.0000  0.0000  0.0000  0.0000  0.0000  0.0000 </r>
       </set>
       <set comment="band 26">
        <r>  0.0000  0.0000  0.0000  0.0000  0.0017  0.0584  0.0000  0.0212  0.0000  0.0000  0.0000  0.0000  0.0000  0.0000  0.0000  0.0000 </r>
       </set>
       <set comment="band 27">
        <r>  0.0000  0.0015  0.0074  0.0010  0.0000  0.0000  0.0000  0.0000  0.0000  0.0001  0.0000  0.0001  0.0011  0.0001  0.0000  0.0001 </r>
       </set>
       <set comment="band 28">
        <r>  0.0000  0.0043  0.0000  0.0056  0.0000  0.0000  0.0000  0.0000  0.0000  0.0004  0.0000  0.0002  0.0000  0.0003  0.0000  0.0005 </r>
       </set>
       <set comment="band 29">
        <r>  0.0000  0.0041  0.0025  0.0033  0.0000  0.0000  0.0000  0.0000  0.0000  0.0004  0.0000  0.0002  0.0004  0.0002  0.0000  0.0003 </r>
       </set>
       <set comment="band 30">
        <r>  0.0184  0.0000  0.0000  0.0000  0.0000  0.0000  0.0000  0.0000  0.0000  0.0000  0.0000  0.0000  0.0000  0.0000  0.0000  0.0000 </r>
       </set>
       <set comment="band 31">
        <r>  0.0000  0.0000  0.0000  0.0000  0.0000  0.0000  0.0000  0.0000  0.0000  0.0000  0.0000  0.0000  0.0000  0.0015  0.0028  0.0009 </r>
       </set>
       <set comment="band 32">
        <r>  0.0000  0.0000  0.0000  0.0000  0.0000  0.0000  0.0000  0.0000  0.0000  0.0016  0.0000  0.0027  0.0000  0.0003  0.0004  0.0002 </r>
       </set>
       <set comment="band 33">
        <r>  0.0000  0.0000  0.0000  0.0000  0.0000  0.0000  0.0000  0.0000  0.0000  0.0004  0.0000  0.0006  0.0000  0.0014  0.0020  0.0008 </r>
       </set>
       <set comment="band 34">
        <r>  0.0000  0.0000  0.0000  0.0000  0.0000  0.0000  0.0001  0.0000  0.0186  0.0000  0.0000  0.0000  0.0000  0.0000  0.0000  0.0000 </r>
       </set>
       <set comment="band 35">
        <r>  0.0000  0.0000  0.0000  0.0000  0.0000  0.0000  0.0186  0.0000  0.0001  0.0000  0.0000  0.0000  0.0000  0.0000  0.0000  0.0000 </r>
       </set>
       <set comment="band 36">
        <r>  0.0000  0.0000  0.0000  0.0000  0.0000  0.0000  0.0000  0.0000  0.0000  0.0000  0.0102  0.0000  0.0000  0.0000  0.0000  0.0000 </r>
       </set>
      </set>
     </set>
    </set>
   </array>
  </projected>
 </calculation>
 <structure name="finalpos" >
  <crystal>
   <varray name="basis" >
    <v>      10.00000000       0.00000000       0.00000000 </v>
    <v>       0.00000000      10.00000000       0.00000000 </v>
    <v>       0.00000000       0.00000000      10.00000000 </v>
   </varray>
   <i name="volume">   1000.00000000 </i>
   <varray name="rec_basis" >
    <v>       0.10000000       0.00000000       0.00000000 </v>
    <v>       0.00000000       0.10000000       0.00000000 </v>
    <v>       0.00000000       0.00000000       0.10000000 </v>
   </varray>
  </crystal>
  <varray name="positions" >
   <v>       0.50000000       0.50000000       0.50000000 </v>
  </varray>
 </structure>
</modeling>
