<?xml version="1.0" encoding="ISO-8859-1"?>
<modeling>
 <generator>
  <i name="program" type="string">vasp </i>
  <i name="version" type="string">5.4.4.18Apr17-6-g9f103f2a35  </i>
  <i name="subversion" type="string">(build Apr 25 2017 10:43:04) complex            parallel </i>
  <i name="platform" type="string">LinuxIFC </i>
  <i name="date" type="string">2019 08 28 </i>
  <i name="time" type="string">17:47:17 </i>
 </generator>
 <incar>
  <i type="string" name="PREC">n</i>
  <i type="string" name="ALGO">  Normal</i>
  <i type="int" name="NELM">   100</i>
  <i type="int" name="NELMIN">     2</i>
  <i type="int" name="IBRION">     2</i>
  <i name="EDIFF">      0.00000100</i>
  <i name="EDIFFG">     -0.00300000</i>
  <i type="int" name="NSW">    50</i>
  <i type="int" name="ISIF">     2</i>
  <i name="ENCUT">    520.00000000</i>
  <i type="logical" name="LREAL"> F  </i>
  <i type="int" name="ISMEAR">     0</i>
  <i name="SIGMA">      0.10000000</i>
  <i type="logical" name="LWAVE"> T  </i>
  <i type="logical" name="LCHARG"> F  </i>
  <i type="logical" name="LASPH"> T  </i>
  <v type="int" name="KPOINT_BSE">    -1     0     0     0</v>
  <i type="int" name="NELM">   100</i>
  <i type="string" name="GGA">  Ps</i>
  <i type="logical" name="LASPH"> T  </i>
 </incar>
 <structure name="primitive_cell" >
  <crystal>
   <varray name="basis" >
    <v>      10.00000000       0.00000000       0.00000000 </v>
    <v>       0.00000000      10.00000000       0.00000000 </v>
    <v>       0.00000000       0.00000000      10.00000000 </v>
   </varray>
   <i name="volume">   1000.00000000 </i>
   <varray name="rec_basis" >
    <v>       0.10000000       0.00000000       0.00000000 </v>
    <v>       0.00000000       0.10000000       0.00000000 </v>
    <v>       0.00000000       0.00000000       0.10000000 </v>
   </varray>
  </crystal>
  <varray name="positions" >
   <v>       0.00000000       0.00000000      -0.06140810 </v>
   <v>       0.00000000       0.00000000       0.06140810 </v>
  </varray>
 </structure>
 <varray name="primitive_index" >
  <v type="int" >        1 </v>
  <v type="int" >        2 </v>
 </varray>
 <kpoints>
  <generation param="Gamma">
   <v type="int" name="divisions">       1        1        1 </v>
   <v name="usershift">      0.00000000       0.00000000       0.00000000 </v>
   <v name="genvec1">      1.00000000       0.00000000       0.00000000 </v>
   <v name="genvec2">      0.00000000       1.00000000       0.00000000 </v>
   <v name="genvec3">      0.00000000       0.00000000       1.00000000 </v>
   <v name="shift">      0.00000000       0.00000000       0.00000000 </v>
  </generation>
  <varray name="kpointlist" >
   <v>       0.00000000       0.00000000       0.00000000 </v>
  </varray>
  <varray name="weights" >
   <v>       1.00000000 </v>
  </varray>
 </kpoints>
 <parameters>
  <separator name="general" >
   <i type="string" name="SYSTEM">unknown system</i>
   <i type="logical" name="LCOMPAT"> F  </i>
  </separator>
  <separator name="electronic" >
   <i type="string" name="PREC">n</i>
   <i name="ENMAX">    520.00000000</i>
   <i name="ENAUG">    605.39200000</i>
   <i name="EDIFF">      0.00000100</i>
   <i type="int" name="IALGO">    38</i>
   <i type="int" name="IWAVPR">    11</i>
   <i type="int" name="NBANDS">    36</i>
   <i name="NELECT">     12.00000000</i>
   <i type="int" name="TURBO">     0</i>
   <i type="int" name="IRESTART">     0</i>
   <i type="int" name="NREBOOT">     0</i>
   <i type="int" name="NMIN">     0</i>
   <i name="EREF">      0.00000000</i>
   <separator name="electronic smearing" >
    <i type="int" name="ISMEAR">     0</i>
    <i name="SIGMA">      0.10000000</i>
    <i name="KSPACING">      0.50000000</i>
    <i type="logical" name="KGAMMA"> T  </i>
   </separator>
   <separator name="electronic projectors" >
    <i type="logical" name="LREAL"> F  </i>
    <v name="ROPT">      0.00000000</v>
    <i type="int" name="LMAXPAW">  -100</i>
    <i type="int" name="LMAXMIX">     2</i>
    <i type="logical" name="NLSPLINE"> F  </i>
   </separator>
   <separator name="electronic startup" >
    <i type="int" name="ISTART">     1</i>
    <i type="int" name="ICHARG">     0</i>
    <i type="int" name="INIWAV">     1</i>
   </separator>
   <separator name="electronic spin" >
    <i type="int" name="ISPIN">     1</i>
    <i type="logical" name="LNONCOLLINEAR"> F  </i>
    <v name="MAGMOM">      1.00000000      1.00000000</v>
    <i name="NUPDOWN">     -1.00000000</i>
    <i type="logical" name="LSORBIT"> F  </i>
    <v name="SAXIS">      0.00000000      0.00000000      1.00000000</v>
    <i type="logical" name="LSPIRAL"> F  </i>
    <v name="QSPIRAL">      0.00000000      0.00000000      0.00000000</v>
    <i type="logical" name="LZEROZ"> F  </i>
   </separator>
   <separator name="electronic exchange-correlation" >
    <i type="logical" name="LASPH"> T  </i>
    <i type="logical" name="LMETAGGA"> F  </i>
   </separator>
   <separator name="electronic convergence" >
    <i type="int" name="NELM">   100</i>
    <i type="int" name="NELMDL">     0</i>
    <i type="int" name="NELMIN">     2</i>
    <i name="ENINI">    520.00000000</i>
    <separator name="electronic convergence detail" >
     <i type="logical" name="LDIAG"> T  </i>
     <i type="logical" name="LSUBROT"> F  </i>
     <i name="WEIMIN">      0.00100000</i>
     <i name="EBREAK">      0.00000001</i>
     <i name="DEPER">      0.30000000</i>
     <i type="int" name="NRMM">     4</i>
     <i name="TIME">      0.40000000</i>
    </separator>
   </separator>
   <separator name="electronic mixer" >
    <i name="AMIX">      0.40000000</i>
    <i name="BMIX">      1.00000000</i>
    <i name="AMIN">      0.10000000</i>
    <i name="AMIX_MAG">      1.60000000</i>
    <i name="BMIX_MAG">      1.00000000</i>
    <separator name="electronic mixer details" >
     <i type="int" name="IMIX">     4</i>
     <i type="logical" name="MIXFIRST"> F  </i>
     <i type="int" name="MAXMIX">   -45</i>
     <i name="WC">    100.00000000</i>
     <i type="int" name="INIMIX">     1</i>
     <i type="int" name="MIXPRE">     1</i>
     <i type="int" name="MREMOVE">     5</i>
    </separator>
   </separator>
   <separator name="electronic dipolcorrection" >
    <i type="logical" name="LDIPOL"> F  </i>
    <i type="logical" name="LMONO"> F  </i>
    <i type="int" name="IDIPOL">     0</i>
    <i name="EPSILON">      1.00000000</i>
    <v name="DIPOL">   -100.00000000   -100.00000000   -100.00000000</v>
    <i name="EFIELD">      0.00000000</i>
   </separator>
  </separator>
  <separator name="grids" >
   <i type="int" name="NGX">    56</i>
   <i type="int" name="NGY">    56</i>
   <i type="int" name="NGZ">    56</i>
   <i type="int" name="NGXF">   112</i>
   <i type="int" name="NGYF">   112</i>
   <i type="int" name="NGZF">   112</i>
   <i type="logical" name="ADDGRID"> F  </i>
  </separator>
  <separator name="ionic" >
   <i type="int" name="NSW">    50</i>
   <i type="int" name="IBRION">     2</i>
   <i type="int" name="MDALGO">     0</i>
   <i type="int" name="ISIF">     2</i>
   <i name="PSTRESS">      0.00000000</i>
   <i name="EDIFFG">     -0.00300000</i>
   <i type="int" name="NFREE">     1</i>
   <i name="POTIM">      0.50000000</i>
   <i name="SMASS">     -3.00000000</i>
   <i name="SCALEE">      1.00000000</i>
  </separator>
  <separator name="ionic md" >
   <i name="TEBEG">      0.00010000</i>
   <i name="TEEND">      0.00010000</i>
   <i type="int" name="NBLOCK">     1</i>
   <i type="int" name="KBLOCK">    50</i>
   <i type="int" name="NPACO">   256</i>
   <i name="APACO">     16.00000000</i>
  </separator>
  <separator name="symmetry" >
   <i type="int" name="ISYM">     2</i>
   <i name="SYMPREC">      0.00001000</i>
  </separator>
  <separator name="dos" >
   <i type="int" name="LORBIT">     0</i>
   <v name="RWIGS">     -1.00000000</v>
   <i type="int" name="NEDOS">   301</i>
   <i name="EMIN">     10.00000000</i>
   <i name="EMAX">    -10.00000000</i>
   <i name="EFERMI">      0.00000000</i>
  </separator>
  <separator name="writing" >
   <i type="int" name="NWRITE">     2</i>
   <i type="logical" name="LWAVE"> T  </i>
   <i type="logical" name="LDOWNSAMPLE"> F  </i>
   <i type="logical" name="LCHARG"> F  </i>
   <i type="logical" name="LPARD"> F  </i>
   <i type="logical" name="LVTOT"> F  </i>
   <i type="logical" name="LVHAR"> F  </i>
   <i type="logical" name="LELF"> F  </i>
   <i type="logical" name="LOPTICS"> F  </i>
   <v name="STM">      0.00000000      0.00000000      0.00000000      0.00000000      0.00000000      0.00000000      0.00000000</v>
  </separator>
  <separator name="performance" >
   <i type="int" name="NPAR">    36</i>
   <i type="int" name="NSIM">     4</i>
   <i type="int" name="NBLK">    -1</i>
   <i type="logical" name="LPLANE"> T  </i>
   <i type="logical" name="LSCALAPACK"> T  </i>
   <i type="logical" name="LSCAAWARE"> F  </i>
   <i type="logical" name="LSCALU"> F  </i>
   <i type="logical" name="LASYNC"> F  </i>
   <i type="logical" name="LORBITALREAL"> F  </i>
  </separator>
  <separator name="miscellaneous" >
   <i type="int" name="IDIOT">     3</i>
   <i type="int" name="ISPECIAL">     0</i>
   <i type="logical" name="LMUSIC"> F  </i>
   <v name="POMASS">     16.00000000</v>
   <v name="DARWINR">      0.00000000</v>
   <v name="DARWINV">      1.00000000</v>
   <i type="logical" name="LCORR"> T  </i>
  </separator>
  <i type="logical" name="GGA_COMPAT"> T  </i>
  <i type="logical" name="LBERRY"> F  </i>
  <i type="int" name="ICORELEVEL">     0</i>
  <i type="logical" name="LDAU"> F  </i>
  <i type="int" name="I_CONSTRAINED_M">     0</i>
  <separator name="electronic exchange-correlation" >
   <i type="string" name="GGA">PS</i>
   <i type="int" name="VOSKOWN">     0</i>
   <i type="logical" name="LHFCALC"> F  </i>
   <i type="string" name="PRECFOCK"></i>
   <i type="logical" name="LSYMGRAD"> F  </i>
   <i type="logical" name="LHFONE"> F  </i>
   <i type="logical" name="LRHFCALC"> F  </i>
   <i type="logical" name="LTHOMAS"> F  </i>
   <i type="logical" name="LMODELHF"> F  </i>
   <i name="ENCUT4O">     -1.00000000</i>
   <i type="int" name="EXXOEP">     0</i>
   <i type="int" name="FOURORBIT">     0</i>
   <i name="AEXX">      0.00000000</i>
   <i name="HFALPHA">      0.00000000</i>
   <i name="MCALPHA">      0.00000000</i>
   <i name="ALDAX">      1.00000000</i>
   <i name="AGGAX">      1.00000000</i>
   <i name="ALDAC">      1.00000000</i>
   <i name="AGGAC">      1.00000000</i>
   <i type="int" name="NKREDX">     1</i>
   <i type="int" name="NKREDY">     1</i>
   <i type="int" name="NKREDZ">     1</i>
   <i type="logical" name="SHIFTRED"> F  </i>
   <i type="logical" name="ODDONLY"> F  </i>
   <i type="logical" name="EVENONLY"> F  </i>
   <i type="int" name="LMAXFOCK">     0</i>
   <i type="int" name="NMAXFOCKAE">     0</i>
   <i type="logical" name="LFOCKAEDFT"> F  </i>
   <i name="HFSCREEN">      0.00000000</i>
   <i name="HFSCREENC">      0.00000000</i>
   <i type="int" name="NBANDSGWLOW">     0</i>
  </separator>
  <separator name="vdW DFT" >
   <i type="logical" name="LUSE_VDW"> F  </i>
   <i name="Zab_VDW">     -0.84910000</i>
   <i name="PARAM1">      0.12340000</i>
   <i name="PARAM2">      1.00000000</i>
   <i name="PARAM3">      0.00000000</i>
  </separator>
  <separator name="model GW" >
   <i type="int" name="MODEL_GW">     0</i>
   <i name="MODEL_EPS0">    300.00000000</i>
   <i name="MODEL_ALPHA">      1.00000000</i>
  </separator>
  <separator name="linear response parameters" >
   <i type="logical" name="LEPSILON"> F  </i>
   <i type="logical" name="LRPA"> F  </i>
   <i type="logical" name="LNABLA"> F  </i>
   <i type="logical" name="LVEL"> F  </i>
   <i type="int" name="KINTER">     0</i>
   <i name="CSHIFT">      0.10000000</i>
   <i name="OMEGAMAX">     -1.00000000</i>
   <i name="DEG_THRESHOLD">      0.00200000</i>
   <i name="RTIME">     -0.10000000</i>
   <i name="WPLASMAI">      0.00000000</i>
   <v name="DFIELD">      0.00000000      0.00000000      0.00000000</v>
   <v name="WPLASMA">      0.00000000      0.00000000      0.00000000      0.00000000      0.00000000      0.00000000      0.00000000      0.00000000      0.00000000</v>
  </separator>
  <separator name="orbital magnetization" >
   <i type="logical" name="NUCIND"> F  </i>
   <v name="MAGPOS">      0.00000000      0.00000000      0.00000000</v>
   <i type="logical" name="LNICSALL"> T  </i>
   <i type="logical" name="ORBITALMAG"> F  </i>
   <i type="logical" name="LMAGBLOCH"> F  </i>
   <i type="logical" name="LCHIMAG"> F  </i>
   <i type="logical" name="LGAUGE"> T  </i>
   <i type="int" name="MAGATOM">     0</i>
   <v name="MAGDIPOL">      0.00000000      0.00000000      0.00000000</v>
   <v name="AVECCONST">      0.00000000      0.00000000      0.00000000</v>
  </separator>
  <separator name="response functions" >
   <i type="logical" name="LADDER"> F  </i>
   <i type="logical" name="LRPAFORCE"> F  </i>
   <i type="logical" name="LFXC"> F  </i>
   <i type="logical" name="LHARTREE"> T  </i>
   <i type="int" name="IBSE">     0</i>
   <v type="int" name="KPOINT">    -1     0     0     0</v>
   <i type="logical" name="LTCTE"> F  </i>
   <i type="logical" name="LTETE"> F  </i>
   <i type="logical" name="LTRIPLET"> F  </i>
   <i type="logical" name="LFXCEPS"> F  </i>
   <i type="logical" name="LFXHEG"> F  </i>
   <i type="int" name="NATURALO">     2</i>
   <i type="logical" name="L2ORDER"> F  </i>
   <i type="logical" name="LMP2LT"> F  </i>
   <i type="logical" name="LUSEW"> F  </i>
   <i name="ENCUTGW">     -2.00000000</i>
   <i name="ENCUTGWSOFT">     -2.00000000</i>
   <i name="ENCUTLF">     -1.00000000</i>
   <i type="int" name="LMAXMP2">    -1</i>
   <i name="SCISSOR">      0.00000000</i>
   <i type="int" name="NOMEGA">     0</i>
   <i type="int" name="NOMEGAR">     0</i>
   <i type="int" name="NBANDSGW">    -1</i>
   <i type="int" name="NBANDSO">    -1</i>
   <i type="int" name="NBANDSV">    -1</i>
   <i type="int" name="NELM">   100</i>
   <i type="int" name="NELMHF">     1</i>
   <i type="int" name="DIM">     3</i>
   <i type="int" name="ANTIRES">     0</i>
   <i name="OMEGAMAX">    -30.00000000</i>
   <i name="OMEGAMIN">    -30.00000000</i>
   <i name="OMEGATL">   -200.00000000</i>
   <i type="int" name="OMEGAGRID">   140</i>
   <i name="CSHIFT">     -0.10000000</i>
   <i type="logical" name="SELFENERGY"> F  </i>
   <i type="logical" name="LSPECTRAL"> F  </i>
   <i type="logical" name="LSPECTRALGW"> F  </i>
   <i type="logical" name="LSINGLES"> F  </i>
   <i type="logical" name="LFERMIGW"> F  </i>
   <i type="logical" name="ODDONLYGW"> F  </i>
   <i type="logical" name="EVENONLYGW"> F  </i>
   <i type="int" name="NKREDLFX">     1</i>
   <i type="int" name="NKREDLFY">     1</i>
   <i type="int" name="NKREDLFZ">     1</i>
   <i type="int" name="MAXMEM">  2800</i>
   <i type="int" name="TELESCOPE">     0</i>
   <i type="int" name="TAUPAR">     1</i>
   <i type="int" name="OMEGAPAR">    -1</i>
   <i name="LAMBDA">      1.00000000</i>
  </separator>
  <separator name="External order field" >
   <i name="OFIELD_KAPPA">      0.00000000</i>
   <v name="OFIELD_K">      0.00000000      0.00000000      0.00000000</v>
   <i name="OFIELD_Q6_NEAR">      0.00000000</i>
   <i name="OFIELD_Q6_FAR">      0.00000000</i>
   <i name="OFIELD_A">      0.00000000</i>
  </separator>
 </parameters>
 <atominfo>
  <atoms>       2 </atoms>
  <types>       1 </types>
  <array name="atoms" >
   <dimension dim="1">ion</dimension>
   <field type="string">element</field>
   <field type="int">atomtype</field>
   <set>
    <rc><c>O </c><c>   1</c></rc>
    <rc><c>O </c><c>   1</c></rc>
   </set>
  </array>
  <array name="atomtypes" >
   <dimension dim="1">type</dimension>
   <field type="int">atomspertype</field>
   <field type="string">element</field>
   <field>mass</field>
   <field>valence</field>
   <field type="string">pseudopotential</field>
   <set>
    <rc><c>   2</c><c>O </c><c>     16.00000000</c><c>      6.00000000</c><c>  PAW_PBE O 08Apr2002                   </c></rc>
   </set>
  </array>
 </atominfo>
 <structure name="initialpos" >
  <crystal>
   <varray name="basis" >
    <v>      10.00000000       0.00000000       0.00000000 </v>
    <v>       0.00000000      10.00000000       0.00000000 </v>
    <v>       0.00000000       0.00000000      10.00000000 </v>
   </varray>
   <i name="volume">   1000.00000000 </i>
   <varray name="rec_basis" >
    <v>       0.10000000       0.00000000       0.00000000 </v>
    <v>       0.00000000       0.10000000       0.00000000 </v>
    <v>       0.00000000       0.00000000       0.10000000 </v>
   </varray>
  </crystal>
  <varray name="positions" >
   <v>       0.00000000       0.00000000       0.93859190 </v>
   <v>       0.00000000       0.00000000       0.06140810 </v>
  </varray>
 </structure>
 <calculation>
  <scstep>
   <time name="dav">    0.10    0.10</time>
   <time name="total">    0.25    0.26</time>
   <energy>
    <i name="alphaZ">      0.55581782 </i>
    <i name="ewald">    129.59568251 </i>
    <i name="hartreedc">   -862.51096227 </i>
    <i name="XCdc">     55.38336163 </i>
    <i name="pawpsdc">    877.08623818 </i>
    <i name="pawaedc">   -879.73331367 </i>
    <i name="eentropy">     -0.11283792 </i>
    <i name="bandstr">   -190.79804128 </i>
    <i name="atom">    861.26955175 </i>
    <i name="e_fr_energy">     -9.26450325 </i>
    <i name="e_wo_entrp">     -9.15166533 </i>
    <i name="e_0_energy">     -9.20808429 </i>
   </energy>
  </scstep>
  <scstep>
   <time name="dav">    0.07    0.07</time>
   <time name="total">    0.17    0.18</time>
   <energy>
    <i name="alphaZ">      0.55581782 </i>
    <i name="ewald">    129.59568251 </i>
    <i name="hartreedc">   -862.51031922 </i>
    <i name="XCdc">     55.38332191 </i>
    <i name="pawpsdc">    877.08649760 </i>
    <i name="pawaedc">   -879.73355929 </i>
    <i name="eentropy">     -0.11283792 </i>
    <i name="bandstr">   -190.79865841 </i>
    <i name="atom">    861.26955175 </i>
    <i name="e_fr_energy">     -9.26450325 </i>
    <i name="e_wo_entrp">     -9.15166533 </i>
    <i name="e_0_energy">     -9.20808429 </i>
   </energy>
  </scstep>
  <structure>
   <crystal>
    <varray name="basis" >
     <v>      10.00000000       0.00000000       0.00000000 </v>
     <v>       0.00000000      10.00000000       0.00000000 </v>
     <v>       0.00000000       0.00000000      10.00000000 </v>
    </varray>
    <i name="volume">   1000.00000000 </i>
    <varray name="rec_basis" >
     <v>       0.10000000       0.00000000       0.00000000 </v>
     <v>       0.00000000       0.10000000       0.00000000 </v>
     <v>       0.00000000       0.00000000       0.10000000 </v>
    </varray>
   </crystal>
   <varray name="positions" >
    <v>       0.00000000       0.00000000       0.93859190 </v>
    <v>       0.00000000       0.00000000       0.06140810 </v>
   </varray>
  </structure>
  <varray name="forces" >
   <v>       0.00000000      -0.00000000      -0.00001445 </v>
   <v>      -0.00000000       0.00000000       0.00001445 </v>
  </varray>
  <varray name="stress" >
   <v>      -0.10508744      -0.00000000      -0.00000000 </v>
   <v>       0.00000000      -0.10508744       0.00000000 </v>
   <v>      -0.00000000      -0.00000000      -0.11328586 </v>
  </varray>
  <energy>
   <i name="e_fr_energy">     -9.26450325 </i>
   <i name="e_wo_entrp">     -9.20808429 </i>
   <i name="e_0_energy">     -0.11283792 </i>
  </energy>
  <time name="totalsc">    0.84    0.94</time>
  <eigenvalues>
   <array>
    <dimension dim="1">band</dimension>
    <dimension dim="2">kpoint</dimension>
    <dimension dim="3">spin</dimension>
    <field>eigene</field>
    <field>occ</field>
    <set>
     <set comment="spin 1">
      <set comment="kpoint 1">
       <r>  -32.0200    1.0000 </r>
       <r>  -19.6417    1.0000 </r>
       <r>  -12.9492    1.0000 </r>
       <r>  -12.4749    1.0000 </r>
       <r>  -12.4749    1.0000 </r>
       <r>   -5.8386    0.5000 </r>
       <r>   -5.8386    0.5000 </r>
       <r>   -0.2332    0.0000 </r>
       <r>    0.9971    0.0000 </r>
       <r>    1.1953    0.0000 </r>
       <r>    1.1953    0.0000 </r>
       <r>    1.2529    0.0000 </r>
       <r>    1.4079    0.0000 </r>
       <r>    1.4124    0.0000 </r>
       <r>    2.3227    0.0000 </r>
       <r>    2.6540    0.0000 </r>
       <r>    2.6540    0.0000 </r>
       <r>    2.6865    0.0000 </r>
       <r>    2.7148    0.0000 </r>
       <r>    2.7148    0.0000 </r>
       <r>    2.8433    0.0000 </r>
       <r>    2.9206    0.0000 </r>
       <r>    2.9401    0.0000 </r>
       <r>    2.9591    0.0000 </r>
       <r>    2.9591    0.0000 </r>
       <r>    3.0482    0.0000 </r>
       <r>    3.8319    0.0000 </r>
       <r>    4.2538    0.0000 </r>
       <r>    4.2729    0.0000 </r>
       <r>    4.2776    0.0000 </r>
       <r>    4.2776    0.0000 </r>
       <r>    4.3661    0.0000 </r>
       <r>    4.3661    0.0000 </r>
       <r>    4.5390    0.0000 </r>
       <r>    4.8953    0.0000 </r>
       <r>    5.3525    0.0000 </r>
      </set>
     </set>
    </set>
   </array>
  </eigenvalues>
  <separator name="orbital magnetization" >
   <v name="MAGDIPOLOUT">      0.00000000      0.00000000      0.00000000</v>
  </separator>
  <dos>
   <i name="efermi">     -5.83859009 </i>
   <total>
    <array>
     <dimension dim="1">gridpoints</dimension>
     <dimension dim="2">spin</dimension>
     <field>energy</field>
     <field>total</field>
     <field>integrated</field>
     <set>
      <set comment="spin 1">
       <r>   -33.8886     0.0000     0.0000 </r>
       <r>   -33.7516     0.0000     0.0000 </r>
       <r>   -33.6146     0.0000     0.0000 </r>
       <r>   -33.4775     0.0000     0.0000 </r>
       <r>   -33.3405     0.0000     0.0000 </r>
       <r>   -33.2035     0.0000     0.0000 </r>
       <r>   -33.0664     0.0000     0.0000 </r>
       <r>   -32.9294     0.0000     0.0000 </r>
       <r>   -32.7924     0.0000     0.0000 </r>
       <r>   -32.6554     0.0000     0.0000 </r>
       <r>   -32.5183     0.0000     0.0000 </r>
       <r>   -32.3813     0.0000     0.0000 </r>
       <r>   -32.2443     0.0111     0.0015 </r>
       <r>   -32.1072     1.5761     0.2175 </r>
       <r>   -31.9702     9.4979     1.5190 </r>
       <r>   -31.8332     3.4500     1.9918 </r>
       <r>   -31.6961     0.0600     2.0000 </r>
       <r>   -31.5591     0.0000     2.0000 </r>
       <r>   -31.4221     0.0000     2.0000 </r>
       <r>   -31.2850     0.0000     2.0000 </r>
       <r>   -31.1480     0.0000     2.0000 </r>
       <r>   -31.0110     0.0000     2.0000 </r>
       <r>   -30.8739     0.0000     2.0000 </r>
       <r>   -30.7369     0.0000     2.0000 </r>
       <r>   -30.5999     0.0000     2.0000 </r>
       <r>   -30.4628     0.0000     2.0000 </r>
       <r>   -30.3258     0.0000     2.0000 </r>
       <r>   -30.1888     0.0000     2.0000 </r>
       <r>   -30.0517     0.0000     2.0000 </r>
       <r>   -29.9147     0.0000     2.0000 </r>
       <r>   -29.7777     0.0000     2.0000 </r>
       <r>   -29.6406     0.0000     2.0000 </r>
       <r>   -29.5036     0.0000     2.0000 </r>
       <r>   -29.3666     0.0000     2.0000 </r>
       <r>   -29.2295     0.0000     2.0000 </r>
       <r>   -29.0925     0.0000     2.0000 </r>
       <r>   -28.9555     0.0000     2.0000 </r>
       <r>   -28.8184     0.0000     2.0000 </r>
       <r>   -28.6814     0.0000     2.0000 </r>
       <r>   -28.5444     0.0000     2.0000 </r>
       <r>   -28.4073     0.0000     2.0000 </r>
       <r>   -28.2703     0.0000     2.0000 </r>
       <r>   -28.1333     0.0000     2.0000 </r>
       <r>   -27.9962     0.0000     2.0000 </r>
       <r>   -27.8592     0.0000     2.0000 </r>
       <r>   -27.7222     0.0000     2.0000 </r>
       <r>   -27.5851     0.0000     2.0000 </r>
       <r>   -27.4481     0.0000     2.0000 </r>
       <r>   -27.3111     0.0000     2.0000 </r>
       <r>   -27.1741     0.0000     2.0000 </r>
       <r>   -27.0370     0.0000     2.0000 </r>
       <r>   -26.9000     0.0000     2.0000 </r>
       <r>   -26.7630     0.0000     2.0000 </r>
       <r>   -26.6259     0.0000     2.0000 </r>
       <r>   -26.4889     0.0000     2.0000 </r>
       <r>   -26.3519     0.0000     2.0000 </r>
       <r>   -26.2148     0.0000     2.0000 </r>
       <r>   -26.0778     0.0000     2.0000 </r>
       <r>   -25.9408     0.0000     2.0000 </r>
       <r>   -25.8037     0.0000     2.0000 </r>
       <r>   -25.6667     0.0000     2.0000 </r>
       <r>   -25.5297     0.0000     2.0000 </r>
       <r>   -25.3926     0.0000     2.0000 </r>
       <r>   -25.2556     0.0000     2.0000 </r>
       <r>   -25.1186     0.0000     2.0000 </r>
       <r>   -24.9815     0.0000     2.0000 </r>
       <r>   -24.8445     0.0000     2.0000 </r>
       <r>   -24.7075     0.0000     2.0000 </r>
       <r>   -24.5704     0.0000     2.0000 </r>
       <r>   -24.4334     0.0000     2.0000 </r>
       <r>   -24.2964     0.0000     2.0000 </r>
       <r>   -24.1593     0.0000     2.0000 </r>
       <r>   -24.0223     0.0000     2.0000 </r>
       <r>   -23.8853     0.0000     2.0000 </r>
       <r>   -23.7482     0.0000     2.0000 </r>
       <r>   -23.6112     0.0000     2.0000 </r>
       <r>   -23.4742     0.0000     2.0000 </r>
       <r>   -23.3371     0.0000     2.0000 </r>
       <r>   -23.2001     0.0000     2.0000 </r>
       <r>   -23.0631     0.0000     2.0000 </r>
       <r>   -22.9260     0.0000     2.0000 </r>
       <r>   -22.7890     0.0000     2.0000 </r>
       <r>   -22.6520     0.0000     2.0000 </r>
       <r>   -22.5149     0.0000     2.0000 </r>
       <r>   -22.3779     0.0000     2.0000 </r>
       <r>   -22.2409     0.0000     2.0000 </r>
       <r>   -22.1038     0.0000     2.0000 </r>
       <r>   -21.9668     0.0000     2.0000 </r>
       <r>   -21.8298     0.0000     2.0000 </r>
       <r>   -21.6927     0.0000     2.0000 </r>
       <r>   -21.5557     0.0000     2.0000 </r>
       <r>   -21.4187     0.0000     2.0000 </r>
       <r>   -21.2817     0.0000     2.0000 </r>
       <r>   -21.1446     0.0000     2.0000 </r>
       <r>   -21.0076     0.0000     2.0000 </r>
       <r>   -20.8706     0.0000     2.0000 </r>
       <r>   -20.7335     0.0000     2.0000 </r>
       <r>   -20.5965     0.0000     2.0000 </r>
       <r>   -20.4595     0.0000     2.0000 </r>
       <r>   -20.3224     0.0000     2.0000 </r>
       <r>   -20.1854     0.0000     2.0000 </r>
       <r>   -20.0484     0.0000     2.0000 </r>
       <r>   -19.9113     0.0010     2.0001 </r>
       <r>   -19.7743     0.4430     2.0608 </r>
       <r>   -19.6373     7.2218     3.0505 </r>
       <r>   -19.5002     6.5982     3.9546 </r>
       <r>   -19.3632     0.3305     3.9999 </r>
       <r>   -19.2262     0.0006     4.0000 </r>
       <r>   -19.0891     0.0000     4.0000 </r>
       <r>   -18.9521     0.0000     4.0000 </r>
       <r>   -18.8151     0.0000     4.0000 </r>
       <r>   -18.6780     0.0000     4.0000 </r>
       <r>   -18.5410     0.0000     4.0000 </r>
       <r>   -18.4040     0.0000     4.0000 </r>
       <r>   -18.2669     0.0000     4.0000 </r>
       <r>   -18.1299     0.0000     4.0000 </r>
       <r>   -17.9929     0.0000     4.0000 </r>
       <r>   -17.8558     0.0000     4.0000 </r>
       <r>   -17.7188     0.0000     4.0000 </r>
       <r>   -17.5818     0.0000     4.0000 </r>
       <r>   -17.4447     0.0000     4.0000 </r>
       <r>   -17.3077     0.0000     4.0000 </r>
       <r>   -17.1707     0.0000     4.0000 </r>
       <r>   -17.0336     0.0000     4.0000 </r>
       <r>   -16.8966     0.0000     4.0000 </r>
       <r>   -16.7596     0.0000     4.0000 </r>
       <r>   -16.6225     0.0000     4.0000 </r>
       <r>   -16.4855     0.0000     4.0000 </r>
       <r>   -16.3485     0.0000     4.0000 </r>
       <r>   -16.2114     0.0000     4.0000 </r>
       <r>   -16.0744     0.0000     4.0000 </r>
       <r>   -15.9374     0.0000     4.0000 </r>
       <r>   -15.8004     0.0000     4.0000 </r>
       <r>   -15.6633     0.0000     4.0000 </r>
       <r>   -15.5263     0.0000     4.0000 </r>
       <r>   -15.3893     0.0000     4.0000 </r>
       <r>   -15.2522     0.0000     4.0000 </r>
       <r>   -15.1152     0.0000     4.0000 </r>
       <r>   -14.9782     0.0000     4.0000 </r>
       <r>   -14.8411     0.0000     4.0000 </r>
       <r>   -14.7041     0.0000     4.0000 </r>
       <r>   -14.5671     0.0000     4.0000 </r>
       <r>   -14.4300     0.0000     4.0000 </r>
       <r>   -14.2930     0.0000     4.0000 </r>
       <r>   -14.1560     0.0000     4.0000 </r>
       <r>   -14.0189     0.0000     4.0000 </r>
       <r>   -13.8819     0.0000     4.0000 </r>
       <r>   -13.7449     0.0000     4.0000 </r>
       <r>   -13.6078     0.0000     4.0000 </r>
       <r>   -13.4708     0.0000     4.0000 </r>
       <r>   -13.3338     0.0000     4.0000 </r>
       <r>   -13.1967     0.0034     4.0005 </r>
       <r>   -13.0597     0.8593     4.1182 </r>
       <r>   -12.9227     8.5717     5.2928 </r>
       <r>   -12.7856     5.0098     5.9793 </r>
       <r>   -12.6486     0.3552     6.0280 </r>
       <r>   -12.5116     8.6083     7.2076 </r>
       <r>   -12.3745    18.1021     9.6882 </r>
       <r>   -12.2375     2.2638     9.9984 </r>
       <r>   -12.1005     0.0115    10.0000 </r>
       <r>   -11.9634     0.0000    10.0000 </r>
       <r>   -11.8264     0.0000    10.0000 </r>
       <r>   -11.6894     0.0000    10.0000 </r>
       <r>   -11.5523     0.0000    10.0000 </r>
       <r>   -11.4153     0.0000    10.0000 </r>
       <r>   -11.2783     0.0000    10.0000 </r>
       <r>   -11.1412     0.0000    10.0000 </r>
       <r>   -11.0042     0.0000    10.0000 </r>
       <r>   -10.8672     0.0000    10.0000 </r>
       <r>   -10.7301     0.0000    10.0000 </r>
       <r>   -10.5931     0.0000    10.0000 </r>
       <r>   -10.4561     0.0000    10.0000 </r>
       <r>   -10.3190     0.0000    10.0000 </r>
       <r>   -10.1820     0.0000    10.0000 </r>
       <r>   -10.0450     0.0000    10.0000 </r>
       <r>    -9.9080     0.0000    10.0000 </r>
       <r>    -9.7709     0.0000    10.0000 </r>
       <r>    -9.6339     0.0000    10.0000 </r>
       <r>    -9.4969     0.0000    10.0000 </r>
       <r>    -9.3598     0.0000    10.0000 </r>
       <r>    -9.2228     0.0000    10.0000 </r>
       <r>    -9.0858     0.0000    10.0000 </r>
       <r>    -8.9487     0.0000    10.0000 </r>
       <r>    -8.8117     0.0000    10.0000 </r>
       <r>    -8.6747     0.0000    10.0000 </r>
       <r>    -8.5376     0.0000    10.0000 </r>
       <r>    -8.4006     0.0000    10.0000 </r>
       <r>    -8.2636     0.0000    10.0000 </r>
       <r>    -8.1265     0.0000    10.0000 </r>
       <r>    -7.9895     0.0000    10.0000 </r>
       <r>    -7.8525     0.0000    10.0000 </r>
       <r>    -7.7154     0.0000    10.0000 </r>
       <r>    -7.5784     0.0000    10.0000 </r>
       <r>    -7.4414     0.0000    10.0000 </r>
       <r>    -7.3043     0.0000    10.0000 </r>
       <r>    -7.1673     0.0000    10.0000 </r>
       <r>    -7.0303     0.0000    10.0000 </r>
       <r>    -6.8932     0.0000    10.0000 </r>
       <r>    -6.7562     0.0000    10.0000 </r>
       <r>    -6.6192     0.0000    10.0000 </r>
       <r>    -6.4821     0.0000    10.0000 </r>
       <r>    -6.3451     0.0000    10.0000 </r>
       <r>    -6.2081     0.0000    10.0000 </r>
       <r>    -6.0710     0.0148    10.0020 </r>
       <r>    -5.9340     2.5715    10.3544 </r>
       <r>    -5.7970    18.4863    12.8876 </r>
       <r>    -5.6599     7.9494    13.9770 </r>
       <r>    -5.5229     0.1681    14.0000 </r>
       <r>    -5.3859     0.0001    14.0000 </r>
       <r>    -5.2488     0.0000    14.0000 </r>
       <r>    -5.1118     0.0000    14.0000 </r>
       <r>    -4.9748     0.0000    14.0000 </r>
       <r>    -4.8377     0.0000    14.0000 </r>
       <r>    -4.7007     0.0000    14.0000 </r>
       <r>    -4.5637     0.0000    14.0000 </r>
       <r>    -4.4267     0.0000    14.0000 </r>
       <r>    -4.2896     0.0000    14.0000 </r>
       <r>    -4.1526     0.0000    14.0000 </r>
       <r>    -4.0156     0.0000    14.0000 </r>
       <r>    -3.8785     0.0000    14.0000 </r>
       <r>    -3.7415     0.0000    14.0000 </r>
       <r>    -3.6045     0.0000    14.0000 </r>
       <r>    -3.4674     0.0000    14.0000 </r>
       <r>    -3.3304     0.0000    14.0000 </r>
       <r>    -3.1934     0.0000    14.0000 </r>
       <r>    -3.0563     0.0000    14.0000 </r>
       <r>    -2.9193     0.0000    14.0000 </r>
       <r>    -2.7823     0.0000    14.0000 </r>
       <r>    -2.6452     0.0000    14.0000 </r>
       <r>    -2.5082     0.0000    14.0000 </r>
       <r>    -2.3712     0.0000    14.0000 </r>
       <r>    -2.2341     0.0000    14.0000 </r>
       <r>    -2.0971     0.0000    14.0000 </r>
       <r>    -1.9601     0.0000    14.0000 </r>
       <r>    -1.8230     0.0000    14.0000 </r>
       <r>    -1.6860     0.0000    14.0000 </r>
       <r>    -1.5490     0.0000    14.0000 </r>
       <r>    -1.4119     0.0000    14.0000 </r>
       <r>    -1.2749     0.0000    14.0000 </r>
       <r>    -1.1379     0.0000    14.0000 </r>
       <r>    -1.0008     0.0000    14.0000 </r>
       <r>    -0.8638     0.0000    14.0000 </r>
       <r>    -0.7268     0.0000    14.0000 </r>
       <r>    -0.5897     0.0000    14.0000 </r>
       <r>    -0.4527     0.0139    14.0019 </r>
       <r>    -0.3157     1.7628    14.2435 </r>
       <r>    -0.1786     9.6047    15.5596 </r>
       <r>    -0.0416     3.1644    15.9933 </r>
       <r>     0.0954     0.0491    16.0000 </r>
       <r>     0.2325     0.0000    16.0000 </r>
       <r>     0.3695     0.0000    16.0000 </r>
       <r>     0.5065     0.0000    16.0000 </r>
       <r>     0.6436     0.0000    16.0000 </r>
       <r>     0.7806     0.0160    16.0022 </r>
       <r>     0.9176     1.8886    16.2610 </r>
       <r>     1.0547    10.3724    17.6824 </r>
       <r>     1.1917    19.1169    20.3020 </r>
       <r>     1.3287    27.6930    24.0968 </r>
       <r>     1.4657    22.1549    27.1328 </r>
       <r>     1.6028     6.2340    27.9870 </r>
       <r>     1.7398     0.0945    28.0000 </r>
       <r>     1.8768     0.0000    28.0000 </r>
       <r>     2.0139     0.0001    28.0000 </r>
       <r>     2.1509     0.1101    28.0151 </r>
       <r>     2.2879     4.4340    28.6227 </r>
       <r>     2.4250     8.9890    29.8545 </r>
       <r>     2.5620     4.8943    30.5252 </r>
       <r>     2.6990    38.3735    35.7836 </r>
       <r>     2.8361    39.7547    41.2313 </r>
       <r>     2.9731    45.2914    47.4377 </r>
       <r>     3.1101    29.8650    51.5302 </r>
       <r>     3.2472     3.3922    51.9950 </r>
       <r>     3.3842     0.0365    52.0000 </r>
       <r>     3.5212     0.0001    52.0000 </r>
       <r>     3.6583     0.1024    52.0140 </r>
       <r>     3.7953     4.3080    52.6044 </r>
       <r>     3.9323     9.0487    53.8443 </r>
       <r>     4.0694     1.2730    54.0188 </r>
       <r>     4.2064    10.9870    55.5244 </r>
       <r>     4.3434    49.2674    62.2756 </r>
       <r>     4.4805    28.5173    66.1834 </r>
       <r>     4.6175    11.3030    67.7323 </r>
       <r>     4.7545     2.2758    68.0441 </r>
       <r>     4.8916     6.6642    68.9573 </r>
       <r>     5.0286     7.1747    69.9405 </r>
       <r>     5.1656     0.4933    70.0081 </r>
       <r>     5.3027     3.4510    70.4810 </r>
       <r>     5.4397     9.4979    71.7825 </r>
       <r>     5.5767     1.5761    71.9985 </r>
       <r>     5.7138     0.0111    72.0000 </r>
       <r>     5.8508     0.0000    72.0000 </r>
       <r>     5.9878     0.0000    72.0000 </r>
       <r>     6.1249     0.0000    72.0000 </r>
       <r>     6.2619     0.0000    72.0000 </r>
       <r>     6.3989     0.0000    72.0000 </r>
       <r>     6.5360     0.0000    72.0000 </r>
       <r>     6.6730     0.0000    72.0000 </r>
       <r>     6.8100     0.0000    72.0000 </r>
       <r>     6.9470     0.0000    72.0000 </r>
       <r>     7.0841     0.0000    72.0000 </r>
       <r>     7.2211     0.0000    72.0000 </r>
      </set>
     </set>
    </array>
   </total>
  </dos>
 </calculation>
 <structure name="finalpos" >
  <crystal>
   <varray name="basis" >
    <v>      10.00000000       0.00000000       0.00000000 </v>
    <v>       0.00000000      10.00000000       0.00000000 </v>
    <v>       0.00000000       0.00000000      10.00000000 </v>
   </varray>
   <i name="volume">   1000.00000000 </i>
   <varray name="rec_basis" >
    <v>       0.10000000       0.00000000       0.00000000 </v>
    <v>       0.00000000       0.10000000       0.00000000 </v>
    <v>       0.00000000       0.00000000       0.10000000 </v>
   </varray>
  </crystal>
  <varray name="positions" >
   <v>       0.00000000       0.00000000       0.93859190 </v>
   <v>       0.00000000       0.00000000       0.06140810 </v>
  </varray>
 </structure>
</modeling>
