       N       E                     dE             d eps       ncg     rms          ort
DAV:   1     0.624224364868E+02    0.62422E+02   -0.21352E+03    36   0.150E+02
DAV:   2     0.459521757829E+02   -0.16470E+02   -0.16465E+02    36   0.221E+01
DAV:   3     0.327972271239E+02   -0.13155E+02   -0.13076E+02    36   0.605E+00
DAV:   4     0.108744009787E+02   -0.21923E+02   -0.21343E+02    36   0.215E+01
DAV:   5     0.304944300234E+01   -0.78250E+01   -0.78187E+01    36   0.125E+01
SDA:   6     0.321952150777E+01    0.17008E+00   -0.61610E+01    36   0.154E+02 0.000E+00
DMP:   7     0.297788971756E+00   -0.29217E+01   -0.55503E+00    36   0.123E+01 0.401E+00
DMP:   8     0.108871446878E+00   -0.18892E+00   -0.47505E+00    36   0.142E+01-0.602E+00
DMP:   9    -0.171517450069E+00   -0.28039E+00   -0.11754E+00    36   0.220E+00 0.194E+00
DMP:  10    -0.194277414727E+00   -0.22760E-01   -0.22649E-01    36   0.128E+00-0.187E+00
DMP:  11    -0.210123014263E+00   -0.15846E-01   -0.38451E-01    36   0.888E-01 0.193E-01
DMP:  12    -0.233944148994E+00   -0.23821E-01   -0.82636E-02    36   0.116E-01 0.238E-01
DMP:  13    -0.239492121175E+00   -0.55480E-02   -0.68745E-02    36   0.134E-01 0.992E-02
DMP:  14    -0.248364492339E+00   -0.88724E-02   -0.89470E-02    36   0.121E-01 0.270E-01
DMP:  15    -0.257290038757E+00   -0.89255E-02   -0.58984E-02    36   0.675E-02 0.209E-01
DMP:  16    -0.262569970071E+00   -0.52799E-02   -0.31648E-02    36   0.371E-02 0.110E-01
DMP:  17    -0.265281562555E+00   -0.27116E-02   -0.15914E-02    36   0.186E-02 0.555E-02
DMP:  18    -0.266881670773E+00   -0.16001E-02   -0.14252E-02    36   0.187E-02 0.443E-02
DMP:  19    -0.269004661388E+00   -0.21230E-02   -0.23860E-02    36   0.314E-02 0.741E-02
DMP:  20    -0.271952412508E+00   -0.29478E-02   -0.25341E-02    36   0.313E-02 0.839E-02
DMP:  21    -0.274489142710E+00   -0.25367E-02   -0.17295E-02    36   0.202E-02 0.603E-02
DMP:  22    -0.276044479138E+00   -0.15553E-02   -0.92204E-03    36   0.103E-02 0.334E-02
DMP:  23    -0.276831133282E+00   -0.78665E-03   -0.42767E-03    36   0.458E-03 0.160E-02
DMP:  24    -0.277185679541E+00   -0.35455E-03   -0.18138E-03    36   0.187E-03 0.697E-03
DMP:  25    -0.277333341782E+00   -0.14766E-03   -0.71993E-04    36   0.717E-04 0.283E-03
DMP:  26    -0.277391170804E+00   -0.57829E-04   -0.27040E-04    36   0.260E-04 0.109E-03
DMP:  27    -0.277412638629E+00   -0.21468E-04   -0.96436E-05    36   0.894E-05 0.397E-04
   1 F= -.27741264E+00 E0= -.25813165E+00  d E =-.277413E+00  mag=    -1.0000
