<?xml version="1.0" encoding="ISO-8859-1"?>
<modeling>
 <generator>
  <i name="program" type="string">vasp </i>
  <i name="version" type="string">5.4.4.18Apr17-6-g9f103f2a35  </i>
  <i name="subversion" type="string">(build Nov 08 2019 15:19:53) gamma-only         parallel </i>
  <i name="platform" type="string">LinuxIFC </i>
  <i name="date" type="string">2020 11 30 </i>
  <i name="time" type="string">09:30:44 </i>
 </generator>
 <incar>
  <i type="string" name="PREC">accurate</i>
  <i type="string" name="ALGO"> D</i>
  <i type="int" name="ISPIN">     2</i>
  <i type="int" name="NELM">   300</i>
  <i type="int" name="IBRION">     2</i>
  <i name="EDIFF">      0.00005000</i>
  <i type="int" name="NSW">    99</i>
  <i type="int" name="ISIF">     2</i>
  <i name="ENCUT">    520.00000000</i>
  <v name="MAGMOM">      0.60000000</v>
  <i type="string" name="LREAL"> Auto</i>
  <i type="int" name="ISMEAR">     0</i>
  <i name="SIGMA">      0.05000000</i>
  <i type="logical" name="LWAVE"> F  </i>
  <i type="int" name="LORBIT">    11</i>
  <i type="logical" name="LASPH"> T  </i>
  <v type="int" name="KPOINT_BSE">    -1     0     0     0</v>
  <i type="int" name="NELM">   300</i>
  <i type="logical" name="LASPH"> T  </i>
 </incar>
 <structure name="primitive_cell" >
  <crystal>
   <varray name="basis" >
    <v>      10.00000000       0.00000000       0.00000000 </v>
    <v>       0.00000000      10.00000000       0.00000000 </v>
    <v>       0.00000000       0.00000000      10.00000000 </v>
   </varray>
   <i name="volume">   1000.00000000 </i>
   <varray name="rec_basis" >
    <v>       0.10000000       0.00000000       0.00000000 </v>
    <v>       0.00000000       0.10000000       0.00000000 </v>
    <v>       0.00000000       0.00000000       0.10000000 </v>
   </varray>
  </crystal>
  <varray name="positions" >
   <v>      -0.50000000      -0.50000000      -0.50000000 </v>
  </varray>
 </structure>
 <varray name="primitive_index" >
  <v type="int" >        1 </v>
 </varray>
 <kpoints>
  <generation param="Gamma">
   <v type="int" name="divisions">       1        1        1 </v>
   <v name="usershift">      0.00000000       0.00000000       0.00000000 </v>
   <v name="genvec1">      1.00000000       0.00000000       0.00000000 </v>
   <v name="genvec2">      0.00000000       1.00000000       0.00000000 </v>
   <v name="genvec3">      0.00000000       0.00000000       1.00000000 </v>
   <v name="shift">      0.00000000       0.00000000       0.00000000 </v>
  </generation>
  <varray name="kpointlist" >
   <v>       0.00000000       0.00000000       0.00000000 </v>
  </varray>
  <varray name="weights" >
   <v>       1.00000000 </v>
  </varray>
 </kpoints>
 <parameters>
  <separator name="general" >
   <i type="string" name="SYSTEM">unknown system</i>
   <i type="logical" name="LCOMPAT"> F  </i>
  </separator>
  <separator name="electronic" >
   <i type="string" name="PREC">accura</i>
   <i name="ENMAX">    520.00000000</i>
   <i name="ENAUG">    356.19200000</i>
   <i name="EDIFF">      0.00005000</i>
   <i type="int" name="IALGO">    53</i>
   <i type="int" name="IWAVPR">    11</i>
   <i type="int" name="NBANDS">    36</i>
   <i name="NELECT">      7.00000000</i>
   <i type="int" name="TURBO">     0</i>
   <i type="int" name="IRESTART">     0</i>
   <i type="int" name="NREBOOT">     0</i>
   <i type="int" name="NMIN">     0</i>
   <i name="EREF">      0.00000000</i>
   <separator name="electronic smearing" >
    <i type="int" name="ISMEAR">     0</i>
    <i name="SIGMA">      0.05000000</i>
    <i name="KSPACING">      0.50000000</i>
    <i type="logical" name="KGAMMA"> T  </i>
   </separator>
   <separator name="electronic projectors" >
    <i type="logical" name="LREAL"> T  </i>
    <v name="ROPT">     -0.00025000</v>
    <i type="int" name="LMAXPAW">  -100</i>
    <i type="int" name="LMAXMIX">     2</i>
    <i type="logical" name="NLSPLINE"> F  </i>
   </separator>
   <separator name="electronic startup" >
    <i type="int" name="ISTART">     0</i>
    <i type="int" name="ICHARG">     2</i>
    <i type="int" name="INIWAV">     1</i>
   </separator>
   <separator name="electronic spin" >
    <i type="int" name="ISPIN">     2</i>
    <i type="logical" name="LNONCOLLINEAR"> F  </i>
    <v name="MAGMOM">      0.60000000</v>
    <i name="NUPDOWN">     -1.00000000</i>
    <i type="logical" name="LSORBIT"> F  </i>
    <v name="SAXIS">      0.00000000      0.00000000      1.00000000</v>
    <i type="logical" name="LSPIRAL"> F  </i>
    <v name="QSPIRAL">      0.00000000      0.00000000      0.00000000</v>
    <i type="logical" name="LZEROZ"> F  </i>
   </separator>
   <separator name="electronic exchange-correlation" >
    <i type="logical" name="LASPH"> T  </i>
    <i type="logical" name="LMETAGGA"> F  </i>
   </separator>
   <separator name="electronic convergence" >
    <i type="int" name="NELM">   300</i>
    <i type="int" name="NELMDL">    -5</i>
    <i type="int" name="NELMIN">     2</i>
    <i name="ENINI">    520.00000000</i>
    <separator name="electronic convergence detail" >
     <i type="logical" name="LDIAG"> T  </i>
     <i type="logical" name="LSUBROT"> F  </i>
     <i name="WEIMIN">      0.00100000</i>
     <i name="EBREAK">      0.00000035</i>
     <i name="DEPER">      0.30000000</i>
     <i type="int" name="NRMM">     4</i>
     <i name="TIME">      0.40000000</i>
    </separator>
   </separator>
   <separator name="electronic mixer" >
    <i name="AMIX">      0.40000000</i>
    <i name="BMIX">      1.00000000</i>
    <i name="AMIN">      0.10000000</i>
    <i name="AMIX_MAG">      1.60000000</i>
    <i name="BMIX_MAG">      1.00000000</i>
    <separator name="electronic mixer details" >
     <i type="int" name="IMIX">     4</i>
     <i type="logical" name="MIXFIRST"> F  </i>
     <i type="int" name="MAXMIX">   -45</i>
     <i name="WC">    100.00000000</i>
     <i type="int" name="INIMIX">     1</i>
     <i type="int" name="MIXPRE">     1</i>
     <i type="int" name="MREMOVE">     5</i>
    </separator>
   </separator>
   <separator name="electronic dipolcorrection" >
    <i type="logical" name="LDIPOL"> F  </i>
    <i type="logical" name="LMONO"> F  </i>
    <i type="int" name="IDIPOL">     0</i>
    <i name="EPSILON">      1.00000000</i>
    <v name="DIPOL">   -100.00000000   -100.00000000   -100.00000000</v>
    <i name="EFIELD">      0.00000000</i>
   </separator>
  </separator>
  <separator name="grids" >
   <i type="int" name="NGX">    80</i>
   <i type="int" name="NGY">    80</i>
   <i type="int" name="NGZ">    80</i>
   <i type="int" name="NGXF">   160</i>
   <i type="int" name="NGYF">   160</i>
   <i type="int" name="NGZF">   160</i>
   <i type="logical" name="ADDGRID"> F  </i>
  </separator>
  <separator name="ionic" >
   <i type="int" name="NSW">    99</i>
   <i type="int" name="IBRION">     2</i>
   <i type="int" name="MDALGO">     0</i>
   <i type="int" name="ISIF">     2</i>
   <i name="PSTRESS">      0.00000000</i>
   <i name="EDIFFG">      0.00050000</i>
   <i type="int" name="NFREE">     1</i>
   <i name="POTIM">      0.50000000</i>
   <i name="SMASS">     -3.00000000</i>
   <i name="SCALEE">      1.00000000</i>
  </separator>
  <separator name="ionic md" >
   <i name="TEBEG">      0.00010000</i>
   <i name="TEEND">      0.00010000</i>
   <i type="int" name="NBLOCK">     1</i>
   <i type="int" name="KBLOCK">    99</i>
   <i type="int" name="NPACO">   256</i>
   <i name="APACO">     16.00000000</i>
  </separator>
  <separator name="symmetry" >
   <i type="int" name="ISYM">     2</i>
   <i name="SYMPREC">      0.00001000</i>
  </separator>
  <separator name="dos" >
   <i type="int" name="LORBIT">    11</i>
   <v name="RWIGS">     -1.00000000</v>
   <i type="int" name="NEDOS">   301</i>
   <i name="EMIN">     10.00000000</i>
   <i name="EMAX">    -10.00000000</i>
   <i name="EFERMI">      0.00000000</i>
  </separator>
  <separator name="writing" >
   <i type="int" name="NWRITE">     2</i>
   <i type="logical" name="LWAVE"> F  </i>
   <i type="logical" name="LDOWNSAMPLE"> F  </i>
   <i type="logical" name="LCHARG"> T  </i>
   <i type="logical" name="LPARD"> F  </i>
   <i type="logical" name="LVTOT"> F  </i>
   <i type="logical" name="LVHAR"> F  </i>
   <i type="logical" name="LELF"> F  </i>
   <i type="logical" name="LOPTICS"> F  </i>
   <v name="STM">      0.00000000      0.00000000      0.00000000      0.00000000      0.00000000      0.00000000      0.00000000</v>
  </separator>
  <separator name="performance" >
   <i type="int" name="NPAR">    36</i>
   <i type="int" name="NSIM">     4</i>
   <i type="int" name="NBLK">    -1</i>
   <i type="logical" name="LPLANE"> T  </i>
   <i type="logical" name="LSCALAPACK"> T  </i>
   <i type="logical" name="LSCAAWARE"> F  </i>
   <i type="logical" name="LSCALU"> F  </i>
   <i type="logical" name="LASYNC"> F  </i>
   <i type="logical" name="LORBITALREAL"> F  </i>
  </separator>
  <separator name="miscellaneous" >
   <i type="int" name="IDIOT">     3</i>
   <i type="int" name="ISPECIAL">     0</i>
   <i type="logical" name="LMUSIC"> F  </i>
   <v name="POMASS">     35.45300000</v>
   <v name="DARWINR">      0.00000000</v>
   <v name="DARWINV">      1.00000000</v>
   <i type="logical" name="LCORR"> T  </i>
  </separator>
  <i type="logical" name="GGA_COMPAT"> T  </i>
  <i type="logical" name="LBERRY"> F  </i>
  <i type="int" name="ICORELEVEL">     0</i>
  <i type="logical" name="LDAU"> F  </i>
  <i type="int" name="I_CONSTRAINED_M">     0</i>
  <separator name="electronic exchange-correlation" >
   <i type="string" name="GGA">--</i>
   <i type="int" name="VOSKOWN">     0</i>
   <i type="logical" name="LHFCALC"> F  </i>
   <i type="string" name="PRECFOCK"></i>
   <i type="logical" name="LSYMGRAD"> F  </i>
   <i type="logical" name="LHFONE"> F  </i>
   <i type="logical" name="LRHFCALC"> F  </i>
   <i type="logical" name="LTHOMAS"> F  </i>
   <i type="logical" name="LMODELHF"> F  </i>
   <i name="ENCUT4O">     -1.00000000</i>
   <i type="int" name="EXXOEP">     0</i>
   <i type="int" name="FOURORBIT">     0</i>
   <i name="AEXX">      0.00000000</i>
   <i name="HFALPHA">      0.00000000</i>
   <i name="MCALPHA">      0.00000000</i>
   <i name="ALDAX">      1.00000000</i>
   <i name="AGGAX">      1.00000000</i>
   <i name="ALDAC">      1.00000000</i>
   <i name="AGGAC">      1.00000000</i>
   <i type="int" name="NKREDX">     1</i>
   <i type="int" name="NKREDY">     1</i>
   <i type="int" name="NKREDZ">     1</i>
   <i type="logical" name="SHIFTRED"> F  </i>
   <i type="logical" name="ODDONLY"> F  </i>
   <i type="logical" name="EVENONLY"> F  </i>
   <i type="int" name="LMAXFOCK">     0</i>
   <i type="int" name="NMAXFOCKAE">     0</i>
   <i type="logical" name="LFOCKAEDFT"> F  </i>
   <i name="HFSCREEN">      0.00000000</i>
   <i name="HFSCREENC">      0.00000000</i>
   <i type="int" name="NBANDSGWLOW">     0</i>
  </separator>
  <separator name="vdW DFT" >
   <i type="logical" name="LUSE_VDW"> F  </i>
   <i name="Zab_VDW">     -0.84910000</i>
   <i name="PARAM1">      0.12340000</i>
   <i name="PARAM2">      1.00000000</i>
   <i name="PARAM3">      0.00000000</i>
  </separator>
  <separator name="model GW" >
   <i type="int" name="MODEL_GW">     0</i>
   <i name="MODEL_EPS0">    600.00000000</i>
   <i name="MODEL_ALPHA">      1.00000000</i>
  </separator>
  <separator name="linear response parameters" >
   <i type="logical" name="LEPSILON"> F  </i>
   <i type="logical" name="LRPA"> F  </i>
   <i type="logical" name="LNABLA"> F  </i>
   <i type="logical" name="LVEL"> F  </i>
   <i type="int" name="KINTER">     0</i>
   <i name="CSHIFT">      0.10000000</i>
   <i name="OMEGAMAX">     -1.00000000</i>
   <i name="DEG_THRESHOLD">      0.00200000</i>
   <i name="RTIME">     -0.10000000</i>
   <i name="WPLASMAI">      0.00000000</i>
   <v name="DFIELD">      0.00000000      0.00000000      0.00000000</v>
   <v name="WPLASMA">      0.00000000      0.00000000      0.00000000      0.00000000      0.00000000      0.00000000      0.00000000      0.00000000      0.00000000</v>
  </separator>
  <separator name="orbital magnetization" >
   <i type="logical" name="NUCIND"> F  </i>
   <v name="MAGPOS">      0.00000000      0.00000000      0.00000000</v>
   <i type="logical" name="LNICSALL"> T  </i>
   <i type="logical" name="ORBITALMAG"> F  </i>
   <i type="logical" name="LMAGBLOCH"> F  </i>
   <i type="logical" name="LCHIMAG"> F  </i>
   <i type="logical" name="LGAUGE"> T  </i>
   <i type="int" name="MAGATOM">     0</i>
   <v name="MAGDIPOL">      0.00000000      0.00000000      0.00000000</v>
   <v name="AVECCONST">      0.00000000      0.00000000      0.00000000</v>
  </separator>
  <separator name="response functions" >
   <i type="logical" name="LADDER"> F  </i>
   <i type="logical" name="LRPAFORCE"> F  </i>
   <i type="logical" name="LFXC"> F  </i>
   <i type="logical" name="LHARTREE"> T  </i>
   <i type="int" name="IBSE">     0</i>
   <v type="int" name="KPOINT">    -1     0     0     0</v>
   <i type="logical" name="LTCTE"> F  </i>
   <i type="logical" name="LTETE"> F  </i>
   <i type="logical" name="LTRIPLET"> F  </i>
   <i type="logical" name="LFXCEPS"> F  </i>
   <i type="logical" name="LFXHEG"> F  </i>
   <i type="int" name="NATURALO">     2</i>
   <i type="logical" name="L2ORDER"> F  </i>
   <i type="logical" name="LMP2LT"> F  </i>
   <i type="logical" name="LUSEW"> F  </i>
   <i name="ENCUTGW">     -2.00000000</i>
   <i name="ENCUTGWSOFT">     -2.00000000</i>
   <i name="ENCUTLF">     -1.00000000</i>
   <i type="int" name="LMAXMP2">    -1</i>
   <i name="SCISSOR">      0.00000000</i>
   <i type="int" name="NOMEGA">     0</i>
   <i type="int" name="NOMEGAR">     0</i>
   <i type="int" name="NBANDSGW">    -1</i>
   <i type="int" name="NBANDSO">    -1</i>
   <i type="int" name="NBANDSV">    -1</i>
   <i type="int" name="NELM">   300</i>
   <i type="int" name="NELMHF">     1</i>
   <i type="int" name="DIM">     3</i>
   <i type="int" name="ANTIRES">     0</i>
   <i name="OMEGAMAX">    -30.00000000</i>
   <i name="OMEGAMIN">    -30.00000000</i>
   <i name="OMEGATL">   -200.00000000</i>
   <i type="int" name="OMEGAGRID">   140</i>
   <i name="CSHIFT">     -0.10000000</i>
   <i type="logical" name="SELFENERGY"> F  </i>
   <i type="logical" name="LSPECTRAL"> F  </i>
   <i type="logical" name="LSPECTRALGW"> F  </i>
   <i type="logical" name="LSINGLES"> F  </i>
   <i type="logical" name="LFERMIGW"> F  </i>
   <i type="logical" name="ODDONLYGW"> F  </i>
   <i type="logical" name="EVENONLYGW"> F  </i>
   <i type="int" name="NKREDLFX">     1</i>
   <i type="int" name="NKREDLFY">     1</i>
   <i type="int" name="NKREDLFZ">     1</i>
   <i type="int" name="MAXMEM">  2800</i>
   <i type="int" name="TELESCOPE">     0</i>
   <i type="int" name="TAUPAR">     1</i>
   <i type="int" name="OMEGAPAR">    -1</i>
   <i name="LAMBDA">      1.00000000</i>
  </separator>
  <separator name="External order field" >
   <i name="OFIELD_KAPPA">      0.00000000</i>
   <v name="OFIELD_K">      0.00000000      0.00000000      0.00000000</v>
   <i name="OFIELD_Q6_NEAR">      0.00000000</i>
   <i name="OFIELD_Q6_FAR">      0.00000000</i>
   <i name="OFIELD_A">      0.00000000</i>
  </separator>
 </parameters>
 <atominfo>
  <atoms>       1 </atoms>
  <types>       1 </types>
  <array name="atoms" >
   <dimension dim="1">ion</dimension>
   <field type="string">element</field>
   <field type="int">atomtype</field>
   <set>
    <rc><c>Cl</c><c>   1</c></rc>
   </set>
  </array>
  <array name="atomtypes" >
   <dimension dim="1">type</dimension>
   <field type="int">atomspertype</field>
   <field type="string">element</field>
   <field>mass</field>
   <field>valence</field>
   <field type="string">pseudopotential</field>
   <set>
    <rc><c>   1</c><c>Cl</c><c>     35.45300000</c><c>      7.00000000</c><c>  PAW_PBE Cl 06Sep2000                  </c></rc>
   </set>
  </array>
 </atominfo>
 <structure name="initialpos" >
  <crystal>
   <varray name="basis" >
    <v>      10.00000000       0.00000000       0.00000000 </v>
    <v>       0.00000000      10.00000000       0.00000000 </v>
    <v>       0.00000000       0.00000000      10.00000000 </v>
   </varray>
   <i name="volume">   1000.00000000 </i>
   <varray name="rec_basis" >
    <v>       0.10000000       0.00000000       0.00000000 </v>
    <v>       0.00000000       0.10000000       0.00000000 </v>
    <v>       0.00000000       0.00000000       0.10000000 </v>
   </varray>
  </crystal>
  <varray name="positions" >
   <v>       0.50000000       0.50000000       0.50000000 </v>
  </varray>
 </structure>
 <calculation>
  <scstep>
   <time name="total">    0.65    0.66</time>
   <energy>
    <i name="alphaZ">      0.21119985 </i>
    <i name="ewald">   -100.09837603 </i>
    <i name="hartreedc">   -245.99124301 </i>
    <i name="XCdc">     19.30925893 </i>
    <i name="pawpsdc">    325.24484088 </i>
    <i name="pawaedc">   -325.35744230 </i>
    <i name="eentropy">     -0.02819483 </i>
    <i name="bandstr">    -20.59116049 </i>
    <i name="atom">    409.72355349 </i>
    <i name="e_fr_energy">     62.42243649 </i>
    <i name="e_wo_entrp">     62.45063132 </i>
    <i name="e_0_energy">     62.43653390 </i>
   </energy>
  </scstep>
  <scstep>
   <time name="total">    0.37    0.37</time>
   <energy>
    <i name="e_fr_energy">     45.95217578 </i>
    <i name="e_wo_entrp">     45.98179050 </i>
    <i name="e_0_energy">     45.96698314 </i>
   </energy>
  </scstep>
  <scstep>
   <time name="total">    0.37    0.37</time>
   <energy>
    <i name="e_fr_energy">     32.79722712 </i>
    <i name="e_wo_entrp">     32.82578551 </i>
    <i name="e_0_energy">     32.81150632 </i>
   </energy>
  </scstep>
  <scstep>
   <time name="total">    0.37    0.37</time>
   <energy>
    <i name="e_fr_energy">     10.87440098 </i>
    <i name="e_wo_entrp">     10.87440098 </i>
    <i name="e_0_energy">     10.87440098 </i>
   </energy>
  </scstep>
  <scstep>
   <time name="total">    0.57    0.57</time>
   <energy>
    <i name="e_fr_energy">      3.04944300 </i>
    <i name="e_wo_entrp">      3.06711746 </i>
    <i name="e_0_energy">      3.05828023 </i>
   </energy>
  </scstep>
  <scstep>
   <time name="total">    0.70    0.71</time>
   <energy>
    <i name="e_fr_energy">      3.21952151 </i>
    <i name="e_wo_entrp">      3.21969241 </i>
    <i name="e_0_energy">      3.21960696 </i>
   </energy>
  </scstep>
  <scstep>
   <time name="total">    0.67    0.67</time>
   <energy>
    <i name="e_fr_energy">      0.29778897 </i>
    <i name="e_wo_entrp">      0.29778903 </i>
    <i name="e_0_energy">      0.29778900 </i>
   </energy>
  </scstep>
  <scstep>
   <time name="total">    0.68    0.68</time>
   <energy>
    <i name="e_fr_energy">      0.10887145 </i>
    <i name="e_wo_entrp">      0.10887145 </i>
    <i name="e_0_energy">      0.10887145 </i>
   </energy>
  </scstep>
  <scstep>
   <time name="total">    0.66    0.67</time>
   <energy>
    <i name="e_fr_energy">     -0.17151745 </i>
    <i name="e_wo_entrp">     -0.17151744 </i>
    <i name="e_0_energy">     -0.17151745 </i>
   </energy>
  </scstep>
  <scstep>
   <time name="total">    0.68    0.68</time>
   <energy>
    <i name="e_fr_energy">     -0.19427741 </i>
    <i name="e_wo_entrp">     -0.19427219 </i>
    <i name="e_0_energy">     -0.19427480 </i>
   </energy>
  </scstep>
  <scstep>
   <time name="total">    0.67    0.67</time>
   <energy>
    <i name="e_fr_energy">     -0.21012301 </i>
    <i name="e_wo_entrp">     -0.20979048 </i>
    <i name="e_0_energy">     -0.20995675 </i>
   </energy>
  </scstep>
  <scstep>
   <time name="total">    0.67    0.67</time>
   <energy>
    <i name="e_fr_energy">     -0.23394415 </i>
    <i name="e_wo_entrp">     -0.23057144 </i>
    <i name="e_0_energy">     -0.23225780 </i>
   </energy>
  </scstep>
  <scstep>
   <time name="total">    0.68    0.68</time>
   <energy>
    <i name="e_fr_energy">     -0.23949212 </i>
    <i name="e_wo_entrp">     -0.22862433 </i>
    <i name="e_0_energy">     -0.23405822 </i>
   </energy>
  </scstep>
  <scstep>
   <time name="total">    0.67    0.67</time>
   <energy>
    <i name="e_fr_energy">     -0.24836449 </i>
    <i name="e_wo_entrp">     -0.22956932 </i>
    <i name="e_0_energy">     -0.23896691 </i>
   </energy>
  </scstep>
  <scstep>
   <time name="total">    0.66    0.66</time>
   <energy>
    <i name="e_fr_energy">     -0.25729004 </i>
    <i name="e_wo_entrp">     -0.23335233 </i>
    <i name="e_0_energy">     -0.24532118 </i>
   </energy>
  </scstep>
  <scstep>
   <time name="total">    0.67    0.67</time>
   <energy>
    <i name="e_fr_energy">     -0.26256997 </i>
    <i name="e_wo_entrp">     -0.23603982 </i>
    <i name="e_0_energy">     -0.24930489 </i>
   </energy>
  </scstep>
  <scstep>
   <time name="total">    0.68    0.69</time>
   <energy>
    <i name="e_fr_energy">     -0.26528156 </i>
    <i name="e_wo_entrp">     -0.23722928 </i>
    <i name="e_0_energy">     -0.25125542 </i>
   </energy>
  </scstep>
  <scstep>
   <time name="total">    0.67    0.67</time>
   <energy>
    <i name="e_fr_energy">     -0.26688167 </i>
    <i name="e_wo_entrp">     -0.23672135 </i>
    <i name="e_0_energy">     -0.25180151 </i>
   </energy>
  </scstep>
  <scstep>
   <time name="total">    0.66    0.66</time>
   <energy>
    <i name="e_fr_energy">     -0.26900466 </i>
    <i name="e_wo_entrp">     -0.23590264 </i>
    <i name="e_0_energy">     -0.25245365 </i>
   </energy>
  </scstep>
  <scstep>
   <time name="total">    0.67    0.68</time>
   <energy>
    <i name="e_fr_energy">     -0.27195241 </i>
    <i name="e_wo_entrp">     -0.23631852 </i>
    <i name="e_0_energy">     -0.25413546 </i>
   </energy>
  </scstep>
  <scstep>
   <time name="total">    0.68    0.68</time>
   <energy>
    <i name="e_fr_energy">     -0.27448914 </i>
    <i name="e_wo_entrp">     -0.23730160 </i>
    <i name="e_0_energy">     -0.25589537 </i>
   </energy>
  </scstep>
  <scstep>
   <time name="total">    0.67    0.67</time>
   <energy>
    <i name="e_fr_energy">     -0.27604448 </i>
    <i name="e_wo_entrp">     -0.23807086 </i>
    <i name="e_0_energy">     -0.25705767 </i>
   </energy>
  </scstep>
  <scstep>
   <time name="total">    0.68    0.68</time>
   <energy>
    <i name="e_fr_energy">     -0.27683113 </i>
    <i name="e_wo_entrp">     -0.23850334 </i>
    <i name="e_0_energy">     -0.25766724 </i>
   </energy>
  </scstep>
  <scstep>
   <time name="total">    0.67    0.67</time>
   <energy>
    <i name="e_fr_energy">     -0.27718568 </i>
    <i name="e_wo_entrp">     -0.23871041 </i>
    <i name="e_0_energy">     -0.25794804 </i>
   </energy>
  </scstep>
  <scstep>
   <time name="total">    0.67    0.67</time>
   <energy>
    <i name="e_fr_energy">     -0.27733334 </i>
    <i name="e_wo_entrp">     -0.23880032 </i>
    <i name="e_0_energy">     -0.25806683 </i>
   </energy>
  </scstep>
  <scstep>
   <time name="total">    0.68    0.68</time>
   <energy>
    <i name="e_fr_energy">     -0.27739117 </i>
    <i name="e_wo_entrp">     -0.23883673 </i>
    <i name="e_0_energy">     -0.25811395 </i>
   </energy>
  </scstep>
  <scstep>
   <time name="total">    0.71    0.72</time>
   <energy>
    <i name="alphaZ">      0.21119985 </i>
    <i name="ewald">   -100.09837603 </i>
    <i name="hartreedc">   -246.13914749 </i>
    <i name="XCdc">     19.37174661 </i>
    <i name="pawpsdc">    327.55830718 </i>
    <i name="pawaedc">   -327.67209304 </i>
    <i name="eentropy">     -0.03856198 </i>
    <i name="bandstr">    -83.19404877 </i>
    <i name="atom">    409.72355349 </i>
    <i name="e_fr_energy">     -0.27741264 </i>
    <i name="e_wo_entrp">     -0.23885066 </i>
    <i name="e_0_energy">     -0.25813165 </i>
   </energy>
  </scstep>
  <structure>
   <crystal>
    <varray name="basis" >
     <v>      10.00000000       0.00000000       0.00000000 </v>
     <v>       0.00000000      10.00000000       0.00000000 </v>
     <v>       0.00000000       0.00000000      10.00000000 </v>
    </varray>
    <i name="volume">   1000.00000000 </i>
    <varray name="rec_basis" >
     <v>       0.10000000       0.00000000       0.00000000 </v>
     <v>       0.00000000       0.10000000       0.00000000 </v>
     <v>       0.00000000       0.00000000       0.10000000 </v>
    </varray>
   </crystal>
   <varray name="positions" >
    <v>       0.50000000       0.50000000       0.50000000 </v>
   </varray>
  </structure>
  <varray name="forces" >
   <v>       0.00000000       0.00000000       0.00000000 </v>
  </varray>
  <varray name="stress" >
   <v>      -0.01822810      -0.00000000       0.00000000 </v>
   <v>      -0.00000000      -0.01822810      -0.00000000 </v>
   <v>       0.00000000       0.00000000      -0.01822810 </v>
  </varray>
  <energy>
   <i name="e_fr_energy">     -0.27741264 </i>
   <i name="e_wo_entrp">     -0.25813165 </i>
   <i name="e_0_energy">     -0.03856198 </i>
  </energy>
  <time name="totalsc">   29.29   29.56</time>
  <eigenvalues>
   <array>
    <dimension dim="1">band</dimension>
    <dimension dim="2">kpoint</dimension>
    <dimension dim="3">spin</dimension>
    <field>eigene</field>
    <field>occ</field>
    <set>
     <set comment="spin 1">
      <set comment="kpoint 1">
       <r>  -19.9799    1.0000 </r>
       <r>   -7.9251    0.6737 </r>
       <r>   -7.9251    0.6632 </r>
       <r>   -7.9251    0.6631 </r>
       <r>   -0.3631    0.0000 </r>
       <r>    1.1935    0.0000 </r>
       <r>    1.2316    0.0000 </r>
       <r>    1.2317    0.0000 </r>
       <r>    1.2319    0.0000 </r>
       <r>    1.3304    0.0000 </r>
       <r>    1.3304    0.0000 </r>
       <r>    2.4149    0.0000 </r>
       <r>    2.4151    0.0000 </r>
       <r>    2.4156    0.0000 </r>
       <r>    2.7412    0.0000 </r>
       <r>    2.7438    0.0000 </r>
       <r>    2.7763    0.0000 </r>
       <r>    2.8019    0.0000 </r>
       <r>    2.8137    0.0000 </r>
       <r>    2.9309    0.0000 </r>
       <r>    2.9338    0.0000 </r>
       <r>    2.9419    0.0000 </r>
       <r>    2.9960    0.0000 </r>
       <r>    4.0443    0.0000 </r>
       <r>    4.0443    0.0000 </r>
       <r>    4.0448    0.0000 </r>
       <r>    4.2788    0.0000 </r>
       <r>    4.4144    0.0000 </r>
       <r>    4.4270    0.0000 </r>
       <r>    4.5202    0.0000 </r>
       <r>    4.5561    0.0000 </r>
       <r>    4.5972    0.0000 </r>
       <r>    4.6305    0.0000 </r>
       <r>    5.9716    0.0000 </r>
       <r>    6.0129    0.0000 </r>
       <r>    6.6323    0.0000 </r>
      </set>
     </set>
     <set comment="spin 2">
      <set comment="kpoint 1">
       <r>  -20.9399    1.0000 </r>
       <r>   -8.8080    1.0000 </r>
       <r>   -8.8080    1.0000 </r>
       <r>   -8.8080    1.0000 </r>
       <r>   -0.4280    0.0000 </r>
       <r>    1.1322    0.0000 </r>
       <r>    1.1799    0.0000 </r>
       <r>    1.1800    0.0000 </r>
       <r>    1.1804    0.0000 </r>
       <r>    1.3076    0.0000 </r>
       <r>    1.3076    0.0000 </r>
       <r>    2.3325    0.0000 </r>
       <r>    2.3325    0.0000 </r>
       <r>    2.3327    0.0000 </r>
       <r>    2.6893    0.0000 </r>
       <r>    2.6900    0.0000 </r>
       <r>    2.6937    0.0000 </r>
       <r>    2.7841    0.0000 </r>
       <r>    2.7894    0.0000 </r>
       <r>    2.9327    0.0000 </r>
       <r>    2.9336    0.0000 </r>
       <r>    2.9372    0.0000 </r>
       <r>    2.9520    0.0000 </r>
       <r>    3.9874    0.0000 </r>
       <r>    3.9875    0.0000 </r>
       <r>    3.9875    0.0000 </r>
       <r>    4.2513    0.0000 </r>
       <r>    4.3941    0.0000 </r>
       <r>    4.4263    0.0000 </r>
       <r>    4.4266    0.0000 </r>
       <r>    4.4429    0.0000 </r>
       <r>    4.4815    0.0000 </r>
       <r>    4.4899    0.0000 </r>
       <r>    5.7871    0.0000 </r>
       <r>    5.9405    0.0000 </r>
       <r>    6.2307    0.0000 </r>
      </set>
     </set>
    </set>
   </array>
  </eigenvalues>
  <separator name="orbital magnetization" >
   <v name="MAGDIPOLOUT">      0.00000000      0.00000000      0.00000000</v>
  </separator>
  <dos>
   <i name="efermi">     -7.90982555 </i>
   <total>
    <array>
     <dimension dim="1">gridpoints</dimension>
     <dimension dim="2">spin</dimension>
     <field>energy</field>
     <field>total</field>
     <field>integrated</field>
     <set>
      <set comment="spin 1">
       <r>   -22.3185     0.0000     0.0000 </r>
       <r>   -22.2174     0.0000     0.0000 </r>
       <r>   -22.1163     0.0000     0.0000 </r>
       <r>   -22.0153     0.0000     0.0000 </r>
       <r>   -21.9142     0.0000     0.0000 </r>
       <r>   -21.8131     0.0000     0.0000 </r>
       <r>   -21.7120     0.0000     0.0000 </r>
       <r>   -21.6109     0.0000     0.0000 </r>
       <r>   -21.5098     0.0000     0.0000 </r>
       <r>   -21.4087     0.0000     0.0000 </r>
       <r>   -21.3076     0.0000     0.0000 </r>
       <r>   -21.2065     0.0000     0.0000 </r>
       <r>   -21.1054     0.0000     0.0000 </r>
       <r>   -21.0043     0.0000     0.0000 </r>
       <r>   -20.9032     0.0000     0.0000 </r>
       <r>   -20.8021     0.0000     0.0000 </r>
       <r>   -20.7010     0.0000     0.0000 </r>
       <r>   -20.5999     0.0000     0.0000 </r>
       <r>   -20.4988     0.0000     0.0000 </r>
       <r>   -20.3977     0.0000     0.0000 </r>
       <r>   -20.2966     0.0000     0.0000 </r>
       <r>   -20.1955     0.0000     0.0000 </r>
       <r>   -20.0944     0.0060     0.0006 </r>
       <r>   -19.9933     3.4806     0.3525 </r>
       <r>   -19.8922     6.3400     0.9934 </r>
       <r>   -19.7911     0.0648     1.0000 </r>
       <r>   -19.6900     0.0000     1.0000 </r>
       <r>   -19.5889     0.0000     1.0000 </r>
       <r>   -19.4878     0.0000     1.0000 </r>
       <r>   -19.3867     0.0000     1.0000 </r>
       <r>   -19.2856     0.0000     1.0000 </r>
       <r>   -19.1845     0.0000     1.0000 </r>
       <r>   -19.0834     0.0000     1.0000 </r>
       <r>   -18.9823     0.0000     1.0000 </r>
       <r>   -18.8812     0.0000     1.0000 </r>
       <r>   -18.7801     0.0000     1.0000 </r>
       <r>   -18.6790     0.0000     1.0000 </r>
       <r>   -18.5779     0.0000     1.0000 </r>
       <r>   -18.4768     0.0000     1.0000 </r>
       <r>   -18.3757     0.0000     1.0000 </r>
       <r>   -18.2746     0.0000     1.0000 </r>
       <r>   -18.1735     0.0000     1.0000 </r>
       <r>   -18.0724     0.0000     1.0000 </r>
       <r>   -17.9713     0.0000     1.0000 </r>
       <r>   -17.8702     0.0000     1.0000 </r>
       <r>   -17.7691     0.0000     1.0000 </r>
       <r>   -17.6680     0.0000     1.0000 </r>
       <r>   -17.5669     0.0000     1.0000 </r>
       <r>   -17.4658     0.0000     1.0000 </r>
       <r>   -17.3647     0.0000     1.0000 </r>
       <r>   -17.2636     0.0000     1.0000 </r>
       <r>   -17.1625     0.0000     1.0000 </r>
       <r>   -17.0614     0.0000     1.0000 </r>
       <r>   -16.9603     0.0000     1.0000 </r>
       <r>   -16.8592     0.0000     1.0000 </r>
       <r>   -16.7581     0.0000     1.0000 </r>
       <r>   -16.6570     0.0000     1.0000 </r>
       <r>   -16.5559     0.0000     1.0000 </r>
       <r>   -16.4548     0.0000     1.0000 </r>
       <r>   -16.3537     0.0000     1.0000 </r>
       <r>   -16.2526     0.0000     1.0000 </r>
       <r>   -16.1515     0.0000     1.0000 </r>
       <r>   -16.0505     0.0000     1.0000 </r>
       <r>   -15.9494     0.0000     1.0000 </r>
       <r>   -15.8483     0.0000     1.0000 </r>
       <r>   -15.7472     0.0000     1.0000 </r>
       <r>   -15.6461     0.0000     1.0000 </r>
       <r>   -15.5450     0.0000     1.0000 </r>
       <r>   -15.4439     0.0000     1.0000 </r>
       <r>   -15.3428     0.0000     1.0000 </r>
       <r>   -15.2417     0.0000     1.0000 </r>
       <r>   -15.1406     0.0000     1.0000 </r>
       <r>   -15.0395     0.0000     1.0000 </r>
       <r>   -14.9384     0.0000     1.0000 </r>
       <r>   -14.8373     0.0000     1.0000 </r>
       <r>   -14.7362     0.0000     1.0000 </r>
       <r>   -14.6351     0.0000     1.0000 </r>
       <r>   -14.5340     0.0000     1.0000 </r>
       <r>   -14.4329     0.0000     1.0000 </r>
       <r>   -14.3318     0.0000     1.0000 </r>
       <r>   -14.2307     0.0000     1.0000 </r>
       <r>   -14.1296     0.0000     1.0000 </r>
       <r>   -14.0285     0.0000     1.0000 </r>
       <r>   -13.9274     0.0000     1.0000 </r>
       <r>   -13.8263     0.0000     1.0000 </r>
       <r>   -13.7252     0.0000     1.0000 </r>
       <r>   -13.6241     0.0000     1.0000 </r>
       <r>   -13.5230     0.0000     1.0000 </r>
       <r>   -13.4219     0.0000     1.0000 </r>
       <r>   -13.3208     0.0000     1.0000 </r>
       <r>   -13.2197     0.0000     1.0000 </r>
       <r>   -13.1186     0.0000     1.0000 </r>
       <r>   -13.0175     0.0000     1.0000 </r>
       <r>   -12.9164     0.0000     1.0000 </r>
       <r>   -12.8153     0.0000     1.0000 </r>
       <r>   -12.7142     0.0000     1.0000 </r>
       <r>   -12.6131     0.0000     1.0000 </r>
       <r>   -12.5120     0.0000     1.0000 </r>
       <r>   -12.4109     0.0000     1.0000 </r>
       <r>   -12.3098     0.0000     1.0000 </r>
       <r>   -12.2087     0.0000     1.0000 </r>
       <r>   -12.1076     0.0000     1.0000 </r>
       <r>   -12.0065     0.0000     1.0000 </r>
       <r>   -11.9054     0.0000     1.0000 </r>
       <r>   -11.8043     0.0000     1.0000 </r>
       <r>   -11.7032     0.0000     1.0000 </r>
       <r>   -11.6021     0.0000     1.0000 </r>
       <r>   -11.5010     0.0000     1.0000 </r>
       <r>   -11.3999     0.0000     1.0000 </r>
       <r>   -11.2988     0.0000     1.0000 </r>
       <r>   -11.1977     0.0000     1.0000 </r>
       <r>   -11.0966     0.0000     1.0000 </r>
       <r>   -10.9955     0.0000     1.0000 </r>
       <r>   -10.8944     0.0000     1.0000 </r>
       <r>   -10.7933     0.0000     1.0000 </r>
       <r>   -10.6922     0.0000     1.0000 </r>
       <r>   -10.5911     0.0000     1.0000 </r>
       <r>   -10.4900     0.0000     1.0000 </r>
       <r>   -10.3889     0.0000     1.0000 </r>
       <r>   -10.2878     0.0000     1.0000 </r>
       <r>   -10.1867     0.0000     1.0000 </r>
       <r>   -10.0856     0.0000     1.0000 </r>
       <r>    -9.9846     0.0000     1.0000 </r>
       <r>    -9.8835     0.0000     1.0000 </r>
       <r>    -9.7824     0.0000     1.0000 </r>
       <r>    -9.6813     0.0000     1.0000 </r>
       <r>    -9.5802     0.0000     1.0000 </r>
       <r>    -9.4791     0.0000     1.0000 </r>
       <r>    -9.3780     0.0000     1.0000 </r>
       <r>    -9.2769     0.0000     1.0000 </r>
       <r>    -9.1758     0.0000     1.0000 </r>
       <r>    -9.0747     0.0000     1.0000 </r>
       <r>    -8.9736     0.0000     1.0000 </r>
       <r>    -8.8725     0.0000     1.0000 </r>
       <r>    -8.7714     0.0000     1.0000 </r>
       <r>    -8.6703     0.0000     1.0000 </r>
       <r>    -8.5692     0.0000     1.0000 </r>
       <r>    -8.4681     0.0000     1.0000 </r>
       <r>    -8.3670     0.0000     1.0000 </r>
       <r>    -8.2659     0.0000     1.0000 </r>
       <r>    -8.1648     0.0000     1.0000 </r>
       <r>    -8.0637     0.0013     1.0001 </r>
       <r>    -7.9626     4.2785     1.4327 </r>
       <r>    -7.8615    24.3233     3.8917 </r>
       <r>    -7.7604     1.0709     4.0000 </r>
       <r>    -7.6593     0.0000     4.0000 </r>
       <r>    -7.5582     0.0000     4.0000 </r>
       <r>    -7.4571     0.0000     4.0000 </r>
       <r>    -7.3560     0.0000     4.0000 </r>
       <r>    -7.2549     0.0000     4.0000 </r>
       <r>    -7.1538     0.0000     4.0000 </r>
       <r>    -7.0527     0.0000     4.0000 </r>
       <r>    -6.9516     0.0000     4.0000 </r>
       <r>    -6.8505     0.0000     4.0000 </r>
       <r>    -6.7494     0.0000     4.0000 </r>
       <r>    -6.6483     0.0000     4.0000 </r>
       <r>    -6.5472     0.0000     4.0000 </r>
       <r>    -6.4461     0.0000     4.0000 </r>
       <r>    -6.3450     0.0000     4.0000 </r>
       <r>    -6.2439     0.0000     4.0000 </r>
       <r>    -6.1428     0.0000     4.0000 </r>
       <r>    -6.0417     0.0000     4.0000 </r>
       <r>    -5.9406     0.0000     4.0000 </r>
       <r>    -5.8395     0.0000     4.0000 </r>
       <r>    -5.7384     0.0000     4.0000 </r>
       <r>    -5.6373     0.0000     4.0000 </r>
       <r>    -5.5362     0.0000     4.0000 </r>
       <r>    -5.4351     0.0000     4.0000 </r>
       <r>    -5.3340     0.0000     4.0000 </r>
       <r>    -5.2329     0.0000     4.0000 </r>
       <r>    -5.1318     0.0000     4.0000 </r>
       <r>    -5.0307     0.0000     4.0000 </r>
       <r>    -4.9296     0.0000     4.0000 </r>
       <r>    -4.8285     0.0000     4.0000 </r>
       <r>    -4.7274     0.0000     4.0000 </r>
       <r>    -4.6263     0.0000     4.0000 </r>
       <r>    -4.5252     0.0000     4.0000 </r>
       <r>    -4.4241     0.0000     4.0000 </r>
       <r>    -4.3230     0.0000     4.0000 </r>
       <r>    -4.2219     0.0000     4.0000 </r>
       <r>    -4.1208     0.0000     4.0000 </r>
       <r>    -4.0198     0.0000     4.0000 </r>
       <r>    -3.9187     0.0000     4.0000 </r>
       <r>    -3.8176     0.0000     4.0000 </r>
       <r>    -3.7165     0.0000     4.0000 </r>
       <r>    -3.6154     0.0000     4.0000 </r>
       <r>    -3.5143     0.0000     4.0000 </r>
       <r>    -3.4132     0.0000     4.0000 </r>
       <r>    -3.3121     0.0000     4.0000 </r>
       <r>    -3.2110     0.0000     4.0000 </r>
       <r>    -3.1099     0.0000     4.0000 </r>
       <r>    -3.0088     0.0000     4.0000 </r>
       <r>    -2.9077     0.0000     4.0000 </r>
       <r>    -2.8066     0.0000     4.0000 </r>
       <r>    -2.7055     0.0000     4.0000 </r>
       <r>    -2.6044     0.0000     4.0000 </r>
       <r>    -2.5033     0.0000     4.0000 </r>
       <r>    -2.4022     0.0000     4.0000 </r>
       <r>    -2.3011     0.0000     4.0000 </r>
       <r>    -2.2000     0.0000     4.0000 </r>
       <r>    -2.0989     0.0000     4.0000 </r>
       <r>    -1.9978     0.0000     4.0000 </r>
       <r>    -1.8967     0.0000     4.0000 </r>
       <r>    -1.7956     0.0000     4.0000 </r>
       <r>    -1.6945     0.0000     4.0000 </r>
       <r>    -1.5934     0.0000     4.0000 </r>
       <r>    -1.4923     0.0000     4.0000 </r>
       <r>    -1.3912     0.0000     4.0000 </r>
       <r>    -1.2901     0.0000     4.0000 </r>
       <r>    -1.1890     0.0000     4.0000 </r>
       <r>    -1.0879     0.0000     4.0000 </r>
       <r>    -0.9868     0.0000     4.0000 </r>
       <r>    -0.8857     0.0000     4.0000 </r>
       <r>    -0.7846     0.0000     4.0000 </r>
       <r>    -0.6835     0.0000     4.0000 </r>
       <r>    -0.5824     0.0000     4.0000 </r>
       <r>    -0.4813     0.0041     4.0004 </r>
       <r>    -0.3802     3.1068     4.3145 </r>
       <r>    -0.2791     6.6940     4.9913 </r>
       <r>    -0.1780     0.0865     5.0000 </r>
       <r>    -0.0769     0.0000     5.0000 </r>
       <r>     0.0242     0.0000     5.0000 </r>
       <r>     0.1253     0.0000     5.0000 </r>
       <r>     0.2264     0.0000     5.0000 </r>
       <r>     0.3275     0.0000     5.0000 </r>
       <r>     0.4286     0.0000     5.0000 </r>
       <r>     0.5297     0.0000     5.0000 </r>
       <r>     0.6308     0.0000     5.0000 </r>
       <r>     0.7319     0.0000     5.0000 </r>
       <r>     0.8330     0.0000     5.0000 </r>
       <r>     0.9341     0.0000     5.0000 </r>
       <r>     1.0352     0.0000     5.0000 </r>
       <r>     1.1363     0.6245     5.0631 </r>
       <r>     1.2374    25.0036     7.5910 </r>
       <r>     1.3385    25.5768    10.1767 </r>
       <r>     1.4396     8.1233    10.9980 </r>
       <r>     1.5407     0.0199    11.0000 </r>
       <r>     1.6418     0.0000    11.0000 </r>
       <r>     1.7429     0.0000    11.0000 </r>
       <r>     1.8440     0.0000    11.0000 </r>
       <r>     1.9451     0.0000    11.0000 </r>
       <r>     2.0461     0.0000    11.0000 </r>
       <r>     2.1472     0.0000    11.0000 </r>
       <r>     2.2483     0.0000    11.0000 </r>
       <r>     2.3494     0.9326    11.0943 </r>
       <r>     2.4505    24.0278    13.5235 </r>
       <r>     2.5516     4.7120    13.9998 </r>
       <r>     2.6527     0.1146    14.0114 </r>
       <r>     2.7538    16.1686    15.6460 </r>
       <r>     2.8549    31.5201    18.8327 </r>
       <r>     2.9560    24.2182    21.2811 </r>
       <r>     3.0571    16.5794    22.9572 </r>
       <r>     3.1582     0.4230    23.0000 </r>
       <r>     3.2593     0.0000    23.0000 </r>
       <r>     3.3604     0.0000    23.0000 </r>
       <r>     3.4615     0.0000    23.0000 </r>
       <r>     3.5626     0.0000    23.0000 </r>
       <r>     3.6637     0.0000    23.0000 </r>
       <r>     3.7648     0.0000    23.0000 </r>
       <r>     3.8659     0.0000    23.0000 </r>
       <r>     3.9670     0.4227    23.0427 </r>
       <r>     4.0681    21.7810    25.2448 </r>
       <r>     4.1692     7.4737    26.0003 </r>
       <r>     4.2703     3.9997    26.4047 </r>
       <r>     4.3714     7.5264    27.1656 </r>
       <r>     4.4725    17.6355    28.9485 </r>
       <r>     4.5736    19.5961    30.9297 </r>
       <r>     4.6747    19.2883    32.8797 </r>
       <r>     4.7758     1.1899    33.0000 </r>
       <r>     4.8769     0.0002    33.0000 </r>
       <r>     4.9780     0.0000    33.0000 </r>
       <r>     5.0791     0.0000    33.0000 </r>
       <r>     5.1802     0.0000    33.0000 </r>
       <r>     5.2813     0.0000    33.0000 </r>
       <r>     5.3824     0.0000    33.0000 </r>
       <r>     5.4835     0.0000    33.0000 </r>
       <r>     5.5846     0.0000    33.0000 </r>
       <r>     5.6857     0.0000    33.0000 </r>
       <r>     5.7868     0.0000    33.0000 </r>
       <r>     5.8879     0.0903    33.0091 </r>
       <r>     5.9890     9.1808    33.9373 </r>
       <r>     6.0901    10.3636    34.9850 </r>
       <r>     6.1912     0.1480    35.0000 </r>
       <r>     6.2923     0.0000    35.0000 </r>
       <r>     6.3934     0.0000    35.0000 </r>
       <r>     6.4945     0.0005    35.0000 </r>
       <r>     6.5956     1.4754    35.1492 </r>
       <r>     6.6967     8.0751    35.9656 </r>
       <r>     6.7978     0.3403    36.0000 </r>
       <r>     6.8989     0.0000    36.0000 </r>
       <r>     7.0000     0.0000    36.0000 </r>
       <r>     7.1011     0.0000    36.0000 </r>
       <r>     7.2022     0.0000    36.0000 </r>
       <r>     7.3033     0.0000    36.0000 </r>
       <r>     7.4044     0.0000    36.0000 </r>
       <r>     7.5055     0.0000    36.0000 </r>
       <r>     7.6066     0.0000    36.0000 </r>
       <r>     7.7077     0.0000    36.0000 </r>
       <r>     7.8088     0.0000    36.0000 </r>
       <r>     7.9099     0.0000    36.0000 </r>
       <r>     8.0110     0.0000    36.0000 </r>
      </set>
      <set comment="spin 2">
       <r>   -22.3185     0.0000     0.0000 </r>
       <r>   -22.2174     0.0000     0.0000 </r>
       <r>   -22.1163     0.0000     0.0000 </r>
       <r>   -22.0153     0.0000     0.0000 </r>
       <r>   -21.9142     0.0000     0.0000 </r>
       <r>   -21.8131     0.0000     0.0000 </r>
       <r>   -21.7120     0.0000     0.0000 </r>
       <r>   -21.6109     0.0000     0.0000 </r>
       <r>   -21.5098     0.0000     0.0000 </r>
       <r>   -21.4087     0.0000     0.0000 </r>
       <r>   -21.3076     0.0000     0.0000 </r>
       <r>   -21.2065     0.0000     0.0000 </r>
       <r>   -21.1054     0.0000     0.0000 </r>
       <r>   -21.0043     0.3403     0.0344 </r>
       <r>   -20.9032     8.0751     0.8508 </r>
       <r>   -20.8021     1.4754     1.0000 </r>
       <r>   -20.7010     0.0005     1.0000 </r>
       <r>   -20.5999     0.0000     1.0000 </r>
       <r>   -20.4988     0.0000     1.0000 </r>
       <r>   -20.3977     0.0000     1.0000 </r>
       <r>   -20.2966     0.0000     1.0000 </r>
       <r>   -20.1955     0.0000     1.0000 </r>
       <r>   -20.0944     0.0000     1.0000 </r>
       <r>   -19.9933     0.0000     1.0000 </r>
       <r>   -19.8922     0.0000     1.0000 </r>
       <r>   -19.7911     0.0000     1.0000 </r>
       <r>   -19.6900     0.0000     1.0000 </r>
       <r>   -19.5889     0.0000     1.0000 </r>
       <r>   -19.4878     0.0000     1.0000 </r>
       <r>   -19.3867     0.0000     1.0000 </r>
       <r>   -19.2856     0.0000     1.0000 </r>
       <r>   -19.1845     0.0000     1.0000 </r>
       <r>   -19.0834     0.0000     1.0000 </r>
       <r>   -18.9823     0.0000     1.0000 </r>
       <r>   -18.8812     0.0000     1.0000 </r>
       <r>   -18.7801     0.0000     1.0000 </r>
       <r>   -18.6790     0.0000     1.0000 </r>
       <r>   -18.5779     0.0000     1.0000 </r>
       <r>   -18.4768     0.0000     1.0000 </r>
       <r>   -18.3757     0.0000     1.0000 </r>
       <r>   -18.2746     0.0000     1.0000 </r>
       <r>   -18.1735     0.0000     1.0000 </r>
       <r>   -18.0724     0.0000     1.0000 </r>
       <r>   -17.9713     0.0000     1.0000 </r>
       <r>   -17.8702     0.0000     1.0000 </r>
       <r>   -17.7691     0.0000     1.0000 </r>
       <r>   -17.6680     0.0000     1.0000 </r>
       <r>   -17.5669     0.0000     1.0000 </r>
       <r>   -17.4658     0.0000     1.0000 </r>
       <r>   -17.3647     0.0000     1.0000 </r>
       <r>   -17.2636     0.0000     1.0000 </r>
       <r>   -17.1625     0.0000     1.0000 </r>
       <r>   -17.0614     0.0000     1.0000 </r>
       <r>   -16.9603     0.0000     1.0000 </r>
       <r>   -16.8592     0.0000     1.0000 </r>
       <r>   -16.7581     0.0000     1.0000 </r>
       <r>   -16.6570     0.0000     1.0000 </r>
       <r>   -16.5559     0.0000     1.0000 </r>
       <r>   -16.4548     0.0000     1.0000 </r>
       <r>   -16.3537     0.0000     1.0000 </r>
       <r>   -16.2526     0.0000     1.0000 </r>
       <r>   -16.1515     0.0000     1.0000 </r>
       <r>   -16.0505     0.0000     1.0000 </r>
       <r>   -15.9494     0.0000     1.0000 </r>
       <r>   -15.8483     0.0000     1.0000 </r>
       <r>   -15.7472     0.0000     1.0000 </r>
       <r>   -15.6461     0.0000     1.0000 </r>
       <r>   -15.5450     0.0000     1.0000 </r>
       <r>   -15.4439     0.0000     1.0000 </r>
       <r>   -15.3428     0.0000     1.0000 </r>
       <r>   -15.2417     0.0000     1.0000 </r>
       <r>   -15.1406     0.0000     1.0000 </r>
       <r>   -15.0395     0.0000     1.0000 </r>
       <r>   -14.9384     0.0000     1.0000 </r>
       <r>   -14.8373     0.0000     1.0000 </r>
       <r>   -14.7362     0.0000     1.0000 </r>
       <r>   -14.6351     0.0000     1.0000 </r>
       <r>   -14.5340     0.0000     1.0000 </r>
       <r>   -14.4329     0.0000     1.0000 </r>
       <r>   -14.3318     0.0000     1.0000 </r>
       <r>   -14.2307     0.0000     1.0000 </r>
       <r>   -14.1296     0.0000     1.0000 </r>
       <r>   -14.0285     0.0000     1.0000 </r>
       <r>   -13.9274     0.0000     1.0000 </r>
       <r>   -13.8263     0.0000     1.0000 </r>
       <r>   -13.7252     0.0000     1.0000 </r>
       <r>   -13.6241     0.0000     1.0000 </r>
       <r>   -13.5230     0.0000     1.0000 </r>
       <r>   -13.4219     0.0000     1.0000 </r>
       <r>   -13.3208     0.0000     1.0000 </r>
       <r>   -13.2197     0.0000     1.0000 </r>
       <r>   -13.1186     0.0000     1.0000 </r>
       <r>   -13.0175     0.0000     1.0000 </r>
       <r>   -12.9164     0.0000     1.0000 </r>
       <r>   -12.8153     0.0000     1.0000 </r>
       <r>   -12.7142     0.0000     1.0000 </r>
       <r>   -12.6131     0.0000     1.0000 </r>
       <r>   -12.5120     0.0000     1.0000 </r>
       <r>   -12.4109     0.0000     1.0000 </r>
       <r>   -12.3098     0.0000     1.0000 </r>
       <r>   -12.2087     0.0000     1.0000 </r>
       <r>   -12.1076     0.0000     1.0000 </r>
       <r>   -12.0065     0.0000     1.0000 </r>
       <r>   -11.9054     0.0000     1.0000 </r>
       <r>   -11.8043     0.0000     1.0000 </r>
       <r>   -11.7032     0.0000     1.0000 </r>
       <r>   -11.6021     0.0000     1.0000 </r>
       <r>   -11.5010     0.0000     1.0000 </r>
       <r>   -11.3999     0.0000     1.0000 </r>
       <r>   -11.2988     0.0000     1.0000 </r>
       <r>   -11.1977     0.0000     1.0000 </r>
       <r>   -11.0966     0.0000     1.0000 </r>
       <r>   -10.9955     0.0000     1.0000 </r>
       <r>   -10.8944     0.0000     1.0000 </r>
       <r>   -10.7933     0.0000     1.0000 </r>
       <r>   -10.6922     0.0000     1.0000 </r>
       <r>   -10.5911     0.0000     1.0000 </r>
       <r>   -10.4900     0.0000     1.0000 </r>
       <r>   -10.3889     0.0000     1.0000 </r>
       <r>   -10.2878     0.0000     1.0000 </r>
       <r>   -10.1867     0.0000     1.0000 </r>
       <r>   -10.0856     0.0000     1.0000 </r>
       <r>    -9.9846     0.0000     1.0000 </r>
       <r>    -9.8835     0.0000     1.0000 </r>
       <r>    -9.7824     0.0000     1.0000 </r>
       <r>    -9.6813     0.0000     1.0000 </r>
       <r>    -9.5802     0.0000     1.0000 </r>
       <r>    -9.4791     0.0000     1.0000 </r>
       <r>    -9.3780     0.0000     1.0000 </r>
       <r>    -9.2769     0.0000     1.0000 </r>
       <r>    -9.1758     0.0000     1.0000 </r>
       <r>    -9.0747     0.0000     1.0000 </r>
       <r>    -8.9736     0.0000     1.0000 </r>
       <r>    -8.8725     1.0146     1.1026 </r>
       <r>    -8.7714    24.2125     3.5504 </r>
       <r>    -8.6703     4.4454     3.9999 </r>
       <r>    -8.5692     0.0014     4.0000 </r>
       <r>    -8.4681     0.0000     4.0000 </r>
       <r>    -8.3670     0.0000     4.0000 </r>
       <r>    -8.2659     0.0000     4.0000 </r>
       <r>    -8.1648     0.0000     4.0000 </r>
       <r>    -8.0637     0.0000     4.0000 </r>
       <r>    -7.9626     0.0000     4.0000 </r>
       <r>    -7.8615     0.0000     4.0000 </r>
       <r>    -7.7604     0.0000     4.0000 </r>
       <r>    -7.6593     0.0000     4.0000 </r>
       <r>    -7.5582     0.0000     4.0000 </r>
       <r>    -7.4571     0.0000     4.0000 </r>
       <r>    -7.3560     0.0000     4.0000 </r>
       <r>    -7.2549     0.0000     4.0000 </r>
       <r>    -7.1538     0.0000     4.0000 </r>
       <r>    -7.0527     0.0000     4.0000 </r>
       <r>    -6.9516     0.0000     4.0000 </r>
       <r>    -6.8505     0.0000     4.0000 </r>
       <r>    -6.7494     0.0000     4.0000 </r>
       <r>    -6.6483     0.0000     4.0000 </r>
       <r>    -6.5472     0.0000     4.0000 </r>
       <r>    -6.4461     0.0000     4.0000 </r>
       <r>    -6.3450     0.0000     4.0000 </r>
       <r>    -6.2439     0.0000     4.0000 </r>
       <r>    -6.1428     0.0000     4.0000 </r>
       <r>    -6.0417     0.0000     4.0000 </r>
       <r>    -5.9406     0.0000     4.0000 </r>
       <r>    -5.8395     0.0000     4.0000 </r>
       <r>    -5.7384     0.0000     4.0000 </r>
       <r>    -5.6373     0.0000     4.0000 </r>
       <r>    -5.5362     0.0000     4.0000 </r>
       <r>    -5.4351     0.0000     4.0000 </r>
       <r>    -5.3340     0.0000     4.0000 </r>
       <r>    -5.2329     0.0000     4.0000 </r>
       <r>    -5.1318     0.0000     4.0000 </r>
       <r>    -5.0307     0.0000     4.0000 </r>
       <r>    -4.9296     0.0000     4.0000 </r>
       <r>    -4.8285     0.0000     4.0000 </r>
       <r>    -4.7274     0.0000     4.0000 </r>
       <r>    -4.6263     0.0000     4.0000 </r>
       <r>    -4.5252     0.0000     4.0000 </r>
       <r>    -4.4241     0.0000     4.0000 </r>
       <r>    -4.3230     0.0000     4.0000 </r>
       <r>    -4.2219     0.0000     4.0000 </r>
       <r>    -4.1208     0.0000     4.0000 </r>
       <r>    -4.0198     0.0000     4.0000 </r>
       <r>    -3.9187     0.0000     4.0000 </r>
       <r>    -3.8176     0.0000     4.0000 </r>
       <r>    -3.7165     0.0000     4.0000 </r>
       <r>    -3.6154     0.0000     4.0000 </r>
       <r>    -3.5143     0.0000     4.0000 </r>
       <r>    -3.4132     0.0000     4.0000 </r>
       <r>    -3.3121     0.0000     4.0000 </r>
       <r>    -3.2110     0.0000     4.0000 </r>
       <r>    -3.1099     0.0000     4.0000 </r>
       <r>    -3.0088     0.0000     4.0000 </r>
       <r>    -2.9077     0.0000     4.0000 </r>
       <r>    -2.8066     0.0000     4.0000 </r>
       <r>    -2.7055     0.0000     4.0000 </r>
       <r>    -2.6044     0.0000     4.0000 </r>
       <r>    -2.5033     0.0000     4.0000 </r>
       <r>    -2.4022     0.0000     4.0000 </r>
       <r>    -2.3011     0.0000     4.0000 </r>
       <r>    -2.2000     0.0000     4.0000 </r>
       <r>    -2.0989     0.0000     4.0000 </r>
       <r>    -1.9978     0.0000     4.0000 </r>
       <r>    -1.8967     0.0000     4.0000 </r>
       <r>    -1.7956     0.0000     4.0000 </r>
       <r>    -1.6945     0.0000     4.0000 </r>
       <r>    -1.5934     0.0000     4.0000 </r>
       <r>    -1.4923     0.0000     4.0000 </r>
       <r>    -1.3912     0.0000     4.0000 </r>
       <r>    -1.2901     0.0000     4.0000 </r>
       <r>    -1.1890     0.0000     4.0000 </r>
       <r>    -1.0879     0.0000     4.0000 </r>
       <r>    -0.9868     0.0000     4.0000 </r>
       <r>    -0.8857     0.0000     4.0000 </r>
       <r>    -0.7846     0.0000     4.0000 </r>
       <r>    -0.6835     0.0000     4.0000 </r>
       <r>    -0.5824     0.0001     4.0000 </r>
       <r>    -0.4813     0.6513     4.0659 </r>
       <r>    -0.3802     8.3678     4.9118 </r>
       <r>    -0.2791     0.8720     5.0000 </r>
       <r>    -0.1780     0.0001     5.0000 </r>
       <r>    -0.0769     0.0000     5.0000 </r>
       <r>     0.0242     0.0000     5.0000 </r>
       <r>     0.1253     0.0000     5.0000 </r>
       <r>     0.2264     0.0000     5.0000 </r>
       <r>     0.3275     0.0000     5.0000 </r>
       <r>     0.4286     0.0000     5.0000 </r>
       <r>     0.5297     0.0000     5.0000 </r>
       <r>     0.6308     0.0000     5.0000 </r>
       <r>     0.7319     0.0000     5.0000 </r>
       <r>     0.8330     0.0000     5.0000 </r>
       <r>     0.9341     0.0000     5.0000 </r>
       <r>     1.0352     0.0306     5.0031 </r>
       <r>     1.1363     8.5612     5.8686 </r>
       <r>     1.2374    29.8633     8.8877 </r>
       <r>     1.3385    17.1082    10.6173 </r>
       <r>     1.4396     3.7831    10.9998 </r>
       <r>     1.5407     0.0019    11.0000 </r>
       <r>     1.6418     0.0000    11.0000 </r>
       <r>     1.7429     0.0000    11.0000 </r>
       <r>     1.8440     0.0000    11.0000 </r>
       <r>     1.9451     0.0000    11.0000 </r>
       <r>     2.0461     0.0000    11.0000 </r>
       <r>     2.1472     0.0000    11.0000 </r>
       <r>     2.2483     0.2553    11.0258 </r>
       <r>     2.3494    20.0236    13.0502 </r>
       <r>     2.4505     9.3826    13.9987 </r>
       <r>     2.5516     0.0138    14.0001 </r>
       <r>     2.6527     4.1515    14.4198 </r>
       <r>     2.7538    27.8888    17.2393 </r>
       <r>     2.8549    17.2720    18.9855 </r>
       <r>     2.9560    27.1612    21.7315 </r>
       <r>     3.0571    12.5252    22.9977 </r>
       <r>     3.1582     0.0224    23.0000 </r>
       <r>     3.2593     0.0000    23.0000 </r>
       <r>     3.3604     0.0000    23.0000 </r>
       <r>     3.4615     0.0000    23.0000 </r>
       <r>     3.5626     0.0000    23.0000 </r>
       <r>     3.6637     0.0000    23.0000 </r>
       <r>     3.7648     0.0000    23.0000 </r>
       <r>     3.8659     0.0087    23.0009 </r>
       <r>     3.9670     8.3444    23.8445 </r>
       <r>     4.0681    20.9865    25.9662 </r>
       <r>     4.1692     0.4349    26.0102 </r>
       <r>     4.2703     6.8752    26.7052 </r>
       <r>     4.3714     6.8954    27.4023 </r>
       <r>     4.4725    38.5925    31.3040 </r>
       <r>     4.5736    16.6408    32.9863 </r>
       <r>     4.6747     0.1353    33.0000 </r>
       <r>     4.7758     0.0000    33.0000 </r>
       <r>     4.8769     0.0000    33.0000 </r>
       <r>     4.9780     0.0000    33.0000 </r>
       <r>     5.0791     0.0000    33.0000 </r>
       <r>     5.1802     0.0000    33.0000 </r>
       <r>     5.2813     0.0000    33.0000 </r>
       <r>     5.3824     0.0000    33.0000 </r>
       <r>     5.4835     0.0000    33.0000 </r>
       <r>     5.5846     0.0000    33.0000 </r>
       <r>     5.6857     0.0204    33.0021 </r>
       <r>     5.7868     4.8910    33.4965 </r>
       <r>     5.8879     5.6353    34.0663 </r>
       <r>     5.9890     8.3948    34.9150 </r>
       <r>     6.0901     0.8414    35.0000 </r>
       <r>     6.1912     1.3029    35.1317 </r>
       <r>     6.2923     8.1845    35.9592 </r>
       <r>     6.3934     0.4037    36.0000 </r>
       <r>     6.4945     0.0000    36.0000 </r>
       <r>     6.5956     0.0000    36.0000 </r>
       <r>     6.6967     0.0000    36.0000 </r>
       <r>     6.7978     0.0000    36.0000 </r>
       <r>     6.8989     0.0000    36.0000 </r>
       <r>     7.0000     0.0000    36.0000 </r>
       <r>     7.1011     0.0000    36.0000 </r>
       <r>     7.2022     0.0000    36.0000 </r>
       <r>     7.3033     0.0000    36.0000 </r>
       <r>     7.4044     0.0000    36.0000 </r>
       <r>     7.5055     0.0000    36.0000 </r>
       <r>     7.6066     0.0000    36.0000 </r>
       <r>     7.7077     0.0000    36.0000 </r>
       <r>     7.8088     0.0000    36.0000 </r>
       <r>     7.9099     0.0000    36.0000 </r>
       <r>     8.0110     0.0000    36.0000 </r>
      </set>
     </set>
    </array>
   </total>
   <partial>
    <array>
     <dimension dim="1">gridpoints</dimension>
     <dimension dim="2">spin</dimension>
     <dimension dim="3">ion</dimension>
     <field>energy</field>
     <field>    s</field>
     <field>   py</field>
     <field>   pz</field>
     <field>   px</field>
     <field>  dxy</field>
     <field>  dyz</field>
     <field>  dz2</field>
     <field>  dxz</field>
     <field>x2-y2</field>
     <set>
      <set comment="ion 1">
       <set comment="spin 1">
        <r>   -22.3185     0.0000     0.0000     0.0000     0.0000     0.0000     0.0000     0.0000     0.0000     0.0000 </r>
        <r>   -22.2174     0.0000     0.0000     0.0000     0.0000     0.0000     0.0000     0.0000     0.0000     0.0000 </r>
        <r>   -22.1163     0.0000     0.0000     0.0000     0.0000     0.0000     0.0000     0.0000     0.0000     0.0000 </r>
        <r>   -22.0153     0.0000     0.0000     0.0000     0.0000     0.0000     0.0000     0.0000     0.0000     0.0000 </r>
        <r>   -21.9142     0.0000     0.0000     0.0000     0.0000     0.0000     0.0000     0.0000     0.0000     0.0000 </r>
        <r>   -21.8131     0.0000     0.0000     0.0000     0.0000     0.0000     0.0000     0.0000     0.0000     0.0000 </r>
        <r>   -21.7120     0.0000     0.0000     0.0000     0.0000     0.0000     0.0000     0.0000     0.0000     0.0000 </r>
        <r>   -21.6109     0.0000     0.0000     0.0000     0.0000     0.0000     0.0000     0.0000     0.0000     0.0000 </r>
        <r>   -21.5098     0.0000     0.0000     0.0000     0.0000     0.0000     0.0000     0.0000     0.0000     0.0000 </r>
        <r>   -21.4087     0.0000     0.0000     0.0000     0.0000     0.0000     0.0000     0.0000     0.0000     0.0000 </r>
        <r>   -21.3076     0.0000     0.0000     0.0000     0.0000     0.0000     0.0000     0.0000     0.0000     0.0000 </r>
        <r>   -21.2065     0.0000     0.0000     0.0000     0.0000     0.0000     0.0000     0.0000     0.0000     0.0000 </r>
        <r>   -21.1054     0.0000     0.0000     0.0000     0.0000     0.0000     0.0000     0.0000     0.0000     0.0000 </r>
        <r>   -21.0043     0.0000     0.0000     0.0000     0.0000     0.0000     0.0000     0.0000     0.0000     0.0000 </r>
        <r>   -20.9032     0.0000     0.0000     0.0000     0.0000     0.0000     0.0000     0.0000     0.0000     0.0000 </r>
        <r>   -20.8021     0.0000     0.0000     0.0000     0.0000     0.0000     0.0000     0.0000     0.0000     0.0000 </r>
        <r>   -20.7010     0.0000     0.0000     0.0000     0.0000     0.0000     0.0000     0.0000     0.0000     0.0000 </r>
        <r>   -20.5999     0.0000     0.0000     0.0000     0.0000     0.0000     0.0000     0.0000     0.0000     0.0000 </r>
        <r>   -20.4988     0.0000     0.0000     0.0000     0.0000     0.0000     0.0000     0.0000     0.0000     0.0000 </r>
        <r>   -20.3977     0.0000     0.0000     0.0000     0.0000     0.0000     0.0000     0.0000     0.0000     0.0000 </r>
        <r>   -20.2966     0.0000     0.0000     0.0000     0.0000     0.0000     0.0000     0.0000     0.0000     0.0000 </r>
        <r>   -20.1955     0.0000     0.0000     0.0000     0.0000     0.0000     0.0000     0.0000     0.0000     0.0000 </r>
        <r>   -20.0944     0.0048     0.0000     0.0000     0.0000     0.0000     0.0000     0.0000     0.0000     0.0000 </r>
        <r>   -19.9933     2.8022     0.0000     0.0000     0.0000     0.0000     0.0000     0.0000     0.0000     0.0000 </r>
        <r>   -19.8922     5.1042     0.0000     0.0000     0.0000     0.0000     0.0000     0.0000     0.0000     0.0000 </r>
        <r>   -19.7911     0.0522     0.0000     0.0000     0.0000     0.0000     0.0000     0.0000     0.0000     0.0000 </r>
        <r>   -19.6900     0.0000     0.0000     0.0000     0.0000     0.0000     0.0000     0.0000     0.0000     0.0000 </r>
        <r>   -19.5889     0.0000     0.0000     0.0000     0.0000     0.0000     0.0000     0.0000     0.0000     0.0000 </r>
        <r>   -19.4878     0.0000     0.0000     0.0000     0.0000     0.0000     0.0000     0.0000     0.0000     0.0000 </r>
        <r>   -19.3867     0.0000     0.0000     0.0000     0.0000     0.0000     0.0000     0.0000     0.0000     0.0000 </r>
        <r>   -19.2856     0.0000     0.0000     0.0000     0.0000     0.0000     0.0000     0.0000     0.0000     0.0000 </r>
        <r>   -19.1845     0.0000     0.0000     0.0000     0.0000     0.0000     0.0000     0.0000     0.0000     0.0000 </r>
        <r>   -19.0834     0.0000     0.0000     0.0000     0.0000     0.0000     0.0000     0.0000     0.0000     0.0000 </r>
        <r>   -18.9823     0.0000     0.0000     0.0000     0.0000     0.0000     0.0000     0.0000     0.0000     0.0000 </r>
        <r>   -18.8812     0.0000     0.0000     0.0000     0.0000     0.0000     0.0000     0.0000     0.0000     0.0000 </r>
        <r>   -18.7801     0.0000     0.0000     0.0000     0.0000     0.0000     0.0000     0.0000     0.0000     0.0000 </r>
        <r>   -18.6790     0.0000     0.0000     0.0000     0.0000     0.0000     0.0000     0.0000     0.0000     0.0000 </r>
        <r>   -18.5779     0.0000     0.0000     0.0000     0.0000     0.0000     0.0000     0.0000     0.0000     0.0000 </r>
        <r>   -18.4768     0.0000     0.0000     0.0000     0.0000     0.0000     0.0000     0.0000     0.0000     0.0000 </r>
        <r>   -18.3757     0.0000     0.0000     0.0000     0.0000     0.0000     0.0000     0.0000     0.0000     0.0000 </r>
        <r>   -18.2746     0.0000     0.0000     0.0000     0.0000     0.0000     0.0000     0.0000     0.0000     0.0000 </r>
        <r>   -18.1735     0.0000     0.0000     0.0000     0.0000     0.0000     0.0000     0.0000     0.0000     0.0000 </r>
        <r>   -18.0724     0.0000     0.0000     0.0000     0.0000     0.0000     0.0000     0.0000     0.0000     0.0000 </r>
        <r>   -17.9713     0.0000     0.0000     0.0000     0.0000     0.0000     0.0000     0.0000     0.0000     0.0000 </r>
        <r>   -17.8702     0.0000     0.0000     0.0000     0.0000     0.0000     0.0000     0.0000     0.0000     0.0000 </r>
        <r>   -17.7691     0.0000     0.0000     0.0000     0.0000     0.0000     0.0000     0.0000     0.0000     0.0000 </r>
        <r>   -17.6680     0.0000     0.0000     0.0000     0.0000     0.0000     0.0000     0.0000     0.0000     0.0000 </r>
        <r>   -17.5669     0.0000     0.0000     0.0000     0.0000     0.0000     0.0000     0.0000     0.0000     0.0000 </r>
        <r>   -17.4658     0.0000     0.0000     0.0000     0.0000     0.0000     0.0000     0.0000     0.0000     0.0000 </r>
        <r>   -17.3647     0.0000     0.0000     0.0000     0.0000     0.0000     0.0000     0.0000     0.0000     0.0000 </r>
        <r>   -17.2636     0.0000     0.0000     0.0000     0.0000     0.0000     0.0000     0.0000     0.0000     0.0000 </r>
        <r>   -17.1625     0.0000     0.0000     0.0000     0.0000     0.0000     0.0000     0.0000     0.0000     0.0000 </r>
        <r>   -17.0614     0.0000     0.0000     0.0000     0.0000     0.0000     0.0000     0.0000     0.0000     0.0000 </r>
        <r>   -16.9603     0.0000     0.0000     0.0000     0.0000     0.0000     0.0000     0.0000     0.0000     0.0000 </r>
        <r>   -16.8592     0.0000     0.0000     0.0000     0.0000     0.0000     0.0000     0.0000     0.0000     0.0000 </r>
        <r>   -16.7581     0.0000     0.0000     0.0000     0.0000     0.0000     0.0000     0.0000     0.0000     0.0000 </r>
        <r>   -16.6570     0.0000     0.0000     0.0000     0.0000     0.0000     0.0000     0.0000     0.0000     0.0000 </r>
        <r>   -16.5559     0.0000     0.0000     0.0000     0.0000     0.0000     0.0000     0.0000     0.0000     0.0000 </r>
        <r>   -16.4548     0.0000     0.0000     0.0000     0.0000     0.0000     0.0000     0.0000     0.0000     0.0000 </r>
        <r>   -16.3537     0.0000     0.0000     0.0000     0.0000     0.0000     0.0000     0.0000     0.0000     0.0000 </r>
        <r>   -16.2526     0.0000     0.0000     0.0000     0.0000     0.0000     0.0000     0.0000     0.0000     0.0000 </r>
        <r>   -16.1515     0.0000     0.0000     0.0000     0.0000     0.0000     0.0000     0.0000     0.0000     0.0000 </r>
        <r>   -16.0505     0.0000     0.0000     0.0000     0.0000     0.0000     0.0000     0.0000     0.0000     0.0000 </r>
        <r>   -15.9494     0.0000     0.0000     0.0000     0.0000     0.0000     0.0000     0.0000     0.0000     0.0000 </r>
        <r>   -15.8483     0.0000     0.0000     0.0000     0.0000     0.0000     0.0000     0.0000     0.0000     0.0000 </r>
        <r>   -15.7472     0.0000     0.0000     0.0000     0.0000     0.0000     0.0000     0.0000     0.0000     0.0000 </r>
        <r>   -15.6461     0.0000     0.0000     0.0000     0.0000     0.0000     0.0000     0.0000     0.0000     0.0000 </r>
        <r>   -15.5450     0.0000     0.0000     0.0000     0.0000     0.0000     0.0000     0.0000     0.0000     0.0000 </r>
        <r>   -15.4439     0.0000     0.0000     0.0000     0.0000     0.0000     0.0000     0.0000     0.0000     0.0000 </r>
        <r>   -15.3428     0.0000     0.0000     0.0000     0.0000     0.0000     0.0000     0.0000     0.0000     0.0000 </r>
        <r>   -15.2417     0.0000     0.0000     0.0000     0.0000     0.0000     0.0000     0.0000     0.0000     0.0000 </r>
        <r>   -15.1406     0.0000     0.0000     0.0000     0.0000     0.0000     0.0000     0.0000     0.0000     0.0000 </r>
        <r>   -15.0395     0.0000     0.0000     0.0000     0.0000     0.0000     0.0000     0.0000     0.0000     0.0000 </r>
        <r>   -14.9384     0.0000     0.0000     0.0000     0.0000     0.0000     0.0000     0.0000     0.0000     0.0000 </r>
        <r>   -14.8373     0.0000     0.0000     0.0000     0.0000     0.0000     0.0000     0.0000     0.0000     0.0000 </r>
        <r>   -14.7362     0.0000     0.0000     0.0000     0.0000     0.0000     0.0000     0.0000     0.0000     0.0000 </r>
        <r>   -14.6351     0.0000     0.0000     0.0000     0.0000     0.0000     0.0000     0.0000     0.0000     0.0000 </r>
        <r>   -14.5340     0.0000     0.0000     0.0000     0.0000     0.0000     0.0000     0.0000     0.0000     0.0000 </r>
        <r>   -14.4329     0.0000     0.0000     0.0000     0.0000     0.0000     0.0000     0.0000     0.0000     0.0000 </r>
        <r>   -14.3318     0.0000     0.0000     0.0000     0.0000     0.0000     0.0000     0.0000     0.0000     0.0000 </r>
        <r>   -14.2307     0.0000     0.0000     0.0000     0.0000     0.0000     0.0000     0.0000     0.0000     0.0000 </r>
        <r>   -14.1296     0.0000     0.0000     0.0000     0.0000     0.0000     0.0000     0.0000     0.0000     0.0000 </r>
        <r>   -14.0285     0.0000     0.0000     0.0000     0.0000     0.0000     0.0000     0.0000     0.0000     0.0000 </r>
        <r>   -13.9274     0.0000     0.0000     0.0000     0.0000     0.0000     0.0000     0.0000     0.0000     0.0000 </r>
        <r>   -13.8263     0.0000     0.0000     0.0000     0.0000     0.0000     0.0000     0.0000     0.0000     0.0000 </r>
        <r>   -13.7252     0.0000     0.0000     0.0000     0.0000     0.0000     0.0000     0.0000     0.0000     0.0000 </r>
        <r>   -13.6241     0.0000     0.0000     0.0000     0.0000     0.0000     0.0000     0.0000     0.0000     0.0000 </r>
        <r>   -13.5230     0.0000     0.0000     0.0000     0.0000     0.0000     0.0000     0.0000     0.0000     0.0000 </r>
        <r>   -13.4219     0.0000     0.0000     0.0000     0.0000     0.0000     0.0000     0.0000     0.0000     0.0000 </r>
        <r>   -13.3208     0.0000     0.0000     0.0000     0.0000     0.0000     0.0000     0.0000     0.0000     0.0000 </r>
        <r>   -13.2197     0.0000     0.0000     0.0000     0.0000     0.0000     0.0000     0.0000     0.0000     0.0000 </r>
        <r>   -13.1186     0.0000     0.0000     0.0000     0.0000     0.0000     0.0000     0.0000     0.0000     0.0000 </r>
        <r>   -13.0175     0.0000     0.0000     0.0000     0.0000     0.0000     0.0000     0.0000     0.0000     0.0000 </r>
        <r>   -12.9164     0.0000     0.0000     0.0000     0.0000     0.0000     0.0000     0.0000     0.0000     0.0000 </r>
        <r>   -12.8153     0.0000     0.0000     0.0000     0.0000     0.0000     0.0000     0.0000     0.0000     0.0000 </r>
        <r>   -12.7142     0.0000     0.0000     0.0000     0.0000     0.0000     0.0000     0.0000     0.0000     0.0000 </r>
        <r>   -12.6131     0.0000     0.0000     0.0000     0.0000     0.0000     0.0000     0.0000     0.0000     0.0000 </r>
        <r>   -12.5120     0.0000     0.0000     0.0000     0.0000     0.0000     0.0000     0.0000     0.0000     0.0000 </r>
        <r>   -12.4109     0.0000     0.0000     0.0000     0.0000     0.0000     0.0000     0.0000     0.0000     0.0000 </r>
        <r>   -12.3098     0.0000     0.0000     0.0000     0.0000     0.0000     0.0000     0.0000     0.0000     0.0000 </r>
        <r>   -12.2087     0.0000     0.0000     0.0000     0.0000     0.0000     0.0000     0.0000     0.0000     0.0000 </r>
        <r>   -12.1076     0.0000     0.0000     0.0000     0.0000     0.0000     0.0000     0.0000     0.0000     0.0000 </r>
        <r>   -12.0065     0.0000     0.0000     0.0000     0.0000     0.0000     0.0000     0.0000     0.0000     0.0000 </r>
        <r>   -11.9054     0.0000     0.0000     0.0000     0.0000     0.0000     0.0000     0.0000     0.0000     0.0000 </r>
        <r>   -11.8043     0.0000     0.0000     0.0000     0.0000     0.0000     0.0000     0.0000     0.0000     0.0000 </r>
        <r>   -11.7032     0.0000     0.0000     0.0000     0.0000     0.0000     0.0000     0.0000     0.0000     0.0000 </r>
        <r>   -11.6021     0.0000     0.0000     0.0000     0.0000     0.0000     0.0000     0.0000     0.0000     0.0000 </r>
        <r>   -11.5010     0.0000     0.0000     0.0000     0.0000     0.0000     0.0000     0.0000     0.0000     0.0000 </r>
        <r>   -11.3999     0.0000     0.0000     0.0000     0.0000     0.0000     0.0000     0.0000     0.0000     0.0000 </r>
        <r>   -11.2988     0.0000     0.0000     0.0000     0.0000     0.0000     0.0000     0.0000     0.0000     0.0000 </r>
        <r>   -11.1977     0.0000     0.0000     0.0000     0.0000     0.0000     0.0000     0.0000     0.0000     0.0000 </r>
        <r>   -11.0966     0.0000     0.0000     0.0000     0.0000     0.0000     0.0000     0.0000     0.0000     0.0000 </r>
        <r>   -10.9955     0.0000     0.0000     0.0000     0.0000     0.0000     0.0000     0.0000     0.0000     0.0000 </r>
        <r>   -10.8944     0.0000     0.0000     0.0000     0.0000     0.0000     0.0000     0.0000     0.0000     0.0000 </r>
        <r>   -10.7933     0.0000     0.0000     0.0000     0.0000     0.0000     0.0000     0.0000     0.0000     0.0000 </r>
        <r>   -10.6922     0.0000     0.0000     0.0000     0.0000     0.0000     0.0000     0.0000     0.0000     0.0000 </r>
        <r>   -10.5911     0.0000     0.0000     0.0000     0.0000     0.0000     0.0000     0.0000     0.0000     0.0000 </r>
        <r>   -10.4900     0.0000     0.0000     0.0000     0.0000     0.0000     0.0000     0.0000     0.0000     0.0000 </r>
        <r>   -10.3889     0.0000     0.0000     0.0000     0.0000     0.0000     0.0000     0.0000     0.0000     0.0000 </r>
        <r>   -10.2878     0.0000     0.0000     0.0000     0.0000     0.0000     0.0000     0.0000     0.0000     0.0000 </r>
        <r>   -10.1867     0.0000     0.0000     0.0000     0.0000     0.0000     0.0000     0.0000     0.0000     0.0000 </r>
        <r>   -10.0856     0.0000     0.0000     0.0000     0.0000     0.0000     0.0000     0.0000     0.0000     0.0000 </r>
        <r>    -9.9846     0.0000     0.0000     0.0000     0.0000     0.0000     0.0000     0.0000     0.0000     0.0000 </r>
        <r>    -9.8835     0.0000     0.0000     0.0000     0.0000     0.0000     0.0000     0.0000     0.0000     0.0000 </r>
        <r>    -9.7824     0.0000     0.0000     0.0000     0.0000     0.0000     0.0000     0.0000     0.0000     0.0000 </r>
        <r>    -9.6813     0.0000     0.0000     0.0000     0.0000     0.0000     0.0000     0.0000     0.0000     0.0000 </r>
        <r>    -9.5802     0.0000     0.0000     0.0000     0.0000     0.0000     0.0000     0.0000     0.0000     0.0000 </r>
        <r>    -9.4791     0.0000     0.0000     0.0000     0.0000     0.0000     0.0000     0.0000     0.0000     0.0000 </r>
        <r>    -9.3780     0.0000     0.0000     0.0000     0.0000     0.0000     0.0000     0.0000     0.0000     0.0000 </r>
        <r>    -9.2769     0.0000     0.0000     0.0000     0.0000     0.0000     0.0000     0.0000     0.0000     0.0000 </r>
        <r>    -9.1758     0.0000     0.0000     0.0000     0.0000     0.0000     0.0000     0.0000     0.0000     0.0000 </r>
        <r>    -9.0747     0.0000     0.0000     0.0000     0.0000     0.0000     0.0000     0.0000     0.0000     0.0000 </r>
        <r>    -8.9736     0.0000     0.0000     0.0000     0.0000     0.0000     0.0000     0.0000     0.0000     0.0000 </r>
        <r>    -8.8725     0.0000     0.0000     0.0000     0.0000     0.0000     0.0000     0.0000     0.0000     0.0000 </r>
        <r>    -8.7714     0.0000     0.0000     0.0000     0.0000     0.0000     0.0000     0.0000     0.0000     0.0000 </r>
        <r>    -8.6703     0.0000     0.0000     0.0000     0.0000     0.0000     0.0000     0.0000     0.0000     0.0000 </r>
        <r>    -8.5692     0.0000     0.0000     0.0000     0.0000     0.0000     0.0000     0.0000     0.0000     0.0000 </r>
        <r>    -8.4681     0.0000     0.0000     0.0000     0.0000     0.0000     0.0000     0.0000     0.0000     0.0000 </r>
        <r>    -8.3670     0.0000     0.0000     0.0000     0.0000     0.0000     0.0000     0.0000     0.0000     0.0000 </r>
        <r>    -8.2659     0.0000     0.0000     0.0000     0.0000     0.0000     0.0000     0.0000     0.0000     0.0000 </r>
        <r>    -8.1648     0.0000     0.0000     0.0000     0.0000     0.0000     0.0000     0.0000     0.0000     0.0000 </r>
        <r>    -8.0637     0.0000     0.0003     0.0003     0.0003     0.0000     0.0000     0.0000     0.0000     0.0000 </r>
        <r>    -7.9626     0.0000     0.9237     0.9237     0.9237     0.0000     0.0000     0.0000     0.0000     0.0000 </r>
        <r>    -7.8615     0.0000     5.2512     5.2512     5.2512     0.0000     0.0000     0.0000     0.0000     0.0000 </r>
        <r>    -7.7604     0.0000     0.2312     0.2312     0.2312     0.0000     0.0000     0.0000     0.0000     0.0000 </r>
        <r>    -7.6593     0.0000     0.0000     0.0000     0.0000     0.0000     0.0000     0.0000     0.0000     0.0000 </r>
        <r>    -7.5582     0.0000     0.0000     0.0000     0.0000     0.0000     0.0000     0.0000     0.0000     0.0000 </r>
        <r>    -7.4571     0.0000     0.0000     0.0000     0.0000     0.0000     0.0000     0.0000     0.0000     0.0000 </r>
        <r>    -7.3560     0.0000     0.0000     0.0000     0.0000     0.0000     0.0000     0.0000     0.0000     0.0000 </r>
        <r>    -7.2549     0.0000     0.0000     0.0000     0.0000     0.0000     0.0000     0.0000     0.0000     0.0000 </r>
        <r>    -7.1538     0.0000     0.0000     0.0000     0.0000     0.0000     0.0000     0.0000     0.0000     0.0000 </r>
        <r>    -7.0527     0.0000     0.0000     0.0000     0.0000     0.0000     0.0000     0.0000     0.0000     0.0000 </r>
        <r>    -6.9516     0.0000     0.0000     0.0000     0.0000     0.0000     0.0000     0.0000     0.0000     0.0000 </r>
        <r>    -6.8505     0.0000     0.0000     0.0000     0.0000     0.0000     0.0000     0.0000     0.0000     0.0000 </r>
        <r>    -6.7494     0.0000     0.0000     0.0000     0.0000     0.0000     0.0000     0.0000     0.0000     0.0000 </r>
        <r>    -6.6483     0.0000     0.0000     0.0000     0.0000     0.0000     0.0000     0.0000     0.0000     0.0000 </r>
        <r>    -6.5472     0.0000     0.0000     0.0000     0.0000     0.0000     0.0000     0.0000     0.0000     0.0000 </r>
        <r>    -6.4461     0.0000     0.0000     0.0000     0.0000     0.0000     0.0000     0.0000     0.0000     0.0000 </r>
        <r>    -6.3450     0.0000     0.0000     0.0000     0.0000     0.0000     0.0000     0.0000     0.0000     0.0000 </r>
        <r>    -6.2439     0.0000     0.0000     0.0000     0.0000     0.0000     0.0000     0.0000     0.0000     0.0000 </r>
        <r>    -6.1428     0.0000     0.0000     0.0000     0.0000     0.0000     0.0000     0.0000     0.0000     0.0000 </r>
        <r>    -6.0417     0.0000     0.0000     0.0000     0.0000     0.0000     0.0000     0.0000     0.0000     0.0000 </r>
        <r>    -5.9406     0.0000     0.0000     0.0000     0.0000     0.0000     0.0000     0.0000     0.0000     0.0000 </r>
        <r>    -5.8395     0.0000     0.0000     0.0000     0.0000     0.0000     0.0000     0.0000     0.0000     0.0000 </r>
        <r>    -5.7384     0.0000     0.0000     0.0000     0.0000     0.0000     0.0000     0.0000     0.0000     0.0000 </r>
        <r>    -5.6373     0.0000     0.0000     0.0000     0.0000     0.0000     0.0000     0.0000     0.0000     0.0000 </r>
        <r>    -5.5362     0.0000     0.0000     0.0000     0.0000     0.0000     0.0000     0.0000     0.0000     0.0000 </r>
        <r>    -5.4351     0.0000     0.0000     0.0000     0.0000     0.0000     0.0000     0.0000     0.0000     0.0000 </r>
        <r>    -5.3340     0.0000     0.0000     0.0000     0.0000     0.0000     0.0000     0.0000     0.0000     0.0000 </r>
[...]
        <r>     3.4615     0.0000     0.0000     0.0000     0.0000     0.0000     0.0000     0.0000     0.0000     0.0000 </r>
        <r>     3.5626     0.0000     0.0000     0.0000     0.0000     0.0000     0.0000     0.0000     0.0000     0.0000 </r>
        <r>     3.6637     0.0000     0.0000     0.0000     0.0000     0.0000     0.0000     0.0000     0.0000     0.0000 </r>
        <r>     3.7648     0.0000     0.0000     0.0000     0.0000     0.0000     0.0000     0.0000     0.0000     0.0000 </r>
        <r>     3.8659     0.0000     0.0000     0.0000     0.0000     0.0000     0.0000     0.0000     0.0000     0.0000 </r>
        <r>     3.9670     0.0000     0.0000     0.0000     0.0000     0.0000     0.0000     0.0000     0.0000     0.0000 </r>
        <r>     4.0681     0.0000     0.0000     0.0000     0.0000     0.0000     0.0000     0.0000     0.0000     0.0000 </r>
        <r>     4.1692     0.0000     0.0001     0.0000     0.0000     0.0000     0.0000     0.0000     0.0000     0.0000 </r>
        <r>     4.2703     0.0000     0.0054     0.0002     0.0000     0.0000     0.0000     0.0000     0.0000     0.0000 </r>
        <r>     4.3714     0.0008     0.0132     0.0077     0.0018     0.0000     0.0000     0.0000     0.0000     0.0000 </r>
        <r>     4.4725     0.0243     0.0475     0.0516     0.0462     0.0000     0.0000     0.0000     0.0000     0.0000 </r>
        <r>     4.5736     0.0400     0.0083     0.0227     0.0317     0.0000     0.0000     0.0000     0.0000     0.0000 </r>
        <r>     4.6747     0.0004     0.0001     0.0002     0.0003     0.0000     0.0000     0.0000     0.0000     0.0000 </r>
        <r>     4.7758     0.0000     0.0000     0.0000     0.0000     0.0000     0.0000     0.0000     0.0000     0.0000 </r>
        <r>     4.8769     0.0000     0.0000     0.0000     0.0000     0.0000     0.0000     0.0000     0.0000     0.0000 </r>
        <r>     4.9780     0.0000     0.0000     0.0000     0.0000     0.0000     0.0000     0.0000     0.0000     0.0000 </r>
        <r>     5.0791     0.0000     0.0000     0.0000     0.0000     0.0000     0.0000     0.0000     0.0000     0.0000 </r>
        <r>     5.1802     0.0000     0.0000     0.0000     0.0000     0.0000     0.0000     0.0000     0.0000     0.0000 </r>
        <r>     5.2813     0.0000     0.0000     0.0000     0.0000     0.0000     0.0000     0.0000     0.0000     0.0000 </r>
        <r>     5.3824     0.0000     0.0000     0.0000     0.0000     0.0000     0.0000     0.0000     0.0000     0.0000 </r>
        <r>     5.4835     0.0000     0.0000     0.0000     0.0000     0.0000     0.0000     0.0000     0.0000     0.0000 </r>
        <r>     5.5846     0.0000     0.0000     0.0000     0.0000     0.0000     0.0000     0.0000     0.0000     0.0000 </r>
        <r>     5.6857     0.0000     0.0000     0.0001     0.0001     0.0000     0.0000     0.0000     0.0000     0.0000 </r>
        <r>     5.7868     0.0036     0.0009     0.0144     0.0162     0.0000     0.0000     0.0000     0.0000     0.0000 </r>
        <r>     5.8879     0.0053     0.0023     0.0150     0.0166     0.0000     0.0000     0.0000     0.0000     0.0000 </r>
        <r>     5.9890     0.0201     0.0169     0.0051     0.0019     0.0000     0.0000     0.0000     0.0000     0.0000 </r>
        <r>     6.0901     0.0020     0.0017     0.0005     0.0002     0.0000     0.0000     0.0000     0.0000     0.0000 </r>
        <r>     6.1912     0.0000     0.0000     0.0025     0.0001     0.0000     0.0000     0.0000     0.0000     0.0000 </r>
        <r>     6.2923     0.0000     0.0000     0.0158     0.0006     0.0000     0.0000     0.0000     0.0000     0.0000 </r>
        <r>     6.3934     0.0000     0.0000     0.0008     0.0000     0.0000     0.0000     0.0000     0.0000     0.0000 </r>
        <r>     6.4945     0.0000     0.0000     0.0000     0.0000     0.0000     0.0000     0.0000     0.0000     0.0000 </r>
        <r>     6.5956     0.0000     0.0000     0.0000     0.0000     0.0000     0.0000     0.0000     0.0000     0.0000 </r>
        <r>     6.6967     0.0000     0.0000     0.0000     0.0000     0.0000     0.0000     0.0000     0.0000     0.0000 </r>
        <r>     6.7978     0.0000     0.0000     0.0000     0.0000     0.0000     0.0000     0.0000     0.0000     0.0000 </r>
        <r>     6.8989     0.0000     0.0000     0.0000     0.0000     0.0000     0.0000     0.0000     0.0000     0.0000 </r>
        <r>     7.0000     0.0000     0.0000     0.0000     0.0000     0.0000     0.0000     0.0000     0.0000     0.0000 </r>
        <r>     7.1011     0.0000     0.0000     0.0000     0.0000     0.0000     0.0000     0.0000     0.0000     0.0000 </r>
        <r>     7.2022     0.0000     0.0000     0.0000     0.0000     0.0000     0.0000     0.0000     0.0000     0.0000 </r>
        <r>     7.3033     0.0000     0.0000     0.0000     0.0000     0.0000     0.0000     0.0000     0.0000     0.0000 </r>
        <r>     7.4044     0.0000     0.0000     0.0000     0.0000     0.0000     0.0000     0.0000     0.0000     0.0000 </r>
        <r>     7.5055     0.0000     0.0000     0.0000     0.0000     0.0000     0.0000     0.0000     0.0000     0.0000 </r>
        <r>     7.6066     0.0000     0.0000     0.0000     0.0000     0.0000     0.0000     0.0000     0.0000     0.0000 </r>
        <r>     7.7077     0.0000     0.0000     0.0000     0.0000     0.0000     0.0000     0.0000     0.0000     0.0000 </r>
        <r>     7.8088     0.0000     0.0000     0.0000     0.0000     0.0000     0.0000     0.0000     0.0000     0.0000 </r>
        <r>     7.9099     0.0000     0.0000     0.0000     0.0000     0.0000     0.0000     0.0000     0.0000     0.0000 </r>
        <r>     8.0110     0.0000     0.0000     0.0000     0.0000     0.0000     0.0000     0.0000     0.0000     0.0000 </r>
       </set>
      </set>
     </set>
    </array>
   </partial>
  </dos>
  <projected>
   <eigenvalues>
    <array>
     <dimension dim="1">band</dimension>
     <dimension dim="2">kpoint</dimension>
     <dimension dim="3">spin</dimension>
     <field>eigene</field>
     <field>occ</field>
     <set>
      <set comment="spin 1">
       <set comment="kpoint 1">
        <r>  -19.9799    1.0000 </r>
        <r>   -7.9251    0.6667 </r>
        <r>   -7.9251    0.6667 </r>
        <r>   -7.9251    0.6667 </r>
        <r>   -0.3631    0.0000 </r>
        <r>    1.1935    0.0000 </r>
        <r>    1.2316    0.0000 </r>
        <r>    1.2317    0.0000 </r>
        <r>    1.2319    0.0000 </r>
        <r>    1.3304    0.0000 </r>
        <r>    1.3304    0.0000 </r>
        <r>    2.4149    0.0000 </r>
        <r>    2.4151    0.0000 </r>
        <r>    2.4156    0.0000 </r>
        <r>    2.7412    0.0000 </r>
        <r>    2.7438    0.0000 </r>
        <r>    2.7763    0.0000 </r>
        <r>    2.8019    0.0000 </r>
        <r>    2.8137    0.0000 </r>
        <r>    2.9309    0.0000 </r>
        <r>    2.9338    0.0000 </r>
        <r>    2.9419    0.0000 </r>
        <r>    2.9960    0.0000 </r>
        <r>    4.0443    0.0000 </r>
        <r>    4.0443    0.0000 </r>
        <r>    4.0448    0.0000 </r>
        <r>    4.2788    0.0000 </r>
        <r>    4.4144    0.0000 </r>
        <r>    4.4270    0.0000 </r>
        <r>    4.5202    0.0000 </r>
        <r>    4.5561    0.0000 </r>
        <r>    4.5972    0.0000 </r>
        <r>    4.6305    0.0000 </r>
        <r>    5.9716    0.0000 </r>
        <r>    6.0129    0.0000 </r>
        <r>    6.6323    0.0000 </r>
       </set>
      </set>
      <set comment="spin 2">
       <set comment="kpoint 1">
        <r>  -20.9399    1.0000 </r>
        <r>   -8.8080    1.0000 </r>
        <r>   -8.8080    1.0000 </r>
        <r>   -8.8080    1.0000 </r>
        <r>   -0.4280    0.0000 </r>
        <r>    1.1322    0.0000 </r>
        <r>    1.1799    0.0000 </r>
        <r>    1.1800    0.0000 </r>
        <r>    1.1804    0.0000 </r>
        <r>    1.3076    0.0000 </r>
        <r>    1.3076    0.0000 </r>
        <r>    2.3325    0.0000 </r>
        <r>    2.3325    0.0000 </r>
        <r>    2.3327    0.0000 </r>
        <r>    2.6893    0.0000 </r>
        <r>    2.6900    0.0000 </r>
        <r>    2.6937    0.0000 </r>
        <r>    2.7841    0.0000 </r>
        <r>    2.7894    0.0000 </r>
        <r>    2.9327    0.0000 </r>
        <r>    2.9336    0.0000 </r>
        <r>    2.9372    0.0000 </r>
        <r>    2.9520    0.0000 </r>
        <r>    3.9874    0.0000 </r>
        <r>    3.9875    0.0000 </r>
        <r>    3.9875    0.0000 </r>
        <r>    4.2513    0.0000 </r>
        <r>    4.3941    0.0000 </r>
        <r>    4.4263    0.0000 </r>
        <r>    4.4266    0.0000 </r>
        <r>    4.4429    0.0000 </r>
        <r>    4.4815    0.0000 </r>
        <r>    4.4899    0.0000 </r>
        <r>    5.7871    0.0000 </r>
        <r>    5.9405    0.0000 </r>
        <r>    6.2307    0.0000 </r>
       </set>
      </set>
     </set>
    </array>
   </eigenvalues>
   <array>
    <dimension dim="1">ion</dimension>
    <dimension dim="2">band</dimension>
    <dimension dim="3">kpoint</dimension>
    <dimension dim="4">spin</dimension>
    <field>    s</field>
    <field>   py</field>
    <field>   pz</field>
    <field>   px</field>
    <field>  dxy</field>
    <field>  dyz</field>
    <field>  dz2</field>
    <field>  dxz</field>
    <field>x2-y2</field>
    <set>
     <set comment="spin1">
      <set comment="kpoint 1">
       <set comment="band 1">
        <r>  0.8051  0.0000  0.0000  0.0000  0.0000  0.0000  0.0000  0.0000  0.0000 </r>
       </set>
       <set comment="band 2">
        <r>  0.0000  0.5547  0.0808  0.0122  0.0000  0.0000  0.0000  0.0000  0.0000 </r>
       </set>
       <set comment="band 3">
        <r>  0.0000  0.0728  0.5625  0.0123  0.0000  0.0000  0.0000  0.0000  0.0000 </r>
       </set>
       <set comment="band 4">
        <r>  0.0000  0.0202  0.0043  0.6232  0.0000  0.0000  0.0000  0.0000  0.0000 </r>
       </set>
       <set comment="band 5">
        <r>  0.0126  0.0000  0.0000  0.0000  0.0000  0.0000  0.0000  0.0000  0.0000 </r>
       </set>
       <set comment="band 6">
        <r>  0.0154  0.0000  0.0000  0.0000  0.0000  0.0000  0.0000  0.0000  0.0000 </r>
       </set>
       <set comment="band 7">
        <r>  0.0000  0.0072  0.0002  0.0122  0.0000  0.0000  0.0000  0.0000  0.0000 </r>
       </set>
       <set comment="band 8">
        <r>  0.0000  0.0067  0.0101  0.0026  0.0000  0.0000  0.0000  0.0000  0.0000 </r>
       </set>
       <set comment="band 9">
        <r>  0.0000  0.0056  0.0091  0.0049  0.0000  0.0000  0.0000  0.0000  0.0000 </r>
       </set>
       <set comment="band 10">
        <r>  0.0000  0.0000  0.0000  0.0000  0.0000  0.0000  0.0000  0.0000  0.0000 </r>
       </set>
       <set comment="band 11">
        <r>  0.0000  0.0000  0.0000  0.0000  0.0000  0.0000  0.0000  0.0000  0.0000 </r>
       </set>
       <set comment="band 12">
        <r>  0.0000  0.0000  0.0000  0.0000  0.0000  0.0000  0.0000  0.0000  0.0000 </r>
       </set>
       <set comment="band 13">
        <r>  0.0000  0.0000  0.0000  0.0000  0.0000  0.0000  0.0000  0.0000  0.0000 </r>
       </set>
       <set comment="band 14">
        <r>  0.0000  0.0000  0.0000  0.0000  0.0000  0.0000  0.0000  0.0000  0.0000 </r>
       </set>
       <set comment="band 15">
        <r>  0.0000  0.0112  0.0072  0.0036  0.0000  0.0000  0.0000  0.0000  0.0000 </r>
       </set>
       <set comment="band 16">
        <r>  0.0000  0.0040  0.0003  0.0171  0.0000  0.0000  0.0000  0.0000  0.0000 </r>
       </set>
       <set comment="band 17">
        <r>  0.0000  0.0038  0.0092  0.0004  0.0000  0.0000  0.0000  0.0000  0.0000 </r>
       </set>
       <set comment="band 18">
        <r>  0.0000  0.0021  0.0036  0.0000  0.0000  0.0000  0.0000  0.0000  0.0000 </r>
       </set>
       <set comment="band 19">
        <r>  0.0000  0.0008  0.0016  0.0001  0.0000  0.0000  0.0000  0.0000  0.0000 </r>
       </set>
       <set comment="band 20">
        <r>  0.0009  0.0003  0.0002  0.0004  0.0000  0.0000  0.0000  0.0000  0.0000 </r>
       </set>
       <set comment="band 21">
        <r>  0.0000  0.0001  0.0000  0.0002  0.0000  0.0000  0.0000  0.0000  0.0000 </r>
       </set>
       <set comment="band 22">
        <r>  0.0013  0.0000  0.0001  0.0001  0.0000  0.0000  0.0000  0.0000  0.0000 </r>
       </set>
       <set comment="band 23">
        <r>  0.0128  0.0000  0.0000  0.0000  0.0000  0.0000  0.0000  0.0000  0.0000 </r>
       </set>
       <set comment="band 24">
        <r>  0.0000  0.0000  0.0000  0.0000  0.0000  0.0000  0.0000  0.0000  0.0000 </r>
       </set>
       <set comment="band 25">
        <r>  0.0000  0.0000  0.0000  0.0000  0.0000  0.0000  0.0000  0.0000  0.0000 </r>
       </set>
       <set comment="band 26">
        <r>  0.0000  0.0000  0.0000  0.0000  0.0000  0.0000  0.0000  0.0000  0.0000 </r>
       </set>
       <set comment="band 27">
        <r>  0.0000  0.0000  0.0000  0.0017  0.0000  0.0000  0.0000  0.0000  0.0000 </r>
       </set>
       <set comment="band 28">
        <r>  0.0002  0.0050  0.0006  0.0016  0.0000  0.0000  0.0000  0.0000  0.0000 </r>
       </set>
       <set comment="band 29">
        <r>  0.0007  0.0002  0.0045  0.0019  0.0000  0.0000  0.0000  0.0000  0.0000 </r>
       </set>
       <set comment="band 30">
        <r>  0.0000  0.0012  0.0022  0.0013  0.0000  0.0000  0.0000  0.0000  0.0000 </r>
       </set>
       <set comment="band 31">
        <r>  0.0001  0.0014  0.0008  0.0013  0.0000  0.0000  0.0000  0.0000  0.0000 </r>
       </set>
       <set comment="band 32">
        <r>  0.0056  0.0001  0.0003  0.0002  0.0000  0.0000  0.0000  0.0000  0.0000 </r>
       </set>
       <set comment="band 33">
        <r>  0.0002  0.0001  0.0001  0.0005  0.0000  0.0000  0.0000  0.0000  0.0000 </r>
       </set>
       <set comment="band 34">
        <r>  0.0003  0.0003  0.0000  0.0003  0.0000  0.0000  0.0000  0.0000  0.0000 </r>
       </set>
       <set comment="band 35">
        <r>  0.0026  0.0000  0.0000  0.0002  0.0000  0.0000  0.0000  0.0000  0.0000 </r>
       </set>
       <set comment="band 36">
        <r>  0.0001  0.0004  0.0004  0.0000  0.0000  0.0000  0.0000  0.0000  0.0000 </r>
       </set>
      </set>
     </set>
     <set comment="spin2">
      <set comment="kpoint 1">
       <set comment="band 1">
        <r>  0.8186  0.0000  0.0000  0.0000  0.0000  0.0000  0.0000  0.0000  0.0000 </r>
       </set>
       <set comment="band 2">
        <r>  0.0000  0.0470  0.1157  0.4998  0.0000  0.0000  0.0000  0.0000  0.0000 </r>
       </set>
       <set comment="band 3">
        <r>  0.0000  0.5885  0.0602  0.0137  0.0000  0.0000  0.0000  0.0000  0.0000 </r>
       </set>
       <set comment="band 4">
        <r>  0.0000  0.0269  0.4866  0.1489  0.0000  0.0000  0.0000  0.0000  0.0000 </r>
       </set>
       <set comment="band 5">
        <r>  0.0142  0.0000  0.0000  0.0000  0.0000  0.0000  0.0000  0.0000  0.0000 </r>
       </set>
       <set comment="band 6">
        <r>  0.0155  0.0000  0.0000  0.0000  0.0000  0.0000  0.0000  0.0000  0.0000 </r>
       </set>
       <set comment="band 7">
        <r>  0.0000  0.0010  0.0081  0.0107  0.0000  0.0000  0.0000  0.0000  0.0000 </r>
       </set>
       <set comment="band 8">
        <r>  0.0000  0.0173  0.0001  0.0024  0.0000  0.0000  0.0000  0.0000  0.0000 </r>
       </set>
       <set comment="band 9">
        <r>  0.0000  0.0015  0.0113  0.0068  0.0000  0.0000  0.0000  0.0000  0.0000 </r>
       </set>
       <set comment="band 10">
        <r>  0.0000  0.0000  0.0000  0.0000  0.0000  0.0000  0.0000  0.0000  0.0000 </r>
       </set>
       <set comment="band 11">
        <r>  0.0000  0.0000  0.0000  0.0000  0.0000  0.0000  0.0000  0.0000  0.0000 </r>
       </set>
       <set comment="band 12">
        <r>  0.0000  0.0000  0.0000  0.0000  0.0000  0.0000  0.0000  0.0000  0.0000 </r>
       </set>
       <set comment="band 13">
        <r>  0.0000  0.0000  0.0000  0.0000  0.0000  0.0000  0.0000  0.0000  0.0000 </r>
       </set>
       <set comment="band 14">
        <r>  0.0000  0.0000  0.0000  0.0000  0.0000  0.0000  0.0000  0.0000  0.0000 </r>
       </set>
       <set comment="band 15">
        <r>  0.0000  0.0035  0.0002  0.0169  0.0000  0.0000  0.0000  0.0000  0.0000 </r>
       </set>
       <set comment="band 16">
        <r>  0.0000  0.0120  0.0068  0.0018  0.0000  0.0000  0.0000  0.0000  0.0000 </r>
       </set>
       <set comment="band 17">
        <r>  0.0000  0.0046  0.0135  0.0018  0.0000  0.0000  0.0000  0.0000  0.0000 </r>
       </set>
       <set comment="band 18">
        <r>  0.0000  0.0009  0.0003  0.0001  0.0000  0.0000  0.0000  0.0000  0.0000 </r>
       </set>
       <set comment="band 19">
        <r>  0.0000  0.0000  0.0000  0.0001  0.0000  0.0000  0.0000  0.0000  0.0000 </r>
       </set>
       <set comment="band 20">
        <r>  0.0001  0.0000  0.0000  0.0000  0.0000  0.0000  0.0000  0.0000  0.0000 </r>
       </set>
       <set comment="band 21">
        <r>  0.0000  0.0000  0.0000  0.0000  0.0000  0.0000  0.0000  0.0000  0.0000 </r>
       </set>
       <set comment="band 22">
        <r>  0.0028  0.0000  0.0001  0.0000  0.0000  0.0000  0.0000  0.0000  0.0000 </r>
       </set>
       <set comment="band 23">
        <r>  0.0118  0.0000  0.0000  0.0000  0.0000  0.0000  0.0000  0.0000  0.0000 </r>
       </set>
       <set comment="band 24">
        <r>  0.0000  0.0000  0.0000  0.0000  0.0000  0.0000  0.0000  0.0000  0.0000 </r>
       </set>
       <set comment="band 25">
        <r>  0.0000  0.0000  0.0000  0.0000  0.0000  0.0000  0.0000  0.0000  0.0000 </r>
       </set>
       <set comment="band 26">
        <r>  0.0000  0.0000  0.0000  0.0000  0.0000  0.0000  0.0000  0.0000  0.0000 </r>
       </set>
       <set comment="band 27">
        <r>  0.0000  0.0008  0.0000  0.0000  0.0000  0.0000  0.0000  0.0000  0.0000 </r>
       </set>
       <set comment="band 28">
        <r>  0.0003  0.0038  0.0024  0.0000  0.0000  0.0000  0.0000  0.0000  0.0000 </r>
       </set>
       <set comment="band 29">
        <r>  0.0000  0.0001  0.0019  0.0010  0.0000  0.0000  0.0000  0.0000  0.0000 </r>
       </set>
       <set comment="band 30">
        <r>  0.0000  0.0020  0.0004  0.0013  0.0000  0.0000  0.0000  0.0000  0.0000 </r>
       </set>
       <set comment="band 31">
        <r>  0.0000  0.0000  0.0006  0.0016  0.0000  0.0000  0.0000  0.0000  0.0000 </r>
       </set>
       <set comment="band 32">
        <r>  0.0028  0.0001  0.0020  0.0024  0.0000  0.0000  0.0000  0.0000  0.0000 </r>
       </set>
       <set comment="band 33">
        <r>  0.0035  0.0008  0.0011  0.0019  0.0000  0.0000  0.0000  0.0000  0.0000 </r>
       </set>
       <set comment="band 34">
        <r>  0.0007  0.0002  0.0030  0.0033  0.0000  0.0000  0.0000  0.0000  0.0000 </r>
       </set>
       <set comment="band 35">
        <r>  0.0024  0.0020  0.0006  0.0002  0.0000  0.0000  0.0000  0.0000  0.0000 </r>
       </set>
       <set comment="band 36">
        <r>  0.0000  0.0000  0.0019  0.0001  0.0000  0.0000  0.0000  0.0000  0.0000 </r>
       </set>
      </set>
     </set>
    </set>
   </array>
  </projected>
 </calculation>
 <structure name="finalpos" >
  <crystal>
   <varray name="basis" >
    <v>      10.00000000       0.00000000       0.00000000 </v>
    <v>       0.00000000      10.00000000       0.00000000 </v>
    <v>       0.00000000       0.00000000      10.00000000 </v>
   </varray>
   <i name="volume">   1000.00000000 </i>
   <varray name="rec_basis" >
    <v>       0.10000000       0.00000000       0.00000000 </v>
    <v>       0.00000000       0.10000000       0.00000000 </v>
    <v>       0.00000000       0.00000000       0.10000000 </v>
   </varray>
  </crystal>
  <varray name="positions" >
   <v>       0.50000000       0.50000000       0.50000000 </v>
  </varray>
 </structure>
</modeling>
