       N       E                     dE             d eps       ncg     rms          ort
DAV:   1     0.716085304256E+02    0.71609E+02   -0.31137E+03    36   0.216E+02
DAV:   2     0.165738714438E+02   -0.55035E+02   -0.55035E+02    36   0.206E+01
DAV:   3    -0.244117616076E-01   -0.16598E+02   -0.16596E+02    36   0.252E+01
DAV:   4    -0.188732493941E+01   -0.18629E+01   -0.18629E+01    36   0.109E+01
DAV:   5    -0.220276820510E+01   -0.31544E+00   -0.31544E+00    36   0.439E+00
SDA:   6     0.358963799131E+00    0.25617E+01   -0.43087E+01    36   0.108E+02 0.000E+00
DMP:   7    -0.116877694314E+01   -0.15277E+01   -0.41282E-01    36   0.156E+01-0.381E+01
DMP:   8    -0.118410674879E+01   -0.15330E-01   -0.67246E+00    36   0.170E+01-0.367E-01
DMP:   9    -0.141615955538E+01   -0.23205E+00   -0.16460E-01    36   0.222E+00-0.473E+00
DMP:  10    -0.142622328825E+01   -0.10064E-01   -0.10103E+00    36   0.246E+00 0.170E-01
DMP:  11    -0.146898495545E+01   -0.42762E-01   -0.14201E-02    36   0.188E-01-0.399E-01
DMP:  12    -0.146796510046E+01    0.10199E-02   -0.15284E-01    36   0.415E-01-0.851E-02
DMP:  13    -0.147547478232E+01   -0.75097E-02   -0.33532E-03    36   0.112E-02-0.750E-03
DMP:  14    -0.147503420605E+01    0.44058E-03   -0.19458E-02    36   0.605E-02-0.310E-02
DMP:  15    -0.147613939128E+01   -0.11052E-02   -0.17920E-03    36   0.175E-03 0.715E-03
DMP:  16    -0.147607342538E+01    0.65966E-04   -0.18841E-03    36   0.757E-03-0.749E-03
DMP:  17    -0.147620686142E+01   -0.13344E-03   -0.72742E-04    36   0.112E-03 0.182E-03
DMP:  18    -0.147622632865E+01   -0.19467E-04   -0.12849E-04    36   0.697E-04-0.983E-04
   1 F= -.14762263E+01 E0= -.14762263E+01  d E =-.147623E+01  mag=    -0.0000
