<?xml version="1.0" encoding="ISO-8859-1"?>
<modeling>
 <generator>
  <i name="program" type="string">vasp </i>
  <i name="version" type="string">5.4.4.18Apr17-6-g9f103f2a35  </i>
  <i name="subversion" type="string">(build Nov 08 2019 15:19:53) gamma-only         parallel </i>
  <i name="platform" type="string">LinuxIFC </i>
  <i name="date" type="string">2020 11 30 </i>
  <i name="time" type="string">09:30:43 </i>
 </generator>
 <incar>
  <i type="string" name="PREC">accurate</i>
  <i type="string" name="ALGO"> D</i>
  <i type="int" name="ISPIN">     2</i>
  <i type="int" name="NELM">   300</i>
  <i type="int" name="IBRION">     2</i>
  <i name="EDIFF">      0.00005000</i>
  <i type="int" name="NSW">    99</i>
  <i type="int" name="ISIF">     2</i>
  <i name="ENCUT">    520.00000000</i>
  <v name="MAGMOM">      0.60000000</v>
  <i type="string" name="LREAL"> Auto</i>
  <i type="int" name="ISMEAR">     0</i>
  <i name="SIGMA">      0.05000000</i>
  <i type="logical" name="LWAVE"> F  </i>
  <i type="int" name="LORBIT">    11</i>
  <i type="logical" name="LASPH"> T  </i>
  <v type="int" name="KPOINT_BSE">    -1     0     0     0</v>
  <i type="int" name="NELM">   300</i>
  <i type="logical" name="LASPH"> T  </i>
 </incar>
 <structure name="primitive_cell" >
  <crystal>
   <varray name="basis" >
    <v>      10.00000000       0.00000000       0.00000000 </v>
    <v>       0.00000000      10.00000000       0.00000000 </v>
    <v>       0.00000000       0.00000000      10.00000000 </v>
   </varray>
   <i name="volume">   1000.00000000 </i>
   <varray name="rec_basis" >
    <v>       0.10000000       0.00000000       0.00000000 </v>
    <v>       0.00000000       0.10000000       0.00000000 </v>
    <v>       0.00000000       0.00000000       0.10000000 </v>
   </varray>
  </crystal>
  <varray name="positions" >
   <v>      -0.50000000      -0.50000000      -0.50000000 </v>
  </varray>
 </structure>
 <varray name="primitive_index" >
  <v type="int" >        1 </v>
 </varray>
 <kpoints>
  <generation param="Gamma">
   <v type="int" name="divisions">       1        1        1 </v>
   <v name="usershift">      0.00000000       0.00000000       0.00000000 </v>
   <v name="genvec1">      1.00000000       0.00000000       0.00000000 </v>
   <v name="genvec2">      0.00000000       1.00000000       0.00000000 </v>
   <v name="genvec3">      0.00000000       0.00000000       1.00000000 </v>
   <v name="shift">      0.00000000       0.00000000       0.00000000 </v>
  </generation>
  <varray name="kpointlist" >
   <v>       0.00000000       0.00000000       0.00000000 </v>
  </varray>
  <varray name="weights" >
   <v>       1.00000000 </v>
  </varray>
 </kpoints>
 <parameters>
  <separator name="general" >
   <i type="string" name="SYSTEM">unknown system</i>
   <i type="logical" name="LCOMPAT"> F  </i>
  </separator>
  <separator name="electronic" >
   <i type="string" name="PREC">accura</i>
   <i name="ENMAX">    520.00000000</i>
   <i name="ENAUG">    416.23000000</i>
   <i name="EDIFF">      0.00005000</i>
   <i type="int" name="IALGO">    53</i>
   <i type="int" name="IWAVPR">    11</i>
   <i type="int" name="NBANDS">    36</i>
   <i name="NELECT">     10.00000000</i>
   <i type="int" name="TURBO">     0</i>
   <i type="int" name="IRESTART">     0</i>
   <i type="int" name="NREBOOT">     0</i>
   <i type="int" name="NMIN">     0</i>
   <i name="EREF">      0.00000000</i>
   <separator name="electronic smearing" >
    <i type="int" name="ISMEAR">     0</i>
    <i name="SIGMA">      0.05000000</i>
    <i name="KSPACING">      0.50000000</i>
    <i type="logical" name="KGAMMA"> T  </i>
   </separator>
   <separator name="electronic projectors" >
    <i type="logical" name="LREAL"> T  </i>
    <v name="ROPT">     -0.00025000</v>
    <i type="int" name="LMAXPAW">  -100</i>
    <i type="int" name="LMAXMIX">     2</i>
    <i type="logical" name="NLSPLINE"> F  </i>
   </separator>
   <separator name="electronic startup" >
    <i type="int" name="ISTART">     0</i>
    <i type="int" name="ICHARG">     2</i>
    <i type="int" name="INIWAV">     1</i>
   </separator>
   <separator name="electronic spin" >
    <i type="int" name="ISPIN">     2</i>
    <i type="logical" name="LNONCOLLINEAR"> F  </i>
    <v name="MAGMOM">      0.60000000</v>
    <i name="NUPDOWN">     -1.00000000</i>
    <i type="logical" name="LSORBIT"> F  </i>
    <v name="SAXIS">      0.00000000      0.00000000      1.00000000</v>
    <i type="logical" name="LSPIRAL"> F  </i>
    <v name="QSPIRAL">      0.00000000      0.00000000      0.00000000</v>
    <i type="logical" name="LZEROZ"> F  </i>
   </separator>
   <separator name="electronic exchange-correlation" >
    <i type="logical" name="LASPH"> T  </i>
    <i type="logical" name="LMETAGGA"> F  </i>
   </separator>
   <separator name="electronic convergence" >
    <i type="int" name="NELM">   300</i>
    <i type="int" name="NELMDL">    -5</i>
    <i type="int" name="NELMIN">     2</i>
    <i name="ENINI">    520.00000000</i>
    <separator name="electronic convergence detail" >
     <i type="logical" name="LDIAG"> T  </i>
     <i type="logical" name="LSUBROT"> F  </i>
     <i name="WEIMIN">      0.00100000</i>
     <i name="EBREAK">      0.00000035</i>
     <i name="DEPER">      0.30000000</i>
     <i type="int" name="NRMM">     4</i>
     <i name="TIME">      0.40000000</i>
    </separator>
   </separator>
   <separator name="electronic mixer" >
    <i name="AMIX">      0.40000000</i>
    <i name="BMIX">      1.00000000</i>
    <i name="AMIN">      0.10000000</i>
    <i name="AMIX_MAG">      1.60000000</i>
    <i name="BMIX_MAG">      1.00000000</i>
    <separator name="electronic mixer details" >
     <i type="int" name="IMIX">     4</i>
     <i type="logical" name="MIXFIRST"> F  </i>
     <i type="int" name="MAXMIX">   -45</i>
     <i name="WC">    100.00000000</i>
     <i type="int" name="INIMIX">     1</i>
     <i type="int" name="MIXPRE">     1</i>
     <i type="int" name="MREMOVE">     5</i>
    </separator>
   </separator>
   <separator name="electronic dipolcorrection" >
    <i type="logical" name="LDIPOL"> F  </i>
    <i type="logical" name="LMONO"> F  </i>
    <i type="int" name="IDIPOL">     0</i>
    <i name="EPSILON">      1.00000000</i>
    <v name="DIPOL">   -100.00000000   -100.00000000   -100.00000000</v>
    <i name="EFIELD">      0.00000000</i>
   </separator>
  </separator>
  <separator name="grids" >
   <i type="int" name="NGX">    80</i>
   <i type="int" name="NGY">    80</i>
   <i type="int" name="NGZ">    80</i>
   <i type="int" name="NGXF">   160</i>
   <i type="int" name="NGYF">   160</i>
   <i type="int" name="NGZF">   160</i>
   <i type="logical" name="ADDGRID"> F  </i>
  </separator>
  <separator name="ionic" >
   <i type="int" name="NSW">    99</i>
   <i type="int" name="IBRION">     2</i>
   <i type="int" name="MDALGO">     0</i>
   <i type="int" name="ISIF">     2</i>
   <i name="PSTRESS">      0.00000000</i>
   <i name="EDIFFG">      0.00050000</i>
   <i type="int" name="NFREE">     1</i>
   <i name="POTIM">      0.50000000</i>
   <i name="SMASS">     -3.00000000</i>
   <i name="SCALEE">      1.00000000</i>
  </separator>
  <separator name="ionic md" >
   <i name="TEBEG">      0.00010000</i>
   <i name="TEEND">      0.00010000</i>
   <i type="int" name="NBLOCK">     1</i>
   <i type="int" name="KBLOCK">    99</i>
   <i type="int" name="NPACO">   256</i>
   <i name="APACO">     16.00000000</i>
  </separator>
  <separator name="symmetry" >
   <i type="int" name="ISYM">     2</i>
   <i name="SYMPREC">      0.00001000</i>
  </separator>
  <separator name="dos" >
   <i type="int" name="LORBIT">    11</i>
   <v name="RWIGS">     -1.00000000</v>
   <i type="int" name="NEDOS">   301</i>
   <i name="EMIN">     10.00000000</i>
   <i name="EMAX">    -10.00000000</i>
   <i name="EFERMI">      0.00000000</i>
  </separator>
  <separator name="writing" >
   <i type="int" name="NWRITE">     2</i>
   <i type="logical" name="LWAVE"> F  </i>
   <i type="logical" name="LDOWNSAMPLE"> F  </i>
   <i type="logical" name="LCHARG"> T  </i>
   <i type="logical" name="LPARD"> F  </i>
   <i type="logical" name="LVTOT"> F  </i>
   <i type="logical" name="LVHAR"> F  </i>
   <i type="logical" name="LELF"> F  </i>
   <i type="logical" name="LOPTICS"> F  </i>
   <v name="STM">      0.00000000      0.00000000      0.00000000      0.00000000      0.00000000      0.00000000      0.00000000</v>
  </separator>
  <separator name="performance" >
   <i type="int" name="NPAR">    36</i>
   <i type="int" name="NSIM">     4</i>
   <i type="int" name="NBLK">    -1</i>
   <i type="logical" name="LPLANE"> T  </i>
   <i type="logical" name="LSCALAPACK"> T  </i>
   <i type="logical" name="LSCAAWARE"> F  </i>
   <i type="logical" name="LSCALU"> F  </i>
   <i type="logical" name="LASYNC"> F  </i>
   <i type="logical" name="LORBITALREAL"> F  </i>
  </separator>
  <separator name="miscellaneous" >
   <i type="int" name="IDIOT">     3</i>
   <i type="int" name="ISPECIAL">     0</i>
   <i type="logical" name="LMUSIC"> F  </i>
   <v name="POMASS">    106.42000000</v>
   <v name="DARWINR">      0.00000000</v>
   <v name="DARWINV">      1.00000000</v>
   <i type="logical" name="LCORR"> T  </i>
  </separator>
  <i type="logical" name="GGA_COMPAT"> T  </i>
  <i type="logical" name="LBERRY"> F  </i>
  <i type="int" name="ICORELEVEL">     0</i>
  <i type="logical" name="LDAU"> F  </i>
  <i type="int" name="I_CONSTRAINED_M">     0</i>
  <separator name="electronic exchange-correlation" >
   <i type="string" name="GGA">--</i>
   <i type="int" name="VOSKOWN">     0</i>
   <i type="logical" name="LHFCALC"> F  </i>
   <i type="string" name="PRECFOCK"></i>
   <i type="logical" name="LSYMGRAD"> F  </i>
   <i type="logical" name="LHFONE"> F  </i>
   <i type="logical" name="LRHFCALC"> F  </i>
   <i type="logical" name="LTHOMAS"> F  </i>
   <i type="logical" name="LMODELHF"> F  </i>
   <i name="ENCUT4O">     -1.00000000</i>
   <i type="int" name="EXXOEP">     0</i>
   <i type="int" name="FOURORBIT">     0</i>
   <i name="AEXX">      0.00000000</i>
   <i name="HFALPHA">      0.00000000</i>
   <i name="MCALPHA">      0.00000000</i>
   <i name="ALDAX">      1.00000000</i>
   <i name="AGGAX">      1.00000000</i>
   <i name="ALDAC">      1.00000000</i>
   <i name="AGGAC">      1.00000000</i>
   <i type="int" name="NKREDX">     1</i>
   <i type="int" name="NKREDY">     1</i>
   <i type="int" name="NKREDZ">     1</i>
   <i type="logical" name="SHIFTRED"> F  </i>
   <i type="logical" name="ODDONLY"> F  </i>
   <i type="logical" name="EVENONLY"> F  </i>
   <i type="int" name="LMAXFOCK">     0</i>
   <i type="int" name="NMAXFOCKAE">     0</i>
   <i type="logical" name="LFOCKAEDFT"> F  </i>
   <i name="HFSCREEN">      0.00000000</i>
   <i name="HFSCREENC">      0.00000000</i>
   <i type="int" name="NBANDSGWLOW">     0</i>
  </separator>
  <separator name="vdW DFT" >
   <i type="logical" name="LUSE_VDW"> F  </i>
   <i name="Zab_VDW">     -0.84910000</i>
   <i name="PARAM1">      0.12340000</i>
   <i name="PARAM2">      1.00000000</i>
   <i name="PARAM3">      0.00000000</i>
  </separator>
  <separator name="model GW" >
   <i type="int" name="MODEL_GW">     0</i>
   <i name="MODEL_EPS0">    600.00000000</i>
   <i name="MODEL_ALPHA">      1.00000000</i>
  </separator>
  <separator name="linear response parameters" >
   <i type="logical" name="LEPSILON"> F  </i>
   <i type="logical" name="LRPA"> F  </i>
   <i type="logical" name="LNABLA"> F  </i>
   <i type="logical" name="LVEL"> F  </i>
   <i type="int" name="KINTER">     0</i>
   <i name="CSHIFT">      0.10000000</i>
   <i name="OMEGAMAX">     -1.00000000</i>
   <i name="DEG_THRESHOLD">      0.00200000</i>
   <i name="RTIME">     -0.10000000</i>
   <i name="WPLASMAI">      0.00000000</i>
   <v name="DFIELD">      0.00000000      0.00000000      0.00000000</v>
   <v name="WPLASMA">      0.00000000      0.00000000      0.00000000      0.00000000      0.00000000      0.00000000      0.00000000      0.00000000      0.00000000</v>
  </separator>
  <separator name="orbital magnetization" >
   <i type="logical" name="NUCIND"> F  </i>
   <v name="MAGPOS">      0.00000000      0.00000000      0.00000000</v>
   <i type="logical" name="LNICSALL"> T  </i>
   <i type="logical" name="ORBITALMAG"> F  </i>
   <i type="logical" name="LMAGBLOCH"> F  </i>
   <i type="logical" name="LCHIMAG"> F  </i>
   <i type="logical" name="LGAUGE"> T  </i>
   <i type="int" name="MAGATOM">     0</i>
   <v name="MAGDIPOL">      0.00000000      0.00000000      0.00000000</v>
   <v name="AVECCONST">      0.00000000      0.00000000      0.00000000</v>
  </separator>
  <separator name="response functions" >
   <i type="logical" name="LADDER"> F  </i>
   <i type="logical" name="LRPAFORCE"> F  </i>
   <i type="logical" name="LFXC"> F  </i>
   <i type="logical" name="LHARTREE"> T  </i>
   <i type="int" name="IBSE">     0</i>
   <v type="int" name="KPOINT">    -1     0     0     0</v>
   <i type="logical" name="LTCTE"> F  </i>
   <i type="logical" name="LTETE"> F  </i>
   <i type="logical" name="LTRIPLET"> F  </i>
   <i type="logical" name="LFXCEPS"> F  </i>
   <i type="logical" name="LFXHEG"> F  </i>
   <i type="int" name="NATURALO">     2</i>
   <i type="logical" name="L2ORDER"> F  </i>
   <i type="logical" name="LMP2LT"> F  </i>
   <i type="logical" name="LUSEW"> F  </i>
   <i name="ENCUTGW">     -2.00000000</i>
   <i name="ENCUTGWSOFT">     -2.00000000</i>
   <i name="ENCUTLF">     -1.00000000</i>
   <i type="int" name="LMAXMP2">    -1</i>
   <i name="SCISSOR">      0.00000000</i>
   <i type="int" name="NOMEGA">     0</i>
   <i type="int" name="NOMEGAR">     0</i>
   <i type="int" name="NBANDSGW">    -1</i>
   <i type="int" name="NBANDSO">    -1</i>
   <i type="int" name="NBANDSV">    -1</i>
   <i type="int" name="NELM">   300</i>
   <i type="int" name="NELMHF">     1</i>
   <i type="int" name="DIM">     3</i>
   <i type="int" name="ANTIRES">     0</i>
   <i name="OMEGAMAX">    -30.00000000</i>
   <i name="OMEGAMIN">    -30.00000000</i>
   <i name="OMEGATL">   -200.00000000</i>
   <i type="int" name="OMEGAGRID">   140</i>
   <i name="CSHIFT">     -0.10000000</i>
   <i type="logical" name="SELFENERGY"> F  </i>
   <i type="logical" name="LSPECTRAL"> F  </i>
   <i type="logical" name="LSPECTRALGW"> F  </i>
   <i type="logical" name="LSINGLES"> F  </i>
   <i type="logical" name="LFERMIGW"> F  </i>
   <i type="logical" name="ODDONLYGW"> F  </i>
   <i type="logical" name="EVENONLYGW"> F  </i>
   <i type="int" name="NKREDLFX">     1</i>
   <i type="int" name="NKREDLFY">     1</i>
   <i type="int" name="NKREDLFZ">     1</i>
   <i type="int" name="MAXMEM">  2800</i>
   <i type="int" name="TELESCOPE">     0</i>
   <i type="int" name="TAUPAR">     1</i>
   <i type="int" name="OMEGAPAR">    -1</i>
   <i name="LAMBDA">      1.00000000</i>
  </separator>
  <separator name="External order field" >
   <i name="OFIELD_KAPPA">      0.00000000</i>
   <v name="OFIELD_K">      0.00000000      0.00000000      0.00000000</v>
   <i name="OFIELD_Q6_NEAR">      0.00000000</i>
   <i name="OFIELD_Q6_FAR">      0.00000000</i>
   <i name="OFIELD_A">      0.00000000</i>
  </separator>
 </parameters>
 <atominfo>
  <atoms>       1 </atoms>
  <types>       1 </types>
  <array name="atoms" >
   <dimension dim="1">ion</dimension>
   <field type="string">element</field>
   <field type="int">atomtype</field>
   <set>
    <rc><c>Pd</c><c>   1</c></rc>
   </set>
  </array>
  <array name="atomtypes" >
   <dimension dim="1">type</dimension>
   <field type="int">atomspertype</field>
   <field type="string">element</field>
   <field>mass</field>
   <field>valence</field>
   <field type="string">pseudopotential</field>
   <set>
    <rc><c>   1</c><c>Pd</c><c>    106.42000000</c><c>     10.00000000</c><c>  PAW_PBE Pd 04Jan2005                  </c></rc>
   </set>
  </array>
 </atominfo>
 <structure name="initialpos" >
  <crystal>
   <varray name="basis" >
    <v>      10.00000000       0.00000000       0.00000000 </v>
    <v>       0.00000000      10.00000000       0.00000000 </v>
    <v>       0.00000000       0.00000000      10.00000000 </v>
   </varray>
   <i name="volume">   1000.00000000 </i>
   <varray name="rec_basis" >
    <v>       0.10000000       0.00000000       0.00000000 </v>
    <v>       0.00000000       0.10000000       0.00000000 </v>
    <v>       0.00000000       0.00000000       0.10000000 </v>
   </varray>
  </crystal>
  <varray name="positions" >
   <v>       0.50000000       0.50000000       0.50000000 </v>
  </varray>
 </structure>
 <calculation>
  <scstep>
   <time name="total">    1.10    1.11</time>
   <energy>
    <i name="alphaZ">      0.65175225 </i>
    <i name="ewald">   -204.28240005 </i>
    <i name="hartreedc">   -574.80604265 </i>
    <i name="XCdc">    -31.45028839 </i>
    <i name="pawpsdc">    806.70579544 </i>
    <i name="pawaedc">   -744.48589367 </i>
    <i name="eentropy">     -0.00000220 </i>
    <i name="bandstr">      9.52713752 </i>
    <i name="atom">    809.74847218 </i>
    <i name="e_fr_energy">     71.60853043 </i>
    <i name="e_wo_entrp">     71.60853262 </i>
    <i name="e_0_energy">     71.60853152 </i>
   </energy>
  </scstep>
  <scstep>
   <time name="total">    0.57    0.57</time>
   <energy>
    <i name="e_fr_energy">     16.57387144 </i>
    <i name="e_wo_entrp">     16.57418016 </i>
    <i name="e_0_energy">     16.57402580 </i>
   </energy>
  </scstep>
  <scstep>
   <time name="total">    0.57    0.57</time>
   <energy>
    <i name="e_fr_energy">     -0.02441176 </i>
    <i name="e_wo_entrp">     -0.02441176 </i>
    <i name="e_0_energy">     -0.02441176 </i>
   </energy>
  </scstep>
  <scstep>
   <time name="total">    0.57    0.57</time>
   <energy>
    <i name="e_fr_energy">     -1.88732494 </i>
    <i name="e_wo_entrp">     -1.88732494 </i>
    <i name="e_0_energy">     -1.88732494 </i>
   </energy>
  </scstep>
  <scstep>
   <time name="total">    0.81    0.81</time>
   <energy>
    <i name="e_fr_energy">     -2.20276821 </i>
    <i name="e_wo_entrp">     -2.20276821 </i>
    <i name="e_0_energy">     -2.20276821 </i>
   </energy>
  </scstep>
  <scstep>
   <time name="total">    1.10    1.10</time>
   <energy>
    <i name="e_fr_energy">      0.35896380 </i>
    <i name="e_wo_entrp">      0.35896380 </i>
    <i name="e_0_energy">      0.35896380 </i>
   </energy>
  </scstep>
  <scstep>
   <time name="total">    1.08    1.08</time>
   <energy>
    <i name="e_fr_energy">     -1.16877694 </i>
    <i name="e_wo_entrp">     -1.16877694 </i>
    <i name="e_0_energy">     -1.16877694 </i>
   </energy>
  </scstep>
  <scstep>
   <time name="total">    1.08    1.08</time>
   <energy>
    <i name="e_fr_energy">     -1.18410675 </i>
    <i name="e_wo_entrp">     -1.18410675 </i>
    <i name="e_0_energy">     -1.18410675 </i>
   </energy>
  </scstep>
  <scstep>
   <time name="total">    1.09    1.09</time>
   <energy>
    <i name="e_fr_energy">     -1.41615956 </i>
    <i name="e_wo_entrp">     -1.41615956 </i>
    <i name="e_0_energy">     -1.41615956 </i>
   </energy>
  </scstep>
  <scstep>
   <time name="total">    1.08    1.08</time>
   <energy>
    <i name="e_fr_energy">     -1.42622329 </i>
    <i name="e_wo_entrp">     -1.42622329 </i>
    <i name="e_0_energy">     -1.42622329 </i>
   </energy>
  </scstep>
  <scstep>
   <time name="total">    1.10    1.10</time>
   <energy>
    <i name="e_fr_energy">     -1.46898496 </i>
    <i name="e_wo_entrp">     -1.46898496 </i>
    <i name="e_0_energy">     -1.46898496 </i>
   </energy>
  </scstep>
  <scstep>
   <time name="total">    1.08    1.08</time>
   <energy>
    <i name="e_fr_energy">     -1.46796510 </i>
    <i name="e_wo_entrp">     -1.46796510 </i>
    <i name="e_0_energy">     -1.46796510 </i>
   </energy>
  </scstep>
  <scstep>
   <time name="total">    1.09    1.09</time>
   <energy>
    <i name="e_fr_energy">     -1.47547478 </i>
    <i name="e_wo_entrp">     -1.47547478 </i>
    <i name="e_0_energy">     -1.47547478 </i>
   </energy>
  </scstep>
  <scstep>
   <time name="total">    1.09    1.10</time>
   <energy>
    <i name="e_fr_energy">     -1.47503421 </i>
    <i name="e_wo_entrp">     -1.47503421 </i>
    <i name="e_0_energy">     -1.47503421 </i>
   </energy>
  </scstep>
  <scstep>
   <time name="total">    1.08    1.08</time>
   <energy>
    <i name="e_fr_energy">     -1.47613939 </i>
    <i name="e_wo_entrp">     -1.47613939 </i>
    <i name="e_0_energy">     -1.47613939 </i>
   </energy>
  </scstep>
  <scstep>
   <time name="total">    1.09    1.09</time>
   <energy>
    <i name="e_fr_energy">     -1.47607343 </i>
    <i name="e_wo_entrp">     -1.47607343 </i>
    <i name="e_0_energy">     -1.47607343 </i>
   </energy>
  </scstep>
  <scstep>
   <time name="total">    1.09    1.09</time>
   <energy>
    <i name="e_fr_energy">     -1.47620686 </i>
    <i name="e_wo_entrp">     -1.47620686 </i>
    <i name="e_0_energy">     -1.47620686 </i>
   </energy>
  </scstep>
  <scstep>
   <time name="total">    1.16    1.16</time>
   <energy>
    <i name="alphaZ">      0.65175225 </i>
    <i name="ewald">   -204.28240005 </i>
    <i name="hartreedc">   -604.68291091 </i>
    <i name="XCdc">    -30.49937184 </i>
    <i name="pawpsdc">    811.20843074 </i>
    <i name="pawaedc">   -745.54008999 </i>
    <i name="eentropy">     -0.00000000 </i>
    <i name="bandstr">    -38.08010871 </i>
    <i name="atom">    809.74847218 </i>
    <i name="e_fr_energy">     -1.47622633 </i>
    <i name="e_wo_entrp">     -1.47622633 </i>
    <i name="e_0_energy">     -1.47622633 </i>
   </energy>
  </scstep>
  <structure>
   <crystal>
    <varray name="basis" >
     <v>      10.00000000       0.00000000       0.00000000 </v>
     <v>       0.00000000      10.00000000       0.00000000 </v>
     <v>       0.00000000       0.00000000      10.00000000 </v>
    </varray>
    <i name="volume">   1000.00000000 </i>
    <varray name="rec_basis" >
     <v>       0.10000000       0.00000000       0.00000000 </v>
     <v>       0.00000000       0.10000000       0.00000000 </v>
     <v>       0.00000000       0.00000000       0.10000000 </v>
    </varray>
   </crystal>
   <varray name="positions" >
    <v>       0.50000000       0.50000000       0.50000000 </v>
   </varray>
  </structure>
  <varray name="forces" >
   <v>       0.00000000       0.00000000       0.00000000 </v>
  </varray>
  <varray name="stress" >
   <v>       0.08029109      -0.00000000       0.00000000 </v>
   <v>      -0.00000000       0.08029109       0.00000000 </v>
   <v>      -0.00000000      -0.00000000       0.08029109 </v>
  </varray>
  <energy>
   <i name="e_fr_energy">     -1.47622633 </i>
   <i name="e_wo_entrp">     -1.47622633 </i>
   <i name="e_0_energy">     -0.00000000 </i>
  </energy>
  <time name="totalsc">   31.22   31.50</time>
  <eigenvalues>
   <array>
    <dimension dim="1">band</dimension>
    <dimension dim="2">kpoint</dimension>
    <dimension dim="3">spin</dimension>
    <field>eigene</field>
    <field>occ</field>
    <set>
     <set comment="spin 1">
      <set comment="kpoint 1">
       <r>   -3.8086    1.0000 </r>
       <r>   -3.8086    1.0000 </r>
       <r>   -3.8080    1.0000 </r>
       <r>   -3.8080    1.0000 </r>
       <r>   -3.8080    1.0000 </r>
       <r>   -3.1488    0.0000 </r>
       <r>    0.0313    0.0000 </r>
       <r>    0.0387    0.0000 </r>
       <r>    0.0397    0.0000 </r>
       <r>    0.1079    0.0000 </r>
       <r>    1.1710    0.0000 </r>
       <r>    1.1710    0.0000 </r>
       <r>    1.9767    0.0000 </r>
       <r>    1.9810    0.0000 </r>
       <r>    2.0164    0.0000 </r>
       <r>    2.0299    0.0000 </r>
       <r>    2.3900    0.0000 </r>
       <r>    2.4059    0.0000 </r>
       <r>    2.4093    0.0000 </r>
       <r>    2.7106    0.0000 </r>
       <r>    2.7161    0.0000 </r>
       <r>    2.7442    0.0000 </r>
       <r>    2.7458    0.0000 </r>
       <r>    2.7478    0.0000 </r>
       <r>    3.8923    0.0000 </r>
       <r>    3.8976    0.0000 </r>
       <r>    4.0168    0.0000 </r>
       <r>    4.0189    0.0000 </r>
       <r>    4.0716    0.0000 </r>
       <r>    4.0718    0.0000 </r>
       <r>    4.0780    0.0000 </r>
       <r>    4.2969    0.0000 </r>
       <r>    5.0565    0.0000 </r>
       <r>    5.1908    0.0000 </r>
       <r>    5.9377    0.0000 </r>
       <r>    6.1981    0.0000 </r>
      </set>
     </set>
     <set comment="spin 2">
      <set comment="kpoint 1">
       <r>   -3.8081    1.0000 </r>
       <r>   -3.8081    1.0000 </r>
       <r>   -3.8076    1.0000 </r>
       <r>   -3.8076    1.0000 </r>
       <r>   -3.8076    1.0000 </r>
       <r>   -3.1497    0.0000 </r>
       <r>    0.0290    0.0000 </r>
       <r>    0.0317    0.0000 </r>
       <r>    0.0325    0.0000 </r>
       <r>    0.1107    0.0000 </r>
       <r>    1.1671    0.0000 </r>
       <r>    1.1677    0.0000 </r>
       <r>    1.9713    0.0000 </r>
       <r>    1.9731    0.0000 </r>
       <r>    1.9877    0.0000 </r>
       <r>    2.0147    0.0000 </r>
       <r>    2.4020    0.0000 </r>
       <r>    2.4049    0.0000 </r>
       <r>    2.4087    0.0000 </r>
       <r>    2.7156    0.0000 </r>
       <r>    2.7214    0.0000 </r>
       <r>    2.7404    0.0000 </r>
       <r>    2.7428    0.0000 </r>
       <r>    2.7437    0.0000 </r>
       <r>    3.9260    0.0000 </r>
       <r>    3.9361    0.0000 </r>
       <r>    4.0144    0.0000 </r>
       <r>    4.0170    0.0000 </r>
       <r>    4.0655    0.0000 </r>
       <r>    4.0714    0.0000 </r>
       <r>    4.0761    0.0000 </r>
       <r>    4.5778    0.0000 </r>
       <r>    4.9166    0.0000 </r>
       <r>    5.0780    0.0000 </r>
       <r>    5.1232    0.0000 </r>
       <r>    5.9859    0.0000 </r>
      </set>
     </set>
    </set>
   </array>
  </eigenvalues>
  <separator name="orbital magnetization" >
   <v name="MAGDIPOLOUT">      0.00000000      0.00000000      0.00000000</v>
  </separator>
  <dos>
   <i name="efermi">     -3.53780358 </i>
   <total>
    <array>
     <dimension dim="1">gridpoints</dimension>
     <dimension dim="2">spin</dimension>
     <field>energy</field>
     <field>total</field>
     <field>integrated</field>
     <set>
      <set comment="spin 1">
       <r>    -4.3089     0.0000     0.0000 </r>
       <r>    -4.2722     0.0000     0.0000 </r>
       <r>    -4.2355     0.0000     0.0000 </r>
       <r>    -4.1988     0.0000     0.0000 </r>
       <r>    -4.1621     0.0000     0.0000 </r>
       <r>    -4.1254     0.0000     0.0000 </r>
       <r>    -4.0887     0.0000     0.0000 </r>
       <r>    -4.0521     0.0000     0.0000 </r>
       <r>    -4.0154     0.0000     0.0000 </r>
       <r>    -3.9787     0.0001     0.0000 </r>
       <r>    -3.9420     0.0105     0.0004 </r>
       <r>    -3.9053     0.4015     0.0151 </r>
       <r>    -3.8686     5.5666     0.2194 </r>
       <r>    -3.8319    28.2991     1.2577 </r>
       <r>    -3.7952    53.4272     3.2180 </r>
       <r>    -3.7585    37.6816     4.6006 </r>
       <r>    -3.7218     9.8953     4.9636 </r>
       <r>    -3.6851     0.9568     4.9988 </r>
       <r>    -3.6485     0.0336     5.0000 </r>
       <r>    -3.6118     0.0004     5.0000 </r>
       <r>    -3.5751     0.0000     5.0000 </r>
       <r>    -3.5384     0.0000     5.0000 </r>
       <r>    -3.5017     0.0000     5.0000 </r>
       <r>    -3.4650     0.0000     5.0000 </r>
       <r>    -3.4283     0.0000     5.0000 </r>
       <r>    -3.3916     0.0000     5.0000 </r>
       <r>    -3.3549     0.0000     5.0000 </r>
       <r>    -3.3182     0.0000     5.0000 </r>
       <r>    -3.2815     0.0023     5.0001 </r>
       <r>    -3.2448     0.0875     5.0033 </r>
       <r>    -3.2082     1.1797     5.0466 </r>
       <r>    -3.1715     5.8359     5.2607 </r>
       <r>    -3.1348    10.7238     5.6542 </r>
       <r>    -3.0981     7.3614     5.9243 </r>
       <r>    -3.0614     1.8810     5.9933 </r>
       <r>    -3.0247     0.1769     5.9998 </r>
       <r>    -2.9880     0.0060     6.0000 </r>
       <r>    -2.9513     0.0001     6.0000 </r>
       <r>    -2.9146     0.0000     6.0000 </r>
       <r>    -2.8779     0.0000     6.0000 </r>
       <r>    -2.8412     0.0000     6.0000 </r>
       <r>    -2.8046     0.0000     6.0000 </r>
       <r>    -2.7679     0.0000     6.0000 </r>
       <r>    -2.7312     0.0000     6.0000 </r>
       <r>    -2.6945     0.0000     6.0000 </r>
       <r>    -2.6578     0.0000     6.0000 </r>
       <r>    -2.6211     0.0000     6.0000 </r>
       <r>    -2.5844     0.0000     6.0000 </r>
       <r>    -2.5477     0.0000     6.0000 </r>
       <r>    -2.5110     0.0000     6.0000 </r>
       <r>    -2.4743     0.0000     6.0000 </r>
       <r>    -2.4376     0.0000     6.0000 </r>
       <r>    -2.4010     0.0000     6.0000 </r>
       <r>    -2.3643     0.0000     6.0000 </r>
       <r>    -2.3276     0.0000     6.0000 </r>
       <r>    -2.2909     0.0000     6.0000 </r>
       <r>    -2.2542     0.0000     6.0000 </r>
       <r>    -2.2175     0.0000     6.0000 </r>
       <r>    -2.1808     0.0000     6.0000 </r>
       <r>    -2.1441     0.0000     6.0000 </r>
       <r>    -2.1074     0.0000     6.0000 </r>
       <r>    -2.0707     0.0000     6.0000 </r>
       <r>    -2.0340     0.0000     6.0000 </r>
       <r>    -1.9973     0.0000     6.0000 </r>
       <r>    -1.9607     0.0000     6.0000 </r>
       <r>    -1.9240     0.0000     6.0000 </r>
       <r>    -1.8873     0.0000     6.0000 </r>
       <r>    -1.8506     0.0000     6.0000 </r>
       <r>    -1.8139     0.0000     6.0000 </r>
       <r>    -1.7772     0.0000     6.0000 </r>
       <r>    -1.7405     0.0000     6.0000 </r>
       <r>    -1.7038     0.0000     6.0000 </r>
       <r>    -1.6671     0.0000     6.0000 </r>
       <r>    -1.6304     0.0000     6.0000 </r>
       <r>    -1.5937     0.0000     6.0000 </r>
       <r>    -1.5571     0.0000     6.0000 </r>
       <r>    -1.5204     0.0000     6.0000 </r>
       <r>    -1.4837     0.0000     6.0000 </r>
       <r>    -1.4470     0.0000     6.0000 </r>
       <r>    -1.4103     0.0000     6.0000 </r>
       <r>    -1.3736     0.0000     6.0000 </r>
       <r>    -1.3369     0.0000     6.0000 </r>
       <r>    -1.3002     0.0000     6.0000 </r>
       <r>    -1.2635     0.0000     6.0000 </r>
       <r>    -1.2268     0.0000     6.0000 </r>
       <r>    -1.1901     0.0000     6.0000 </r>
       <r>    -1.1535     0.0000     6.0000 </r>
       <r>    -1.1168     0.0000     6.0000 </r>
       <r>    -1.0801     0.0000     6.0000 </r>
       <r>    -1.0434     0.0000     6.0000 </r>
       <r>    -1.0067     0.0000     6.0000 </r>
       <r>    -0.9700     0.0000     6.0000 </r>
       <r>    -0.9333     0.0000     6.0000 </r>
       <r>    -0.8966     0.0000     6.0000 </r>
       <r>    -0.8599     0.0000     6.0000 </r>
       <r>    -0.8232     0.0000     6.0000 </r>
       <r>    -0.7865     0.0000     6.0000 </r>
       <r>    -0.7499     0.0000     6.0000 </r>
       <r>    -0.7132     0.0000     6.0000 </r>
       <r>    -0.6765     0.0000     6.0000 </r>
       <r>    -0.6398     0.0000     6.0000 </r>
       <r>    -0.6031     0.0000     6.0000 </r>
       <r>    -0.5664     0.0000     6.0000 </r>
       <r>    -0.5297     0.0000     6.0000 </r>
       <r>    -0.4930     0.0000     6.0000 </r>
       <r>    -0.4563     0.0000     6.0000 </r>
       <r>    -0.4196     0.0000     6.0000 </r>
       <r>    -0.3829     0.0000     6.0000 </r>
       <r>    -0.3462     0.0000     6.0000 </r>
       <r>    -0.3096     0.0000     6.0000 </r>
       <r>    -0.2729     0.0000     6.0000 </r>
       <r>    -0.2362     0.0000     6.0000 </r>
       <r>    -0.1995     0.0000     6.0000 </r>
       <r>    -0.1628     0.0000     6.0000 </r>
       <r>    -0.1261     0.0002     6.0000 </r>
       <r>    -0.0894     0.0161     6.0006 </r>
       <r>    -0.0527     0.4777     6.0181 </r>
       <r>    -0.0160     5.2087     6.2092 </r>
       <r>     0.0207    21.2687     6.9896 </r>
       <r>     0.0574    34.0493     8.2389 </r>
       <r>     0.0940    25.8854     9.1887 </r>
       <r>     0.1307    14.7123     9.7285 </r>
       <r>     0.1674     6.1312     9.9535 </r>
       <r>     0.2041     1.1798     9.9967 </r>
       <r>     0.2408     0.0866     9.9999 </r>
       <r>     0.2775     0.0023    10.0000 </r>
       <r>     0.3142     0.0000    10.0000 </r>
       <r>     0.3509     0.0000    10.0000 </r>
       <r>     0.3876     0.0000    10.0000 </r>
       <r>     0.4243     0.0000    10.0000 </r>
       <r>     0.4610     0.0000    10.0000 </r>
       <r>     0.4976     0.0000    10.0000 </r>
       <r>     0.5343     0.0000    10.0000 </r>
       <r>     0.5710     0.0000    10.0000 </r>
       <r>     0.6077     0.0000    10.0000 </r>
       <r>     0.6444     0.0000    10.0000 </r>
       <r>     0.6811     0.0000    10.0000 </r>
       <r>     0.7178     0.0000    10.0000 </r>
       <r>     0.7545     0.0000    10.0000 </r>
       <r>     0.7912     0.0000    10.0000 </r>
       <r>     0.8279     0.0000    10.0000 </r>
       <r>     0.8646     0.0000    10.0000 </r>
       <r>     0.9012     0.0000    10.0000 </r>
       <r>     0.9379     0.0000    10.0000 </r>
       <r>     0.9746     0.0000    10.0000 </r>
       <r>     1.0113     0.0002    10.0000 </r>
       <r>     1.0480     0.0136    10.0005 </r>
       <r>     1.0847     0.3856    10.0147 </r>
       <r>     1.1214     3.9777    10.1606 </r>
       <r>     1.1581    15.1074    10.7149 </r>
       <r>     1.1948    21.3630    11.4987 </r>
       <r>     1.2315    11.2847    11.9128 </r>
       <r>     1.2682     2.2135    11.9940 </r>
       <r>     1.3049     0.1592    11.9998 </r>
       <r>     1.3415     0.0041    12.0000 </r>
       <r>     1.3782     0.0000    12.0000 </r>
       <r>     1.4149     0.0000    12.0000 </r>
       <r>     1.4516     0.0000    12.0000 </r>
       <r>     1.4883     0.0000    12.0000 </r>
       <r>     1.5250     0.0000    12.0000 </r>
       <r>     1.5617     0.0000    12.0000 </r>
       <r>     1.5984     0.0000    12.0000 </r>
       <r>     1.6351     0.0000    12.0000 </r>
       <r>     1.6718     0.0000    12.0000 </r>
       <r>     1.7085     0.0000    12.0000 </r>
       <r>     1.7451     0.0000    12.0000 </r>
       <r>     1.7818     0.0000    12.0000 </r>
       <r>     1.8185     0.0002    12.0000 </r>
       <r>     1.8552     0.0131    12.0005 </r>
       <r>     1.8919     0.3789    12.0144 </r>
       <r>     1.9286     4.0973    12.1647 </r>
       <r>     1.9653    17.5917    12.8102 </r>
       <r>     2.0020    33.6076    14.0433 </r>
       <r>     2.0387    32.6911    15.2428 </r>
       <r>     2.0754    16.4633    15.8468 </r>
       <r>     2.1121     3.8038    15.9864 </r>
       <r>     2.1487     0.3582    15.9995 </r>
       <r>     2.1854     0.0129    16.0000 </r>
       <r>     2.2221     0.0002    16.0000 </r>
       <r>     2.2588     0.0035    16.0001 </r>
       <r>     2.2955     0.1412    16.0053 </r>
       <r>     2.3322     2.1521    16.0843 </r>
       <r>     2.3689    12.6851    16.5497 </r>
       <r>     2.4056    29.3165    17.6254 </r>
       <r>     2.4423    26.6551    18.6034 </r>
       <r>     2.4790     9.4568    18.9503 </r>
       <r>     2.5157     1.2864    18.9975 </r>
       <r>     2.5524     0.0658    19.0000 </r>
       <r>     2.5890     0.0139    19.0005 </r>
       <r>     2.6257     0.3828    19.0145 </r>
       <r>     2.6624     4.4671    19.1784 </r>
       <r>     2.6991    21.4850    19.9667 </r>
       <r>     2.7358    45.4726    21.6352 </r>
       <r>     2.7725    43.3337    23.2251 </r>
       <r>     2.8092    17.9104    23.8823 </r>
       <r>     2.8459     3.0095    23.9927 </r>
       <r>     2.8826     0.1942    23.9998 </r>
       <r>     2.9193     0.0046    24.0000 </r>
       <r>     2.9560     0.0000    24.0000 </r>
       <r>     2.9926     0.0000    24.0000 </r>
       <r>     3.0293     0.0000    24.0000 </r>
       <r>     3.0660     0.0000    24.0000 </r>
       <r>     3.1027     0.0000    24.0000 </r>
       <r>     3.1394     0.0000    24.0000 </r>
       <r>     3.1761     0.0000    24.0000 </r>
       <r>     3.2128     0.0000    24.0000 </r>
       <r>     3.2495     0.0000    24.0000 </r>
       <r>     3.2862     0.0000    24.0000 </r>
       <r>     3.3229     0.0000    24.0000 </r>
       <r>     3.3596     0.0000    24.0000 </r>
       <r>     3.3962     0.0000    24.0000 </r>
       <r>     3.4329     0.0000    24.0000 </r>
       <r>     3.4696     0.0000    24.0000 </r>
       <r>     3.5063     0.0000    24.0000 </r>
       <r>     3.5430     0.0000    24.0000 </r>
       <r>     3.5797     0.0000    24.0000 </r>
       <r>     3.6164     0.0000    24.0000 </r>
       <r>     3.6531     0.0000    24.0000 </r>
       <r>     3.6898     0.0000    24.0000 </r>
       <r>     3.7265     0.0001    24.0000 </r>
       <r>     3.7632     0.0055    24.0002 </r>
       <r>     3.7998     0.1945    24.0073 </r>
       <r>     3.8365     2.5177    24.0997 </r>
       <r>     3.8732    12.0271    24.5410 </r>
       <r>     3.9099    21.5133    25.3303 </r>
       <r>     3.9466    15.5180    25.8997 </r>
       <r>     3.9833    11.7801    26.3319 </r>
       <r>     4.0200    24.7964    27.2418 </r>
       <r>     4.0567    38.9919    28.6724 </r>
       <r>     4.0934    38.8009    30.0961 </r>
       <r>     4.1301    19.9883    30.8295 </r>
       <r>     4.1668     4.2912    30.9869 </r>
       <r>     4.2035     0.4580    31.0037 </r>
       <r>     4.2401     1.3732    31.0541 </r>
       <r>     4.2768     6.2882    31.2848 </r>
       <r>     4.3135    10.7851    31.6805 </r>
       <r>     4.3502     6.9107    31.9341 </r>
       <r>     4.3869     1.6473    31.9945 </r>
       <r>     4.4236     0.1444    31.9998 </r>
       <r>     4.4603     0.0046    32.0000 </r>
       <r>     4.4970     0.0001    32.0000 </r>
       <r>     4.5337     0.0000    32.0000 </r>
       <r>     4.5704     0.0000    32.0000 </r>
       <r>     4.6071     0.0000    32.0000 </r>
       <r>     4.6437     0.0000    32.0000 </r>
       <r>     4.6804     0.0000    32.0000 </r>
       <r>     4.7171     0.0000    32.0000 </r>
       <r>     4.7538     0.0000    32.0000 </r>
       <r>     4.7905     0.0000    32.0000 </r>
       <r>     4.8272     0.0000    32.0000 </r>
       <r>     4.8639     0.0000    32.0000 </r>
       <r>     4.9006     0.0001    32.0000 </r>
       <r>     4.9373     0.0100    32.0004 </r>
       <r>     4.9740     0.2566    32.0098 </r>
       <r>     5.0107     2.3875    32.0974 </r>
       <r>     5.0473     8.1908    32.3979 </r>
       <r>     5.0840    10.5024    32.7833 </r>
       <r>     5.1207     5.6087    32.9891 </r>
       <r>     5.1574     4.9346    33.1701 </r>
       <r>     5.1941     9.9943    33.5368 </r>
       <r>     5.2308     9.1034    33.8708 </r>
       <r>     5.2675     3.1096    33.9849 </r>
       <r>     5.3042     0.3925    33.9993 </r>
       <r>     5.3409     0.0180    34.0000 </r>
       <r>     5.3776     0.0003    34.0000 </r>
       <r>     5.4143     0.0000    34.0000 </r>
       <r>     5.4509     0.0000    34.0000 </r>
       <r>     5.4876     0.0000    34.0000 </r>
       <r>     5.5243     0.0000    34.0000 </r>
       <r>     5.5610     0.0000    34.0000 </r>
       <r>     5.5977     0.0000    34.0000 </r>
       <r>     5.6344     0.0000    34.0000 </r>
       <r>     5.6711     0.0000    34.0000 </r>
       <r>     5.7078     0.0000    34.0000 </r>
       <r>     5.7445     0.0000    34.0000 </r>
       <r>     5.7812     0.0001    34.0000 </r>
       <r>     5.8179     0.0094    34.0004 </r>
       <r>     5.8546     0.2456    34.0094 </r>
       <r>     5.8912     2.3219    34.0946 </r>
       <r>     5.9279     8.0929    34.3915 </r>
       <r>     5.9646    10.5089    34.7771 </r>
       <r>     6.0013     5.0967    34.9641 </r>
       <r>     6.0380     0.9172    34.9977 </r>
       <r>     6.0747     0.0669    35.0002 </r>
       <r>     6.1114     0.1880    35.0071 </r>
       <r>     6.1481     1.9467    35.0785 </r>
       <r>     6.1848     7.4796    35.3529 </r>
       <r>     6.2215    10.6989    35.7455 </r>
       <r>     6.2582     5.7169    35.9553 </r>
       <r>     6.2948     1.1345    35.9969 </r>
       <r>     6.3315     0.0826    35.9999 </r>
       <r>     6.3682     0.0022    36.0000 </r>
       <r>     6.4049     0.0000    36.0000 </r>
       <r>     6.4416     0.0000    36.0000 </r>
       <r>     6.4783     0.0000    36.0000 </r>
       <r>     6.5150     0.0000    36.0000 </r>
       <r>     6.5517     0.0000    36.0000 </r>
       <r>     6.5884     0.0000    36.0000 </r>
       <r>     6.6251     0.0000    36.0000 </r>
       <r>     6.6618     0.0000    36.0000 </r>
       <r>     6.6984     0.0000    36.0000 </r>
      </set>
      <set comment="spin 2">
       <r>    -4.3089     0.0000     0.0000 </r>
       <r>    -4.2722     0.0000     0.0000 </r>
       <r>    -4.2355     0.0000     0.0000 </r>
       <r>    -4.1988     0.0000     0.0000 </r>
       <r>    -4.1621     0.0000     0.0000 </r>
       <r>    -4.1254     0.0000     0.0000 </r>
       <r>    -4.0887     0.0000     0.0000 </r>
       <r>    -4.0521     0.0000     0.0000 </r>
       <r>    -4.0154     0.0000     0.0000 </r>
       <r>    -3.9787     0.0001     0.0000 </r>
       <r>    -3.9420     0.0100     0.0004 </r>
       <r>    -3.9053     0.3869     0.0146 </r>
       <r>    -3.8686     5.4278     0.2137 </r>
       <r>    -3.8319    27.9211     1.2382 </r>
       <r>    -3.7952    53.3332     3.1950 </r>
       <r>    -3.7585    38.0567     4.5914 </r>
       <r>    -3.7218    10.1119     4.9624 </r>
       <r>    -3.6851     0.9895     4.9987 </r>
       <r>    -3.6485     0.0351     5.0000 </r>
       <r>    -3.6118     0.0004     5.0000 </r>
       <r>    -3.5751     0.0000     5.0000 </r>
       <r>    -3.5384     0.0000     5.0000 </r>
       <r>    -3.5017     0.0000     5.0000 </r>
       <r>    -3.4650     0.0000     5.0000 </r>
       <r>    -3.4283     0.0000     5.0000 </r>
       <r>    -3.3916     0.0000     5.0000 </r>
       <r>    -3.3549     0.0000     5.0000 </r>
       <r>    -3.3182     0.0000     5.0000 </r>
       <r>    -3.2815     0.0026     5.0001 </r>
       <r>    -3.2448     0.0945     5.0036 </r>
       <r>    -3.2082     1.2429     5.0492 </r>
       <r>    -3.1715     5.9974     5.2692 </r>
       <r>    -3.1348    10.7516     5.6637 </r>
       <r>    -3.0981     7.2006     5.9279 </r>
       <r>    -3.0614     1.7947     5.9938 </r>
       <r>    -3.0247     0.1646     5.9998 </r>
       <r>    -2.9880     0.0055     6.0000 </r>
       <r>    -2.9513     0.0001     6.0000 </r>
       <r>    -2.9146     0.0000     6.0000 </r>
       <r>    -2.8779     0.0000     6.0000 </r>
       <r>    -2.8412     0.0000     6.0000 </r>
       <r>    -2.8046     0.0000     6.0000 </r>
       <r>    -2.7679     0.0000     6.0000 </r>
       <r>    -2.7312     0.0000     6.0000 </r>
       <r>    -2.6945     0.0000     6.0000 </r>
       <r>    -2.6578     0.0000     6.0000 </r>
       <r>    -2.6211     0.0000     6.0000 </r>
       <r>    -2.5844     0.0000     6.0000 </r>
       <r>    -2.5477     0.0000     6.0000 </r>
       <r>    -2.5110     0.0000     6.0000 </r>
       <r>    -2.4743     0.0000     6.0000 </r>
       <r>    -2.4376     0.0000     6.0000 </r>
       <r>    -2.4010     0.0000     6.0000 </r>
       <r>    -2.3643     0.0000     6.0000 </r>
       <r>    -2.3276     0.0000     6.0000 </r>
       <r>    -2.2909     0.0000     6.0000 </r>
       <r>    -2.2542     0.0000     6.0000 </r>
       <r>    -2.2175     0.0000     6.0000 </r>
       <r>    -2.1808     0.0000     6.0000 </r>
       <r>    -2.1441     0.0000     6.0000 </r>
       <r>    -2.1074     0.0000     6.0000 </r>
       <r>    -2.0707     0.0000     6.0000 </r>
       <r>    -2.0340     0.0000     6.0000 </r>
       <r>    -1.9973     0.0000     6.0000 </r>
       <r>    -1.9607     0.0000     6.0000 </r>
       <r>    -1.9240     0.0000     6.0000 </r>
       <r>    -1.8873     0.0000     6.0000 </r>
       <r>    -1.8506     0.0000     6.0000 </r>
       <r>    -1.8139     0.0000     6.0000 </r>
       <r>    -1.7772     0.0000     6.0000 </r>
       <r>    -1.7405     0.0000     6.0000 </r>
       <r>    -1.7038     0.0000     6.0000 </r>
       <r>    -1.6671     0.0000     6.0000 </r>
       <r>    -1.6304     0.0000     6.0000 </r>
       <r>    -1.5937     0.0000     6.0000 </r>
       <r>    -1.5571     0.0000     6.0000 </r>
       <r>    -1.5204     0.0000     6.0000 </r>
       <r>    -1.4837     0.0000     6.0000 </r>
       <r>    -1.4470     0.0000     6.0000 </r>
       <r>    -1.4103     0.0000     6.0000 </r>
       <r>    -1.3736     0.0000     6.0000 </r>
       <r>    -1.3369     0.0000     6.0000 </r>
       <r>    -1.3002     0.0000     6.0000 </r>
       <r>    -1.2635     0.0000     6.0000 </r>
       <r>    -1.2268     0.0000     6.0000 </r>
       <r>    -1.1901     0.0000     6.0000 </r>
       <r>    -1.1535     0.0000     6.0000 </r>
       <r>    -1.1168     0.0000     6.0000 </r>
       <r>    -1.0801     0.0000     6.0000 </r>
       <r>    -1.0434     0.0000     6.0000 </r>
       <r>    -1.0067     0.0000     6.0000 </r>
       <r>    -0.9700     0.0000     6.0000 </r>
       <r>    -0.9333     0.0000     6.0000 </r>
       <r>    -0.8966     0.0000     6.0000 </r>
       <r>    -0.8599     0.0000     6.0000 </r>
       <r>    -0.8232     0.0000     6.0000 </r>
       <r>    -0.7865     0.0000     6.0000 </r>
       <r>    -0.7499     0.0000     6.0000 </r>
       <r>    -0.7132     0.0000     6.0000 </r>
       <r>    -0.6765     0.0000     6.0000 </r>
       <r>    -0.6398     0.0000     6.0000 </r>
       <r>    -0.6031     0.0000     6.0000 </r>
       <r>    -0.5664     0.0000     6.0000 </r>
       <r>    -0.5297     0.0000     6.0000 </r>
       <r>    -0.4930     0.0000     6.0000 </r>
       <r>    -0.4563     0.0000     6.0000 </r>
       <r>    -0.4196     0.0000     6.0000 </r>
       <r>    -0.3829     0.0000     6.0000 </r>
       <r>    -0.3462     0.0000     6.0000 </r>
       <r>    -0.3096     0.0000     6.0000 </r>
       <r>    -0.2729     0.0000     6.0000 </r>
       <r>    -0.2362     0.0000     6.0000 </r>
       <r>    -0.1995     0.0000     6.0000 </r>
       <r>    -0.1628     0.0000     6.0000 </r>
       <r>    -0.1261     0.0004     6.0000 </r>
       <r>    -0.0894     0.0268     6.0010 </r>
       <r>    -0.0527     0.7055     6.0269 </r>
       <r>    -0.0160     6.7680     6.2752 </r>
       <r>     0.0207    24.0861     7.1590 </r>
       <r>     0.0574    33.2665     8.3795 </r>
       <r>     0.0940    22.5249     9.2060 </r>
       <r>     0.1307    13.6570     9.7071 </r>
       <r>     0.1674     6.4967     9.9455 </r>
       <r>     0.2041     1.3739     9.9959 </r>
       <r>     0.2408     0.1093     9.9999 </r>
       <r>     0.2775     0.0032    10.0000 </r>
       <r>     0.3142     0.0000    10.0000 </r>
       <r>     0.3509     0.0000    10.0000 </r>
       <r>     0.3876     0.0000    10.0000 </r>
       <r>     0.4243     0.0000    10.0000 </r>
       <r>     0.4610     0.0000    10.0000 </r>
       <r>     0.4976     0.0000    10.0000 </r>
       <r>     0.5343     0.0000    10.0000 </r>
       <r>     0.5710     0.0000    10.0000 </r>
       <r>     0.6077     0.0000    10.0000 </r>
       <r>     0.6444     0.0000    10.0000 </r>
       <r>     0.6811     0.0000    10.0000 </r>
       <r>     0.7178     0.0000    10.0000 </r>
       <r>     0.7545     0.0000    10.0000 </r>
       <r>     0.7912     0.0000    10.0000 </r>
       <r>     0.8279     0.0000    10.0000 </r>
       <r>     0.8646     0.0000    10.0000 </r>
       <r>     0.9012     0.0000    10.0000 </r>
       <r>     0.9379     0.0000    10.0000 </r>
       <r>     0.9746     0.0000    10.0000 </r>
       <r>     1.0113     0.0003    10.0000 </r>
       <r>     1.0480     0.0197    10.0007 </r>
       <r>     1.0847     0.5068    10.0193 </r>
       <r>     1.1214     4.7368    10.1931 </r>
       <r>     1.1581    16.3235    10.7921 </r>
       <r>     1.1948    20.9607    11.5611 </r>
       <r>     1.2315    10.0531    11.9300 </r>
       <r>     1.2682     1.7888    11.9956 </r>
       <r>     1.3049     0.1165    11.9999 </r>
       <r>     1.3415     0.0027    12.0000 </r>
       <r>     1.3782     0.0000    12.0000 </r>
       <r>     1.4149     0.0000    12.0000 </r>
       <r>     1.4516     0.0000    12.0000 </r>
       <r>     1.4883     0.0000    12.0000 </r>
       <r>     1.5250     0.0000    12.0000 </r>
       <r>     1.5617     0.0000    12.0000 </r>
       <r>     1.5984     0.0000    12.0000 </r>
       <r>     1.6351     0.0000    12.0000 </r>
       <r>     1.6718     0.0000    12.0000 </r>
       <r>     1.7085     0.0000    12.0000 </r>
       <r>     1.7451     0.0000    12.0000 </r>
       <r>     1.7818     0.0000    12.0000 </r>
       <r>     1.8185     0.0004    12.0000 </r>
       <r>     1.8552     0.0277    12.0010 </r>
       <r>     1.8919     0.7022    12.0268 </r>
       <r>     1.9286     6.6880    12.2722 </r>
       <r>     1.9653    24.9788    13.1887 </r>
       <r>     2.0020    38.8963    14.6158 </r>
       <r>     2.0387    27.2547    15.6158 </r>
       <r>     2.0754     9.0174    15.9467 </r>
       <r>     2.1121     1.3641    15.9968 </r>
       <r>     2.1487     0.0864    15.9999 </r>
       <r>     2.1854     0.0021    16.0000 </r>
       <r>     2.2221     0.0000    16.0000 </r>
       <r>     2.2588     0.0015    16.0001 </r>
       <r>     2.2955     0.0793    16.0030 </r>
       <r>     2.3322     1.5337    16.0592 </r>
       <r>     2.3689    10.8837    16.4586 </r>
       <r>     2.4056    28.7256    17.5125 </r>
       <r>     2.4423    28.4416    18.5561 </r>
       <r>     2.4790    10.5637    18.9437 </r>
       <r>     2.5157     1.4592    18.9972 </r>
       <r>     2.5524     0.0740    19.0000 </r>
       <r>     2.5890     0.0090    19.0003 </r>
       <r>     2.6257     0.2754    19.0104 </r>
       <r>     2.6624     3.8003    19.1498 </r>
       <r>     2.6991    20.9368    19.9180 </r>
       <r>     2.7358    47.3658    21.6559 </r>
       <r>     2.7725    44.3188    23.2820 </r>
       <r>     2.8092    16.8811    23.9014 </r>
       <r>     2.8459     2.5382    23.9945 </r>
       <r>     2.8826     0.1455    23.9999 </r>
       <r>     2.9193     0.0031    24.0000 </r>
       <r>     2.9560     0.0000    24.0000 </r>
       <r>     2.9926     0.0000    24.0000 </r>
       <r>     3.0293     0.0000    24.0000 </r>
       <r>     3.0660     0.0000    24.0000 </r>
       <r>     3.1027     0.0000    24.0000 </r>
       <r>     3.1394     0.0000    24.0000 </r>
       <r>     3.1761     0.0000    24.0000 </r>
       <r>     3.2128     0.0000    24.0000 </r>
       <r>     3.2495     0.0000    24.0000 </r>
       <r>     3.2862     0.0000    24.0000 </r>
       <r>     3.3229     0.0000    24.0000 </r>
       <r>     3.3596     0.0000    24.0000 </r>
       <r>     3.3962     0.0000    24.0000 </r>
       <r>     3.4329     0.0000    24.0000 </r>
       <r>     3.4696     0.0000    24.0000 </r>
       <r>     3.5063     0.0000    24.0000 </r>
       <r>     3.5430     0.0000    24.0000 </r>
       <r>     3.5797     0.0000    24.0000 </r>
       <r>     3.6164     0.0000    24.0000 </r>
       <r>     3.6531     0.0000    24.0000 </r>
       <r>     3.6898     0.0000    24.0000 </r>
       <r>     3.7265     0.0000    24.0000 </r>
       <r>     3.7632     0.0001    24.0000 </r>
       <r>     3.7998     0.0064    24.0002 </r>
       <r>     3.8365     0.2152    24.0081 </r>
       <r>     3.8732     2.6555    24.1056 </r>
       <r>     3.9099    12.3062    24.5571 </r>
       <r>     3.9466    22.6621    25.3886 </r>
       <r>     3.9833    23.1193    26.2369 </r>
       <r>     4.0200    29.2946    27.3117 </r>
       <r>     4.0567    40.1341    28.7843 </r>
       <r>     4.0934    37.9539    30.1769 </r>
       <r>     4.1301    18.4234    30.8528 </r>
       <r>     4.1668     3.7170    30.9892 </r>
       <r>     4.2035     0.2858    30.9997 </r>
       <r>     4.2401     0.0081    31.0000 </r>
       <r>     4.2768     0.0001    31.0000 </r>
       <r>     4.3135     0.0000    31.0000 </r>
       <r>     4.3502     0.0000    31.0000 </r>
       <r>     4.3869     0.0000    31.0000 </r>
       <r>     4.4236     0.0002    31.0000 </r>
       <r>     4.4603     0.0120    31.0004 </r>
       <r>     4.4970     0.2918    31.0112 </r>
       <r>     4.5337     2.5887    31.1061 </r>
       <r>     4.5704     8.4726    31.4170 </r>
       <r>     4.6071    10.3355    31.7962 </r>
       <r>     4.6437     4.7083    31.9690 </r>
       <r>     4.6804     0.7952    31.9982 </r>
       <r>     4.7171     0.0491    32.0000 </r>
       <r>     4.7538     0.0012    32.0000 </r>
       <r>     4.7905     0.0049    32.0002 </r>
       <r>     4.8272     0.1506    32.0057 </r>
       <r>     4.8639     1.6936    32.0678 </r>
       <r>     4.9006     7.0038    32.3248 </r>
       <r>     4.9373    10.7776    32.7203 </r>
       <r>     4.9740     6.2387    32.9492 </r>
       <r>     5.0107     2.0743    33.0253 </r>
       <r>     5.0473     5.0098    33.2091 </r>
       <r>     5.0840    13.4407    33.7022 </r>
       <r>     5.1207    17.9006    34.3590 </r>
       <r>     5.1574    12.5967    34.8212 </r>
       <r>     5.1941     4.2474    34.9771 </r>
       <r>     5.2308     0.5931    34.9988 </r>
       <r>     5.2675     0.0314    35.0000 </r>
       <r>     5.3042     0.0006    35.0000 </r>
       <r>     5.3409     0.0000    35.0000 </r>
       <r>     5.3776     0.0000    35.0000 </r>
       <r>     5.4143     0.0000    35.0000 </r>
       <r>     5.4509     0.0000    35.0000 </r>
       <r>     5.4876     0.0000    35.0000 </r>
       <r>     5.5243     0.0000    35.0000 </r>
       <r>     5.5610     0.0000    35.0000 </r>
       <r>     5.5977     0.0000    35.0000 </r>
       <r>     5.6344     0.0000    35.0000 </r>
       <r>     5.6711     0.0000    35.0000 </r>
       <r>     5.7078     0.0000    35.0000 </r>
       <r>     5.7445     0.0000    35.0000 </r>
       <r>     5.7812     0.0000    35.0000 </r>
       <r>     5.8179     0.0000    35.0000 </r>
       <r>     5.8546     0.0027    35.0001 </r>
       <r>     5.8912     0.0980    35.0037 </r>
       <r>     5.9279     1.2733    35.0504 </r>
       <r>     5.9646     6.0727    35.2732 </r>
       <r>     6.0013    10.7624    35.6681 </r>
       <r>     6.0380     7.1255    35.9296 </r>
       <r>     6.0747     1.7555    35.9940 </r>
       <r>     6.1114     0.1591    35.9998 </r>
       <r>     6.1481     0.0052    36.0000 </r>
       <r>     6.1848     0.0001    36.0000 </r>
       <r>     6.2215     0.0000    36.0000 </r>
       <r>     6.2582     0.0000    36.0000 </r>
       <r>     6.2948     0.0000    36.0000 </r>
       <r>     6.3315     0.0000    36.0000 </r>
       <r>     6.3682     0.0000    36.0000 </r>
       <r>     6.4049     0.0000    36.0000 </r>
       <r>     6.4416     0.0000    36.0000 </r>
       <r>     6.4783     0.0000    36.0000 </r>
       <r>     6.5150     0.0000    36.0000 </r>
       <r>     6.5517     0.0000    36.0000 </r>
       <r>     6.5884     0.0000    36.0000 </r>
       <r>     6.6251     0.0000    36.0000 </r>
       <r>     6.6618     0.0000    36.0000 </r>
       <r>     6.6984     0.0000    36.0000 </r>
      </set>
     </set>
    </array>
   </total>
   <partial>
    <array>
     <dimension dim="1">gridpoints</dimension>
     <dimension dim="2">spin</dimension>
     <dimension dim="3">ion</dimension>
     <field>energy</field>
     <field>    s</field>
     <field>   py</field>
     <field>   pz</field>
     <field>   px</field>
     <field>  dxy</field>
     <field>  dyz</field>
     <field>  dz2</field>
     <field>  dxz</field>
     <field>x2-y2</field>
     <set>
      <set comment="ion 1">
       <set comment="spin 1">
        <r>    -4.3089     0.0000     0.0000     0.0000     0.0000     0.0000     0.0000     0.0000     0.0000     0.0000 </r>
        <r>    -4.2722     0.0000     0.0000     0.0000     0.0000     0.0000     0.0000     0.0000     0.0000     0.0000 </r>
        <r>    -4.2355     0.0000     0.0000     0.0000     0.0000     0.0000     0.0000     0.0000     0.0000     0.0000 </r>
        <r>    -4.1988     0.0000     0.0000     0.0000     0.0000     0.0000     0.0000     0.0000     0.0000     0.0000 </r>
        <r>    -4.1621     0.0000     0.0000     0.0000     0.0000     0.0000     0.0000     0.0000     0.0000     0.0000 </r>
        <r>    -4.1254     0.0000     0.0000     0.0000     0.0000     0.0000     0.0000     0.0000     0.0000     0.0000 </r>
        <r>    -4.0887     0.0000     0.0000     0.0000     0.0000     0.0000     0.0000     0.0000     0.0000     0.0000 </r>
        <r>    -4.0521     0.0000     0.0000     0.0000     0.0000     0.0000     0.0000     0.0000     0.0000     0.0000 </r>
        <r>    -4.0154     0.0000     0.0000     0.0000     0.0000     0.0000     0.0000     0.0000     0.0000     0.0000 </r>
        <r>    -3.9787     0.0000     0.0000     0.0000     0.0000     0.0000     0.0000     0.0000     0.0000     0.0000 </r>
        <r>    -3.9420     0.0000     0.0000     0.0000     0.0000     0.0019     0.0019     0.0020     0.0019     0.0020 </r>
        <r>    -3.9053     0.0000     0.0000     0.0000     0.0000     0.0723     0.0723     0.0757     0.0723     0.0757 </r>
        <r>    -3.8686     0.0000     0.0000     0.0000     0.0000     1.0084     1.0084     1.0405     1.0085     1.0405 </r>
        <r>    -3.8319     0.0000     0.0000     0.0000     0.0000     5.1575     5.1576     5.2431     5.1576     5.2431 </r>
        <r>    -3.7952     0.0000     0.0000     0.0000     0.0000     9.7948     9.7950     9.8123     9.7949     9.8122 </r>
        <r>    -3.7585     0.0000     0.0000     0.0000     0.0000     6.9486     6.9488     6.8598     6.9487     6.8597 </r>
        <r>    -3.7218     0.0000     0.0000     0.0000     0.0000     1.8354     1.8355     1.7854     1.8354     1.7853 </r>
        <r>    -3.6851     0.0000     0.0000     0.0000     0.0000     0.1785     0.1785     0.1711     0.1785     0.1711 </r>
        <r>    -3.6485     0.0000     0.0000     0.0000     0.0000     0.0063     0.0063     0.0059     0.0063     0.0059 </r>
        <r>    -3.6118     0.0000     0.0000     0.0000     0.0000     0.0001     0.0001     0.0001     0.0001     0.0001 </r>
        <r>    -3.5751     0.0000     0.0000     0.0000     0.0000     0.0000     0.0000     0.0000     0.0000     0.0000 </r>
        <r>    -3.5384     0.0000     0.0000     0.0000     0.0000     0.0000     0.0000     0.0000     0.0000     0.0000 </r>
        <r>    -3.5017     0.0000     0.0000     0.0000     0.0000     0.0000     0.0000     0.0000     0.0000     0.0000 </r>
        <r>    -3.4650     0.0000     0.0000     0.0000     0.0000     0.0000     0.0000     0.0000     0.0000     0.0000 </r>
        <r>    -3.4283     0.0000     0.0000     0.0000     0.0000     0.0000     0.0000     0.0000     0.0000     0.0000 </r>
        <r>    -3.3916     0.0000     0.0000     0.0000     0.0000     0.0000     0.0000     0.0000     0.0000     0.0000 </r>
        <r>    -3.3549     0.0000     0.0000     0.0000     0.0000     0.0000     0.0000     0.0000     0.0000     0.0000 </r>
        <r>    -3.3182     0.0000     0.0000     0.0000     0.0000     0.0000     0.0000     0.0000     0.0000     0.0000 </r>
        <r>    -3.2815     0.0008     0.0000     0.0000     0.0000     0.0000     0.0000     0.0000     0.0000     0.0000 </r>
        <r>    -3.2448     0.0309     0.0000     0.0000     0.0000     0.0000     0.0000     0.0000     0.0000     0.0000 </r>
        <r>    -3.2082     0.4170     0.0000     0.0000     0.0000     0.0000     0.0000     0.0000     0.0000     0.0000 </r>
        <r>    -3.1715     2.0630     0.0000     0.0000     0.0000     0.0000     0.0000     0.0000     0.0000     0.0000 </r>
        <r>    -3.1348     3.7909     0.0000     0.0000     0.0000     0.0000     0.0000     0.0000     0.0000     0.0000 </r>
        <r>    -3.0981     2.6023     0.0000     0.0000     0.0000     0.0000     0.0000     0.0000     0.0000     0.0000 </r>
        <r>    -3.0614     0.6649     0.0000     0.0000     0.0000     0.0000     0.0000     0.0000     0.0000     0.0000 </r>
        <r>    -3.0247     0.0625     0.0000     0.0000     0.0000     0.0000     0.0000     0.0000     0.0000     0.0000 </r>
        <r>    -2.9880     0.0021     0.0000     0.0000     0.0000     0.0000     0.0000     0.0000     0.0000     0.0000 </r>
        <r>    -2.9513     0.0000     0.0000     0.0000     0.0000     0.0000     0.0000     0.0000     0.0000     0.0000 </r>
        <r>    -2.9146     0.0000     0.0000     0.0000     0.0000     0.0000     0.0000     0.0000     0.0000     0.0000 </r>
        <r>    -2.8779     0.0000     0.0000     0.0000     0.0000     0.0000     0.0000     0.0000     0.0000     0.0000 </r>
        <r>    -2.8412     0.0000     0.0000     0.0000     0.0000     0.0000     0.0000     0.0000     0.0000     0.0000 </r>
        <r>    -2.8046     0.0000     0.0000     0.0000     0.0000     0.0000     0.0000     0.0000     0.0000     0.0000 </r>
        <r>    -2.7679     0.0000     0.0000     0.0000     0.0000     0.0000     0.0000     0.0000     0.0000     0.0000 </r>
        <r>    -2.7312     0.0000     0.0000     0.0000     0.0000     0.0000     0.0000     0.0000     0.0000     0.0000 </r>
        <r>    -2.6945     0.0000     0.0000     0.0000     0.0000     0.0000     0.0000     0.0000     0.0000     0.0000 </r>
        <r>    -2.6578     0.0000     0.0000     0.0000     0.0000     0.0000     0.0000     0.0000     0.0000     0.0000 </r>
        <r>    -2.6211     0.0000     0.0000     0.0000     0.0000     0.0000     0.0000     0.0000     0.0000     0.0000 </r>
        <r>    -2.5844     0.0000     0.0000     0.0000     0.0000     0.0000     0.0000     0.0000     0.0000     0.0000 </r>
        <r>    -2.5477     0.0000     0.0000     0.0000     0.0000     0.0000     0.0000     0.0000     0.0000     0.0000 </r>
        <r>    -2.5110     0.0000     0.0000     0.0000     0.0000     0.0000     0.0000     0.0000     0.0000     0.0000 </r>
        <r>    -2.4743     0.0000     0.0000     0.0000     0.0000     0.0000     0.0000     0.0000     0.0000     0.0000 </r>
        <r>    -2.4376     0.0000     0.0000     0.0000     0.0000     0.0000     0.0000     0.0000     0.0000     0.0000 </r>
        <r>    -2.4010     0.0000     0.0000     0.0000     0.0000     0.0000     0.0000     0.0000     0.0000     0.0000 </r>
        <r>    -2.3643     0.0000     0.0000     0.0000     0.0000     0.0000     0.0000     0.0000     0.0000     0.0000 </r>
        <r>    -2.3276     0.0000     0.0000     0.0000     0.0000     0.0000     0.0000     0.0000     0.0000     0.0000 </r>
        <r>    -2.2909     0.0000     0.0000     0.0000     0.0000     0.0000     0.0000     0.0000     0.0000     0.0000 </r>
        <r>    -2.2542     0.0000     0.0000     0.0000     0.0000     0.0000     0.0000     0.0000     0.0000     0.0000 </r>
        <r>    -2.2175     0.0000     0.0000     0.0000     0.0000     0.0000     0.0000     0.0000     0.0000     0.0000 </r>
        <r>    -2.1808     0.0000     0.0000     0.0000     0.0000     0.0000     0.0000     0.0000     0.0000     0.0000 </r>
        <r>    -2.1441     0.0000     0.0000     0.0000     0.0000     0.0000     0.0000     0.0000     0.0000     0.0000 </r>
        <r>    -2.1074     0.0000     0.0000     0.0000     0.0000     0.0000     0.0000     0.0000     0.0000     0.0000 </r>
        <r>    -2.0707     0.0000     0.0000     0.0000     0.0000     0.0000     0.0000     0.0000     0.0000     0.0000 </r>
        <r>    -2.0340     0.0000     0.0000     0.0000     0.0000     0.0000     0.0000     0.0000     0.0000     0.0000 </r>
        <r>    -1.9973     0.0000     0.0000     0.0000     0.0000     0.0000     0.0000     0.0000     0.0000     0.0000 </r>
        <r>    -1.9607     0.0000     0.0000     0.0000     0.0000     0.0000     0.0000     0.0000     0.0000     0.0000 </r>
        <r>    -1.9240     0.0000     0.0000     0.0000     0.0000     0.0000     0.0000     0.0000     0.0000     0.0000 </r>
        <r>    -1.8873     0.0000     0.0000     0.0000     0.0000     0.0000     0.0000     0.0000     0.0000     0.0000 </r>
        <r>    -1.8506     0.0000     0.0000     0.0000     0.0000     0.0000     0.0000     0.0000     0.0000     0.0000 </r>
        <r>    -1.8139     0.0000     0.0000     0.0000     0.0000     0.0000     0.0000     0.0000     0.0000     0.0000 </r>
        <r>    -1.7772     0.0000     0.0000     0.0000     0.0000     0.0000     0.0000     0.0000     0.0000     0.0000 </r>
        <r>    -1.7405     0.0000     0.0000     0.0000     0.0000     0.0000     0.0000     0.0000     0.0000     0.0000 </r>
        <r>    -1.7038     0.0000     0.0000     0.0000     0.0000     0.0000     0.0000     0.0000     0.0000     0.0000 </r>
        <r>    -1.6671     0.0000     0.0000     0.0000     0.0000     0.0000     0.0000     0.0000     0.0000     0.0000 </r>
        <r>    -1.6304     0.0000     0.0000     0.0000     0.0000     0.0000     0.0000     0.0000     0.0000     0.0000 </r>
        <r>    -1.5937     0.0000     0.0000     0.0000     0.0000     0.0000     0.0000     0.0000     0.0000     0.0000 </r>
        <r>    -1.5571     0.0000     0.0000     0.0000     0.0000     0.0000     0.0000     0.0000     0.0000     0.0000 </r>
        <r>    -1.5204     0.0000     0.0000     0.0000     0.0000     0.0000     0.0000     0.0000     0.0000     0.0000 </r>
        <r>    -1.4837     0.0000     0.0000     0.0000     0.0000     0.0000     0.0000     0.0000     0.0000     0.0000 </r>
        <r>    -1.4470     0.0000     0.0000     0.0000     0.0000     0.0000     0.0000     0.0000     0.0000     0.0000 </r>
        <r>    -1.4103     0.0000     0.0000     0.0000     0.0000     0.0000     0.0000     0.0000     0.0000     0.0000 </r>
        <r>    -1.3736     0.0000     0.0000     0.0000     0.0000     0.0000     0.0000     0.0000     0.0000     0.0000 </r>
        <r>    -1.3369     0.0000     0.0000     0.0000     0.0000     0.0000     0.0000     0.0000     0.0000     0.0000 </r>
        <r>    -1.3002     0.0000     0.0000     0.0000     0.0000     0.0000     0.0000     0.0000     0.0000     0.0000 </r>
        <r>    -1.2635     0.0000     0.0000     0.0000     0.0000     0.0000     0.0000     0.0000     0.0000     0.0000 </r>
        <r>    -1.2268     0.0000     0.0000     0.0000     0.0000     0.0000     0.0000     0.0000     0.0000     0.0000 </r>
        <r>    -1.1901     0.0000     0.0000     0.0000     0.0000     0.0000     0.0000     0.0000     0.0000     0.0000 </r>
        <r>    -1.1535     0.0000     0.0000     0.0000     0.0000     0.0000     0.0000     0.0000     0.0000     0.0000 </r>
        <r>    -1.1168     0.0000     0.0000     0.0000     0.0000     0.0000     0.0000     0.0000     0.0000     0.0000 </r>
        <r>    -1.0801     0.0000     0.0000     0.0000     0.0000     0.0000     0.0000     0.0000     0.0000     0.0000 </r>
        <r>    -1.0434     0.0000     0.0000     0.0000     0.0000     0.0000     0.0000     0.0000     0.0000     0.0000 </r>
        <r>    -1.0067     0.0000     0.0000     0.0000     0.0000     0.0000     0.0000     0.0000     0.0000     0.0000 </r>
        <r>    -0.9700     0.0000     0.0000     0.0000     0.0000     0.0000     0.0000     0.0000     0.0000     0.0000 </r>
        <r>    -0.9333     0.0000     0.0000     0.0000     0.0000     0.0000     0.0000     0.0000     0.0000     0.0000 </r>
        <r>    -0.8966     0.0000     0.0000     0.0000     0.0000     0.0000     0.0000     0.0000     0.0000     0.0000 </r>
        <r>    -0.8599     0.0000     0.0000     0.0000     0.0000     0.0000     0.0000     0.0000     0.0000     0.0000 </r>
        <r>    -0.8232     0.0000     0.0000     0.0000     0.0000     0.0000     0.0000     0.0000     0.0000     0.0000 </r>
        <r>    -0.7865     0.0000     0.0000     0.0000     0.0000     0.0000     0.0000     0.0000     0.0000     0.0000 </r>
        <r>    -0.7499     0.0000     0.0000     0.0000     0.0000     0.0000     0.0000     0.0000     0.0000     0.0000 </r>
        <r>    -0.7132     0.0000     0.0000     0.0000     0.0000     0.0000     0.0000     0.0000     0.0000     0.0000 </r>
        <r>    -0.6765     0.0000     0.0000     0.0000     0.0000     0.0000     0.0000     0.0000     0.0000     0.0000 </r>
        <r>    -0.6398     0.0000     0.0000     0.0000     0.0000     0.0000     0.0000     0.0000     0.0000     0.0000 </r>
        <r>    -0.6031     0.0000     0.0000     0.0000     0.0000     0.0000     0.0000     0.0000     0.0000     0.0000 </r>
        <r>    -0.5664     0.0000     0.0000     0.0000     0.0000     0.0000     0.0000     0.0000     0.0000     0.0000 </r>
        <r>    -0.5297     0.0000     0.0000     0.0000     0.0000     0.0000     0.0000     0.0000     0.0000     0.0000 </r>
        <r>    -0.4930     0.0000     0.0000     0.0000     0.0000     0.0000     0.0000     0.0000     0.0000     0.0000 </r>
        <r>    -0.4563     0.0000     0.0000     0.0000     0.0000     0.0000     0.0000     0.0000     0.0000     0.0000 </r>
        <r>    -0.4196     0.0000     0.0000     0.0000     0.0000     0.0000     0.0000     0.0000     0.0000     0.0000 </r>
        <r>    -0.3829     0.0000     0.0000     0.0000     0.0000     0.0000     0.0000     0.0000     0.0000     0.0000 </r>
        <r>    -0.3462     0.0000     0.0000     0.0000     0.0000     0.0000     0.0000     0.0000     0.0000     0.0000 </r>
        <r>    -0.3096     0.0000     0.0000     0.0000     0.0000     0.0000     0.0000     0.0000     0.0000     0.0000 </r>
        <r>    -0.2729     0.0000     0.0000     0.0000     0.0000     0.0000     0.0000     0.0000     0.0000     0.0000 </r>
        <r>    -0.2362     0.0000     0.0000     0.0000     0.0000     0.0000     0.0000     0.0000     0.0000     0.0000 </r>
        <r>    -0.1995     0.0000     0.0000     0.0000     0.0000     0.0000     0.0000     0.0000     0.0000     0.0000 </r>
        <r>    -0.1628     0.0000     0.0000     0.0000     0.0000     0.0000     0.0000     0.0000     0.0000     0.0000 </r>
        <r>    -0.1261     0.0000     0.0000     0.0000     0.0000     0.0000     0.0000     0.0000     0.0000     0.0000 </r>
        <r>    -0.0894     0.0000     0.0007     0.0004     0.0003     0.0000     0.0000     0.0000     0.0000     0.0000 </r>
        <r>    -0.0527     0.0004     0.0179     0.0121     0.0107     0.0000     0.0000     0.0000     0.0000     0.0000 </r>
        <r>    -0.0160     0.0047     0.1790     0.1361     0.1257     0.0000     0.0000     0.0000     0.0000     0.0000 </r>
        <r>     0.0207     0.0263     0.6635     0.5696     0.5475     0.0000     0.0000     0.0000     0.0000     0.0000 </r>
        <r>     0.0574     0.1011     0.9225     0.8985     0.8943     0.0000     0.0000     0.0000     0.0000     0.0000 </r>
        <r>     0.0940     0.2855     0.4840     0.5498     0.5652     0.0000     0.0000     0.0000     0.0000     0.0000 </r>
        <r>     0.1307     0.3893     0.0970     0.1495     0.1591     0.0000     0.0000     0.0000     0.0000     0.0000 </r>
        <r>     0.1674     0.2089     0.0082     0.0274     0.0302     0.0000     0.0000     0.0000     0.0000     0.0000 </r>
        <r>     0.2041     0.0420     0.0005     0.0039     0.0043     0.0000     0.0000     0.0000     0.0000     0.0000 </r>
        <r>     0.2408     0.0031     0.0000     0.0003     0.0003     0.0000     0.0000     0.0000     0.0000     0.0000 </r>
        <r>     0.2775     0.0001     0.0000     0.0000     0.0000     0.0000     0.0000     0.0000     0.0000     0.0000 </r>
        <r>     0.3142     0.0000     0.0000     0.0000     0.0000     0.0000     0.0000     0.0000     0.0000     0.0000 </r>
        <r>     0.3509     0.0000     0.0000     0.0000     0.0000     0.0000     0.0000     0.0000     0.0000     0.0000 </r>
        <r>     0.3876     0.0000     0.0000     0.0000     0.0000     0.0000     0.0000     0.0000     0.0000     0.0000 </r>
        <r>     0.4243     0.0000     0.0000     0.0000     0.0000     0.0000     0.0000     0.0000     0.0000     0.0000 </r>
        <r>     0.4610     0.0000     0.0000     0.0000     0.0000     0.0000     0.0000     0.0000     0.0000     0.0000 </r>
        <r>     0.4976     0.0000     0.0000     0.0000     0.0000     0.0000     0.0000     0.0000     0.0000     0.0000 </r>
        <r>     0.5343     0.0000     0.0000     0.0000     0.0000     0.0000     0.0000     0.0000     0.0000     0.0000 </r>
        <r>     0.5710     0.0000     0.0000     0.0000     0.0000     0.0000     0.0000     0.0000     0.0000     0.0000 </r>
        <r>     0.6077     0.0000     0.0000     0.0000     0.0000     0.0000     0.0000     0.0000     0.0000     0.0000 </r>
        <r>     0.6444     0.0000     0.0000     0.0000     0.0000     0.0000     0.0000     0.0000     0.0000     0.0000 </r>
        <r>     0.6811     0.0000     0.0000     0.0000     0.0000     0.0000     0.0000     0.0000     0.0000     0.0000 </r>
        <r>     0.7178     0.0000     0.0000     0.0000     0.0000     0.0000     0.0000     0.0000     0.0000     0.0000 </r>
        <r>     0.7545     0.0000     0.0000     0.0000     0.0000     0.0000     0.0000     0.0000     0.0000     0.0000 </r>
        <r>     0.7912     0.0000     0.0000     0.0000     0.0000     0.0000     0.0000     0.0000     0.0000     0.0000 </r>
        <r>     0.8279     0.0000     0.0000     0.0000     0.0000     0.0000     0.0000     0.0000     0.0000     0.0000 </r>
        <r>     0.8646     0.0000     0.0000     0.0000     0.0000     0.0000     0.0000     0.0000     0.0000     0.0000 </r>
        <r>     0.9012     0.0000     0.0000     0.0000     0.0000     0.0000     0.0000     0.0000     0.0000     0.0000 </r>
        <r>     0.9379     0.0000     0.0000     0.0000     0.0000     0.0000     0.0000     0.0000     0.0000     0.0000 </r>
        <r>     0.9746     0.0000     0.0000     0.0000     0.0000     0.0000     0.0000     0.0000     0.0000     0.0000 </r>
        <r>     1.0113     0.0000     0.0000     0.0000     0.0000     0.0000     0.0000     0.0000     0.0000     0.0000 </r>
        <r>     1.0480     0.0000     0.0000     0.0000     0.0000     0.0000     0.0000     0.0001     0.0000     0.0001 </r>
        <r>     1.0847     0.0000     0.0000     0.0000     0.0000     0.0000     0.0000     0.0015     0.0000     0.0015 </r>
        <r>     1.1214     0.0000     0.0000     0.0000     0.0000     0.0000     0.0000     0.0153     0.0000     0.0152 </r>
        <r>     1.1581     0.0000     0.0000     0.0000     0.0000     0.0000     0.0000     0.0580     0.0000     0.0578 </r>
        <r>     1.1948     0.0000     0.0000     0.0000     0.0000     0.0000     0.0000     0.0820     0.0000     0.0818 </r>
        <r>     1.2315     0.0000     0.0000     0.0000     0.0000     0.0000     0.0000     0.0432     0.0000     0.0432 </r>
        <r>     1.2682     0.0000     0.0000     0.0000     0.0000     0.0000     0.0000     0.0085     0.0000     0.0085 </r>
        <r>     1.3049     0.0000     0.0000     0.0000     0.0000     0.0000     0.0000     0.0006     0.0000     0.0006 </r>
        <r>     1.3415     0.0000     0.0000     0.0000     0.0000     0.0000     0.0000     0.0000     0.0000     0.0000 </r>
        <r>     1.3782     0.0000     0.0000     0.0000     0.0000     0.0000     0.0000     0.0000     0.0000     0.0000 </r>
        <r>     1.4149     0.0000     0.0000     0.0000     0.0000     0.0000     0.0000     0.0000     0.0000     0.0000 </r>
        <r>     1.4516     0.0000     0.0000     0.0000     0.0000     0.0000     0.0000     0.0000     0.0000     0.0000 </r>
        <r>     1.4883     0.0000     0.0000     0.0000     0.0000     0.0000     0.0000     0.0000     0.0000     0.0000 </r>
        <r>     1.5250     0.0000     0.0000     0.0000     0.0000     0.0000     0.0000     0.0000     0.0000     0.0000 </r>
        <r>     1.5617     0.0000     0.0000     0.0000     0.0000     0.0000     0.0000     0.0000     0.0000     0.0000 </r>
        <r>     1.5984     0.0000     0.0000     0.0000     0.0000     0.0000     0.0000     0.0000     0.0000     0.0000 </r>
        <r>     1.6351     0.0000     0.0000     0.0000     0.0000     0.0000     0.0000     0.0000     0.0000     0.0000 </r>
        <r>     1.6718     0.0000     0.0000     0.0000     0.0000     0.0000     0.0000     0.0000     0.0000     0.0000 </r>
        <r>     1.7085     0.0000     0.0000     0.0000     0.0000     0.0000     0.0000     0.0000     0.0000     0.0000 </r>
        <r>     1.7451     0.0000     0.0000     0.0000     0.0000     0.0000     0.0000     0.0000     0.0000     0.0000 </r>
        <r>     1.7818     0.0000     0.0000     0.0000     0.0000     0.0000     0.0000     0.0000     0.0000     0.0000 </r>
        <r>     1.8185     0.0000     0.0000     0.0000     0.0000     0.0000     0.0000     0.0000     0.0000     0.0000 </r>
        <r>     1.8552     0.0000     0.0003     0.0001     0.0001     0.0000     0.0000     0.0000     0.0000     0.0000 </r>
        <r>     1.8919     0.0002     0.0082     0.0037     0.0024     0.0000     0.0000     0.0000     0.0000     0.0000 </r>
        <r>     1.9286     0.0070     0.0819     0.0415     0.0274     0.0004     0.0004     0.0000     0.0003     0.0000 </r>
        <r>     1.9653     0.0746     0.3016     0.1797     0.1220     0.0021     0.0021     0.0000     0.0010     0.0001 </r>
        <r>     2.0020     0.2943     0.4141     0.3364     0.2519     0.0062     0.0060     0.0001     0.0014     0.0001 </r>
        <r>     2.0387     0.4334     0.2131     0.3272     0.2871     0.0099     0.0097     0.0001     0.0009     0.0000 </r>
        <r>     2.0754     0.2388     0.0410     0.1772     0.1751     0.0072     0.0071     0.0001     0.0003     0.0000 </r>
        <r>     2.1121     0.0490     0.0030     0.0457     0.0474     0.0021     0.0020     0.0000     0.0001     0.0000 </r>
        <r>     2.1487     0.0037     0.0001     0.0048     0.0050     0.0002     0.0002     0.0000     0.0000     0.0000 </r>
        <r>     2.1854     0.0001     0.0000     0.0002     0.0002     0.0000     0.0000     0.0000     0.0000     0.0000 </r>
        <r>     2.2221     0.0000     0.0000     0.0000     0.0000     0.0000     0.0000     0.0000     0.0000     0.0000 </r>
        <r>     2.2588     0.0000     0.0000     0.0000     0.0000     0.0000     0.0000     0.0000     0.0000     0.0000 </r>
        <r>     2.2955     0.0000     0.0000     0.0001     0.0002     0.0006     0.0012     0.0000     0.0003     0.0000 </r>
        <r>     2.3322     0.0000     0.0004     0.0008     0.0032     0.0104     0.0162     0.0000     0.0069     0.0000 </r>
        <r>     2.3689     0.0001     0.0025     0.0040     0.0157     0.0647     0.0827     0.0000     0.0535     0.0000 </r>
        <r>     2.4056     0.0001     0.0057     0.0071     0.0287     0.1553     0.1616     0.0001     0.1553     0.0000 </r>
        <r>     2.4423     0.0001     0.0051     0.0047     0.0198     0.1440     0.1228     0.0001     0.1688     0.0000 </r>
        <r>     2.4790     0.0000     0.0018     0.0011     0.0052     0.0512     0.0365     0.0000     0.0687     0.0000 </r>
[...]
        <r>     5.0473     0.0142     0.0032     0.0186     0.0270     0.0000     0.0004     0.0143     0.0003     0.0944 </r>
        <r>     5.0840     0.0303     0.0088     0.0572     0.0747     0.0001     0.0012     0.0568     0.0007     0.2224 </r>
        <r>     5.1207     0.0354     0.0123     0.0913     0.1027     0.0002     0.0021     0.1187     0.0010     0.2121 </r>
        <r>     5.1574     0.0216     0.0089     0.0745     0.0744     0.0002     0.0018     0.1129     0.0007     0.0919 </r>
        <r>     5.1941     0.0067     0.0031     0.0269     0.0255     0.0001     0.0007     0.0433     0.0002     0.0206 </r>
        <r>     5.2308     0.0009     0.0004     0.0039     0.0036     0.0000     0.0001     0.0063     0.0000     0.0023 </r>
        <r>     5.2675     0.0000     0.0000     0.0002     0.0002     0.0000     0.0000     0.0003     0.0000     0.0001 </r>
        <r>     5.3042     0.0000     0.0000     0.0000     0.0000     0.0000     0.0000     0.0000     0.0000     0.0000 </r>
        <r>     5.3409     0.0000     0.0000     0.0000     0.0000     0.0000     0.0000     0.0000     0.0000     0.0000 </r>
        <r>     5.3776     0.0000     0.0000     0.0000     0.0000     0.0000     0.0000     0.0000     0.0000     0.0000 </r>
        <r>     5.4143     0.0000     0.0000     0.0000     0.0000     0.0000     0.0000     0.0000     0.0000     0.0000 </r>
        <r>     5.4509     0.0000     0.0000     0.0000     0.0000     0.0000     0.0000     0.0000     0.0000     0.0000 </r>
        <r>     5.4876     0.0000     0.0000     0.0000     0.0000     0.0000     0.0000     0.0000     0.0000     0.0000 </r>
        <r>     5.5243     0.0000     0.0000     0.0000     0.0000     0.0000     0.0000     0.0000     0.0000     0.0000 </r>
        <r>     5.5610     0.0000     0.0000     0.0000     0.0000     0.0000     0.0000     0.0000     0.0000     0.0000 </r>
        <r>     5.5977     0.0000     0.0000     0.0000     0.0000     0.0000     0.0000     0.0000     0.0000     0.0000 </r>
        <r>     5.6344     0.0000     0.0000     0.0000     0.0000     0.0000     0.0000     0.0000     0.0000     0.0000 </r>
        <r>     5.6711     0.0000     0.0000     0.0000     0.0000     0.0000     0.0000     0.0000     0.0000     0.0000 </r>
        <r>     5.7078     0.0000     0.0000     0.0000     0.0000     0.0000     0.0000     0.0000     0.0000     0.0000 </r>
        <r>     5.7445     0.0000     0.0000     0.0000     0.0000     0.0000     0.0000     0.0000     0.0000     0.0000 </r>
        <r>     5.7812     0.0000     0.0000     0.0000     0.0000     0.0000     0.0000     0.0000     0.0000     0.0000 </r>
        <r>     5.8179     0.0000     0.0000     0.0000     0.0000     0.0000     0.0000     0.0000     0.0000     0.0000 </r>
        <r>     5.8546     0.0000     0.0001     0.0000     0.0000     0.0000     0.0000     0.0000     0.0000     0.0000 </r>
        <r>     5.8912     0.0000     0.0018     0.0002     0.0005     0.0000     0.0001     0.0000     0.0000     0.0002 </r>
        <r>     5.9279     0.0002     0.0238     0.0032     0.0062     0.0002     0.0012     0.0001     0.0003     0.0021 </r>
        <r>     5.9646     0.0009     0.1134     0.0151     0.0298     0.0012     0.0057     0.0006     0.0013     0.0098 </r>
        <r>     6.0013     0.0015     0.2009     0.0268     0.0528     0.0021     0.0101     0.0011     0.0023     0.0174 </r>
        <r>     6.0380     0.0010     0.1330     0.0177     0.0350     0.0014     0.0067     0.0007     0.0015     0.0115 </r>
        <r>     6.0747     0.0002     0.0328     0.0044     0.0086     0.0003     0.0016     0.0002     0.0004     0.0028 </r>
        <r>     6.1114     0.0000     0.0030     0.0004     0.0008     0.0000     0.0001     0.0000     0.0000     0.0003 </r>
        <r>     6.1481     0.0000     0.0001     0.0000     0.0000     0.0000     0.0000     0.0000     0.0000     0.0000 </r>
        <r>     6.1848     0.0000     0.0000     0.0000     0.0000     0.0000     0.0000     0.0000     0.0000     0.0000 </r>
        <r>     6.2215     0.0000     0.0000     0.0000     0.0000     0.0000     0.0000     0.0000     0.0000     0.0000 </r>
        <r>     6.2582     0.0000     0.0000     0.0000     0.0000     0.0000     0.0000     0.0000     0.0000     0.0000 </r>
        <r>     6.2948     0.0000     0.0000     0.0000     0.0000     0.0000     0.0000     0.0000     0.0000     0.0000 </r>
        <r>     6.3315     0.0000     0.0000     0.0000     0.0000     0.0000     0.0000     0.0000     0.0000     0.0000 </r>
        <r>     6.3682     0.0000     0.0000     0.0000     0.0000     0.0000     0.0000     0.0000     0.0000     0.0000 </r>
        <r>     6.4049     0.0000     0.0000     0.0000     0.0000     0.0000     0.0000     0.0000     0.0000     0.0000 </r>
        <r>     6.4416     0.0000     0.0000     0.0000     0.0000     0.0000     0.0000     0.0000     0.0000     0.0000 </r>
        <r>     6.4783     0.0000     0.0000     0.0000     0.0000     0.0000     0.0000     0.0000     0.0000     0.0000 </r>
        <r>     6.5150     0.0000     0.0000     0.0000     0.0000     0.0000     0.0000     0.0000     0.0000     0.0000 </r>
        <r>     6.5517     0.0000     0.0000     0.0000     0.0000     0.0000     0.0000     0.0000     0.0000     0.0000 </r>
        <r>     6.5884     0.0000     0.0000     0.0000     0.0000     0.0000     0.0000     0.0000     0.0000     0.0000 </r>
        <r>     6.6251     0.0000     0.0000     0.0000     0.0000     0.0000     0.0000     0.0000     0.0000     0.0000 </r>
        <r>     6.6618     0.0000     0.0000     0.0000     0.0000     0.0000     0.0000     0.0000     0.0000     0.0000 </r>
        <r>     6.6984     0.0000     0.0000     0.0000     0.0000     0.0000     0.0000     0.0000     0.0000     0.0000 </r>
       </set>
      </set>
     </set>
    </array>
   </partial>
  </dos>
  <projected>
   <eigenvalues>
    <array>
     <dimension dim="1">band</dimension>
     <dimension dim="2">kpoint</dimension>
     <dimension dim="3">spin</dimension>
     <field>eigene</field>
     <field>occ</field>
     <set>
      <set comment="spin 1">
       <set comment="kpoint 1">
        <r>   -3.8086    1.0000 </r>
        <r>   -3.8086    1.0000 </r>
        <r>   -3.8080    1.0000 </r>
        <r>   -3.8080    1.0000 </r>
        <r>   -3.8080    1.0000 </r>
        <r>   -3.1488    0.0000 </r>
        <r>    0.0313    0.0000 </r>
        <r>    0.0387    0.0000 </r>
        <r>    0.0397    0.0000 </r>
        <r>    0.1079    0.0000 </r>
        <r>    1.1710    0.0000 </r>
        <r>    1.1710    0.0000 </r>
        <r>    1.9767    0.0000 </r>
        <r>    1.9810    0.0000 </r>
        <r>    2.0164    0.0000 </r>
        <r>    2.0299    0.0000 </r>
        <r>    2.3900    0.0000 </r>
        <r>    2.4059    0.0000 </r>
        <r>    2.4093    0.0000 </r>
        <r>    2.7106    0.0000 </r>
        <r>    2.7161    0.0000 </r>
        <r>    2.7442    0.0000 </r>
        <r>    2.7458    0.0000 </r>
        <r>    2.7478    0.0000 </r>
        <r>    3.8923    0.0000 </r>
        <r>    3.8976    0.0000 </r>
        <r>    4.0168    0.0000 </r>
        <r>    4.0189    0.0000 </r>
        <r>    4.0716    0.0000 </r>
        <r>    4.0718    0.0000 </r>
        <r>    4.0780    0.0000 </r>
        <r>    4.2969    0.0000 </r>
        <r>    5.0565    0.0000 </r>
        <r>    5.1908    0.0000 </r>
        <r>    5.9377    0.0000 </r>
        <r>    6.1981    0.0000 </r>
       </set>
      </set>
      <set comment="spin 2">
       <set comment="kpoint 1">
        <r>   -3.8081    1.0000 </r>
        <r>   -3.8081    1.0000 </r>
        <r>   -3.8076    1.0000 </r>
        <r>   -3.8076    1.0000 </r>
        <r>   -3.8076    1.0000 </r>
        <r>   -3.1497    0.0000 </r>
        <r>    0.0290    0.0000 </r>
        <r>    0.0317    0.0000 </r>
        <r>    0.0325    0.0000 </r>
        <r>    0.1107    0.0000 </r>
        <r>    1.1671    0.0000 </r>
        <r>    1.1677    0.0000 </r>
        <r>    1.9713    0.0000 </r>
        <r>    1.9731    0.0000 </r>
        <r>    1.9877    0.0000 </r>
        <r>    2.0147    0.0000 </r>
        <r>    2.4020    0.0000 </r>
        <r>    2.4049    0.0000 </r>
        <r>    2.4087    0.0000 </r>
        <r>    2.7156    0.0000 </r>
        <r>    2.7214    0.0000 </r>
        <r>    2.7404    0.0000 </r>
        <r>    2.7428    0.0000 </r>
        <r>    2.7437    0.0000 </r>
        <r>    3.9260    0.0000 </r>
        <r>    3.9361    0.0000 </r>
        <r>    4.0144    0.0000 </r>
        <r>    4.0170    0.0000 </r>
        <r>    4.0655    0.0000 </r>
        <r>    4.0714    0.0000 </r>
        <r>    4.0761    0.0000 </r>
        <r>    4.5778    0.0000 </r>
        <r>    4.9166    0.0000 </r>
        <r>    5.0780    0.0000 </r>
        <r>    5.1232    0.0000 </r>
        <r>    5.9859    0.0000 </r>
       </set>
      </set>
     </set>
    </array>
   </eigenvalues>
   <array>
    <dimension dim="1">ion</dimension>
    <dimension dim="2">band</dimension>
    <dimension dim="3">kpoint</dimension>
    <dimension dim="4">spin</dimension>
    <field>    s</field>
    <field>   py</field>
    <field>   pz</field>
    <field>   px</field>
    <field>  dxy</field>
    <field>  dyz</field>
    <field>  dz2</field>
    <field>  dxz</field>
    <field>x2-y2</field>
    <set>
     <set comment="spin1">
      <set comment="kpoint 1">
       <set comment="band 1">
        <r>  0.0000  0.0000  0.0000  0.0000  0.0000  0.0000  0.0672  0.0000  0.8499 </r>
       </set>
       <set comment="band 2">
        <r>  0.0000  0.0000  0.0000  0.0000  0.0000  0.0000  0.8499  0.0000  0.0672 </r>
       </set>
       <set comment="band 3">
        <r>  0.0000  0.0000  0.0000  0.0000  0.1092  0.1467  0.0000  0.6615  0.0000 </r>
       </set>
       <set comment="band 4">
        <r>  0.0000  0.0000  0.0000  0.0000  0.6153  0.0903  0.0000  0.2118  0.0000 </r>
       </set>
       <set comment="band 5">
        <r>  0.0000  0.0000  0.0000  0.0000  0.1929  0.6804  0.0000  0.0441  0.0000 </r>
       </set>
       <set comment="band 6">
        <r>  0.3535  0.0000  0.0000  0.0000  0.0000  0.0000  0.0000  0.0000  0.0000 </r>
       </set>
       <set comment="band 7">
        <r>  0.0000  0.0662  0.0173  0.0050  0.0000  0.0000  0.0000  0.0000  0.0000 </r>
       </set>
       <set comment="band 8">
        <r>  0.0000  0.0191  0.0304  0.0335  0.0000  0.0000  0.0000  0.0000  0.0000 </r>
       </set>
       <set comment="band 9">
        <r>  0.0031  0.0015  0.0353  0.0438  0.0000  0.0000  0.0000  0.0000  0.0000 </r>
       </set>
       <set comment="band 10">
        <r>  0.0359  0.0002  0.0031  0.0034  0.0000  0.0000  0.0000  0.0000  0.0000 </r>
       </set>
       <set comment="band 11">
        <r>  0.0000  0.0000  0.0000  0.0000  0.0000  0.0000  0.0074  0.0000  0.0003 </r>
       </set>
       <set comment="band 12">
        <r>  0.0000  0.0000  0.0000  0.0000  0.0000  0.0000  0.0003  0.0000  0.0074 </r>
       </set>
       <set comment="band 13">
        <r>  0.0001  0.0352  0.0019  0.0025  0.0001  0.0001  0.0000  0.0001  0.0000 </r>
       </set>
       <set comment="band 14">
        <r>  0.0000  0.0037  0.0211  0.0122  0.0001  0.0001  0.0000  0.0000  0.0000 </r>
       </set>
       <set comment="band 15">
        <r>  0.0401  0.0001  0.0000  0.0002  0.0000  0.0000  0.0000  0.0000  0.0000 </r>
       </set>
       <set comment="band 16">
        <r>  0.0002  0.0000  0.0179  0.0189  0.0008  0.0008  0.0000  0.0000  0.0000 </r>
       </set>
       <set comment="band 17">
        <r>  0.0000  0.0002  0.0007  0.0024  0.0035  0.0110  0.0000  0.0002  0.0000 </r>
       </set>
       <set comment="band 18">
        <r>  0.0000  0.0003  0.0000  0.0003  0.0116  0.0033  0.0000  0.0018  0.0000 </r>
       </set>
       <set comment="band 19">
        <r>  0.0000  0.0001  0.0000  0.0000  0.0008  0.0013  0.0000  0.0151  0.0000 </r>
       </set>
       <set comment="band 20">
        <r>  0.0000  0.0000  0.0001  0.0006  0.0000  0.0001  0.0000  0.0000  0.0000 </r>
       </set>
       <set comment="band 21">
        <r>  0.0003  0.0001  0.0003  0.0028  0.0001  0.0000  0.0000  0.0000  0.0000 </r>
       </set>
       <set comment="band 22">
        <r>  0.0001  0.0000  0.0002  0.0004  0.0000  0.0001  0.0000  0.0000  0.0000 </r>
       </set>
       <set comment="band 23">
        <r>  0.0000  0.0000  0.0001  0.0000  0.0000  0.0000  0.0050  0.0000  0.0000 </r>
       </set>
       <set comment="band 24">
        <r>  0.0000  0.0000  0.0000  0.0000  0.0000  0.0000  0.0000  0.0000  0.0051 </r>
       </set>
       <set comment="band 25">
        <r>  0.0008  0.0017  0.0025  0.0301  0.0002  0.0000  0.0000  0.0001  0.0001 </r>
       </set>
       <set comment="band 26">
        <r>  0.0000  0.0023  0.0304  0.0027  0.0001  0.0000  0.0001  0.0000  0.0000 </r>
       </set>
       <set comment="band 27">
        <r>  0.0278  0.0005  0.0000  0.0010  0.0006  0.0003  0.0000  0.0000  0.0000 </r>
       </set>
       <set comment="band 28">
        <r>  0.0005  0.0251  0.0038  0.0005  0.0000  0.0001  0.0031  0.0000  0.0001 </r>
       </set>
       <set comment="band 29">
        <r>  0.0002  0.0001  0.0000  0.0009  0.0016  0.0008  0.0000  0.0064  0.0000 </r>
       </set>
       <set comment="band 30">
        <r>  0.0020  0.0001  0.0000  0.0011  0.0066  0.0008  0.0000  0.0011  0.0000 </r>
       </set>
       <set comment="band 31">
        <r>  0.0010  0.0003  0.0001  0.0001  0.0003  0.0075  0.0000  0.0014  0.0000 </r>
       </set>
       <set comment="band 32">
        <r>  0.0128  0.0001  0.0004  0.0000  0.0000  0.0000  0.0015  0.0000  0.0000 </r>
       </set>
       <set comment="band 33">
        <r>  0.0030  0.0287  0.0013  0.0057  0.0000  0.0016  0.0001  0.0002  0.0029 </r>
       </set>
       <set comment="band 34">
        <r>  0.0067  0.0001  0.0002  0.0007  0.0000  0.0001  0.0004  0.0000  0.0212 </r>
       </set>
       <set comment="band 35">
        <r>  0.0103  0.0019  0.0080  0.0018  0.0031  0.0019  0.0036  0.0001  0.0001 </r>
       </set>
       <set comment="band 36">
        <r>  0.0001  0.0009  0.0096  0.0026  0.0001  0.0003  0.0008  0.0018  0.0023 </r>
       </set>
      </set>
     </set>
     <set comment="spin2">
      <set comment="kpoint 1">
       <set comment="band 1">
        <r>  0.0000  0.0000  0.0000  0.0000  0.0000  0.0000  0.0011  0.0000  0.9159 </r>
       </set>
       <set comment="band 2">
        <r>  0.0000  0.0000  0.0000  0.0000  0.0000  0.0000  0.9160  0.0000  0.0011 </r>
       </set>
       <set comment="band 3">
        <r>  0.0000  0.0000  0.0000  0.0000  0.1375  0.7511  0.0000  0.0288  0.0000 </r>
       </set>
       <set comment="band 4">
        <r>  0.0000  0.0000  0.0000  0.0000  0.1327  0.1009  0.0000  0.6837  0.0000 </r>
       </set>
       <set comment="band 5">
        <r>  0.0000  0.0000  0.0000  0.0000  0.6471  0.0654  0.0000  0.2048  0.0000 </r>
       </set>
       <set comment="band 6">
        <r>  0.3526  0.0000  0.0000  0.0000  0.0000  0.0000  0.0000  0.0000  0.0000 </r>
       </set>
       <set comment="band 7">
        <r>  0.0000  0.0040  0.0837  0.0011  0.0000  0.0000  0.0000  0.0000  0.0000 </r>
       </set>
       <set comment="band 8">
        <r>  0.0002  0.0068  0.0002  0.0794  0.0000  0.0000  0.0000  0.0000  0.0000 </r>
       </set>
       <set comment="band 9">
        <r>  0.0001  0.0743  0.0047  0.0064  0.0000  0.0000  0.0000  0.0000  0.0000 </r>
       </set>
       <set comment="band 10">
        <r>  0.0392  0.0005  0.0000  0.0002  0.0000  0.0000  0.0000  0.0000  0.0000 </r>
       </set>
       <set comment="band 11">
        <r>  0.0000  0.0000  0.0000  0.0000  0.0000  0.0000  0.0032  0.0000  0.0046 </r>
       </set>
       <set comment="band 12">
        <r>  0.0000  0.0000  0.0000  0.0000  0.0000  0.0000  0.0046  0.0000  0.0031 </r>
       </set>
       <set comment="band 13">
        <r>  0.0001  0.0319  0.0002  0.0075  0.0000  0.0001  0.0000  0.0000  0.0000 </r>
       </set>
       <set comment="band 14">
        <r>  0.0016  0.0009  0.0276  0.0073  0.0000  0.0000  0.0000  0.0000  0.0000 </r>
       </set>
       <set comment="band 15">
        <r>  0.0000  0.0076  0.0090  0.0209  0.0001  0.0000  0.0000  0.0001  0.0000 </r>
       </set>
       <set comment="band 16">
        <r>  0.0386  0.0000  0.0008  0.0008  0.0000  0.0000  0.0000  0.0000  0.0000 </r>
       </set>
       <set comment="band 17">
        <r>  0.0000  0.0000  0.0001  0.0004  0.0013  0.0091  0.0000  0.0066  0.0000 </r>
       </set>
       <set comment="band 18">
        <r>  0.0000  0.0001  0.0001  0.0000  0.0010  0.0079  0.0000  0.0082  0.0000 </r>
       </set>
       <set comment="band 19">
        <r>  0.0000  0.0000  0.0000  0.0001  0.0146  0.0001  0.0000  0.0023  0.0000 </r>
       </set>
       <set comment="band 20">
        <r>  0.0000  0.0000  0.0000  0.0000  0.0001  0.0000  0.0000  0.0001  0.0000 </r>
       </set>
       <set comment="band 21">
        <r>  0.0000  0.0000  0.0000  0.0001  0.0000  0.0000  0.0000  0.0000  0.0001 </r>
       </set>
       <set comment="band 22">
        <r>  0.0000  0.0000  0.0005  0.0000  0.0001  0.0000  0.0000  0.0000  0.0000 </r>
       </set>
       <set comment="band 23">
        <r>  0.0000  0.0001  0.0000  0.0000  0.0000  0.0000  0.0001  0.0000  0.0049 </r>
       </set>
       <set comment="band 24">
        <r>  0.0000  0.0000  0.0000  0.0001  0.0000  0.0000  0.0050  0.0000  0.0001 </r>
       </set>
       <set comment="band 25">
        <r>  0.0001  0.0008  0.0368  0.0013  0.0000  0.0000  0.0002  0.0000  0.0000 </r>
       </set>
       <set comment="band 26">
        <r>  0.0019  0.0052  0.0001  0.0156  0.0004  0.0003  0.0000  0.0002  0.0003 </r>
       </set>
       <set comment="band 27">
        <r>  0.0002  0.0115  0.0006  0.0006  0.0000  0.0000  0.0008  0.0000  0.0010 </r>
       </set>
       <set comment="band 28">
        <r>  0.0315  0.0005  0.0003  0.0001  0.0000  0.0000  0.0000  0.0002  0.0000 </r>
       </set>
       <set comment="band 29">
        <r>  0.0000  0.0018  0.0001  0.0003  0.0002  0.0083  0.0000  0.0001  0.0000 </r>
       </set>
       <set comment="band 30">
        <r>  0.0006  0.0008  0.0000  0.0001  0.0003  0.0003  0.0000  0.0080  0.0000 </r>
       </set>
       <set comment="band 31">
        <r>  0.0000  0.0004  0.0002  0.0001  0.0081  0.0001  0.0000  0.0005  0.0000 </r>
       </set>
       <set comment="band 32">
        <r>  0.0112  0.0033  0.0006  0.0104  0.0000  0.0000  0.0064  0.0000  0.0023 </r>
       </set>
       <set comment="band 33">
        <r>  0.0234  0.0000  0.0000  0.0024  0.0000  0.0000  0.0021  0.0000  0.0021 </r>
       </set>
       <set comment="band 34">
        <r>  0.0025  0.0006  0.0035  0.0054  0.0000  0.0001  0.0021  0.0001  0.0206 </r>
       </set>
       <set comment="band 35">
        <r>  0.0015  0.0007  0.0066  0.0060  0.0000  0.0002  0.0109  0.0001  0.0036 </r>
       </set>
       <set comment="band 36">
        <r>  0.0001  0.0187  0.0025  0.0049  0.0002  0.0009  0.0001  0.0002  0.0016 </r>
       </set>
      </set>
     </set>
    </set>
   </array>
  </projected>
 </calculation>
 <structure name="finalpos" >
  <crystal>
   <varray name="basis" >
    <v>      10.00000000       0.00000000       0.00000000 </v>
    <v>       0.00000000      10.00000000       0.00000000 </v>
    <v>       0.00000000       0.00000000      10.00000000 </v>
   </varray>
   <i name="volume">   1000.00000000 </i>
   <varray name="rec_basis" >
    <v>       0.10000000       0.00000000       0.00000000 </v>
    <v>       0.00000000       0.10000000       0.00000000 </v>
    <v>       0.00000000       0.00000000       0.10000000 </v>
   </varray>
  </crystal>
  <varray name="positions" >
   <v>       0.50000000       0.50000000       0.50000000 </v>
  </varray>
 </structure>
</modeling>
