       N       E                     dE             d eps       ncg     rms          ort
DAV:   1     0.411359648363E+02    0.41136E+02   -0.28490E+03    36   0.195E+02
DAV:   2     0.117410578684E+02   -0.29395E+02   -0.28519E+02    36   0.232E+01
DAV:   3     0.100702670283E+01   -0.10734E+02   -0.10721E+02    36   0.268E+01
DAV:   4    -0.498506482407E+00   -0.15055E+01   -0.14874E+01    36   0.111E+01
DAV:   5    -0.757865769711E+00   -0.25936E+00   -0.25702E+00    36   0.403E+00
SDA:   6     0.170887443407E+01    0.24667E+01   -0.87349E+01    36   0.218E+02 0.000E+00
DMP:   7     0.255662548281E+02    0.23857E+02   -0.53567E+02    36   0.158E+03-0.640E+02
DMP:   8     0.186465169881E+02   -0.69197E+01   -0.66248E+02    36   0.225E+03-0.156E+03
DMP:   9     0.429397370723E+01   -0.14353E+02   -0.10463E+01    36   0.240E+02-0.560E+02
DMP:  10     0.391428672931E+01   -0.37969E+00   -0.11262E+02    36   0.293E+02-0.312E+01
DMP:  11    -0.124466334616E+01   -0.51590E+01   -0.23277E+00    36   0.760E+00-0.467E+00
DMP:  12    -0.736159856205E+00    0.50850E+00   -0.18219E+01    36   0.583E+01-0.335E+01
DMP:  13    -0.156292187814E+01   -0.82676E+00   -0.28498E-02    36   0.909E-01-0.219E+00
DMP:  14     0.274368673245E+01    0.43066E+01   -0.10064E+02    36   0.264E+02-0.332E+01
DMP:  15     0.234233507033E+01   -0.40135E+00   -0.82084E+01    36   0.297E+02-0.242E+02
DMP:  16    -0.152327209332E+01   -0.38656E+01   -0.20325E-01    36   0.186E+00-0.353E+00
DMP:  17     0.473891797106E+01    0.62622E+01   -0.11750E+02    36   0.327E+02-0.876E+01
DMP:  18     0.174952975749E+01   -0.29894E+01   -0.43043E+01    36   0.193E+02-0.225E+02
DMP:  19    -0.889070431226E+00   -0.26386E+01   -0.13297E+01    36   0.238E+01 0.247E+01
DMP:  20     0.360625423066E+01    0.44953E+01   -0.92412E+01    36   0.269E+02-0.982E+01
DMP:  21     0.149070935559E+01   -0.21155E+01   -0.35859E+01    36   0.152E+02-0.164E+02
DMP:  22    -0.138858107020E+01   -0.28793E+01   -0.58762E+00    36   0.782E+00 0.180E+01
DMP:  23     0.336629404149E+01    0.47549E+01   -0.86069E+01    36   0.249E+02-0.875E+01
DMP:  24     0.122568641816E+01   -0.21406E+01   -0.32085E+01    36   0.153E+02-0.192E+02
DMP:  25    -0.774517242796E+00   -0.20002E+01   -0.10412E+01    36   0.187E+01 0.191E+01
DMP:  26     0.328477565005E+01    0.40593E+01   -0.82828E+01    36   0.241E+02-0.890E+01
DMP:  27     0.418585449340E+00   -0.28662E+01   -0.26960E+01    36   0.119E+02-0.134E+02
DMP:  28    -0.132832460817E+01   -0.17469E+01   -0.74967E+00    36   0.114E+01 0.193E+01
DMP:  29     0.304727754327E+01    0.43756E+01   -0.76811E+01    36   0.225E+02-0.861E+01
DMP:  30     0.941199211304E+00   -0.21061E+01   -0.26474E+01    36   0.129E+02-0.164E+02
DMP:  31    -0.788736883324E+00   -0.17299E+01   -0.11517E+01    36   0.215E+01 0.190E+01
DMP:  32     0.302339045381E+01    0.38121E+01   -0.75698E+01    36   0.222E+02-0.848E+01
DMP:  33     0.286812177980E+00   -0.27366E+01   -0.24119E+01    36   0.107E+02-0.122E+02
DMP:  34    -0.132059589627E+01   -0.16074E+01   -0.80590E+00    36   0.127E+01 0.195E+01
DMP:  35     0.291434025416E+01    0.42349E+01   -0.73105E+01    36   0.215E+02-0.832E+01
DMP:  36     0.736309667411E+00   -0.21780E+01   -0.24806E+01    36   0.123E+02-0.161E+02
DMP:  37    -0.942897730461E+00   -0.16792E+01   -0.14692E+01    36   0.289E+01 0.204E+01
DMP:  38     0.290430966879E+01    0.38472E+01   -0.72592E+01    36   0.213E+02-0.829E+01
DMP:  39     0.971419341830E+00   -0.19329E+01   -0.23910E+01    36   0.105E+02-0.119E+02
DMP:  40    -0.624751906613E+00   -0.15962E+01   -0.73859E+00    36   0.114E+01 0.185E+01
DMP:  41     0.332444791065E+01    0.39492E+01   -0.20905E+02    36   0.647E+02-0.326E+02
DMP:  42     0.100232403587E+01   -0.23221E+01   -0.24278E+01    36   0.107E+02-0.121E+02
DMP:  43    -0.540385490689E+00   -0.15427E+01   -0.10428E+02    36   0.409E+02-0.388E+02
DMP:  44     0.282108124026E+00    0.82249E+00   -0.20036E+01    36   0.631E+01-0.341E+01
DMP:  45     0.110718902480E+01    0.82508E+00   -0.42991E+01    36   0.137E+02-0.774E+01
DMP:  46     0.437422211391E+00   -0.66977E+00   -0.31644E+01    36   0.117E+02-0.998E+01
DMP:  47     0.509494625325E+00    0.72072E-01   -0.82477E+01    36   0.270E+02-0.166E+02
DMP:  48     0.956725065883E+00    0.44723E+00   -0.29898E+01    36   0.103E+02-0.752E+01
DMP:  49    -0.112101434207E+01   -0.20777E+01   -0.21396E+01    36   0.199E+01 0.880E+01
DMP:  50     0.208707409648E+01    0.32081E+01   -0.63042E+01    36   0.168E+02-0.268E+01
DMP:  51     0.166774465628E+01   -0.41933E+00   -0.38664E+01    36   0.149E+02-0.138E+02
DMP:  52    -0.126235258659E+01   -0.29301E+01   -0.62055E+00    36   0.486E+00 0.279E+01
DMP:  53     0.142101379344E+01    0.26834E+01   -0.52858E+01    36   0.140E+02-0.219E+01
DMP:  54     0.177911234733E+01    0.35810E+00   -0.46456E+01    36   0.166E+02-0.130E+02
DMP:  55    -0.871036631822E+00   -0.26501E+01   -0.97364E+01    36   0.440E+02-0.514E+02
DMP:  56    -0.518318050003E+00    0.35272E+00   -0.11105E+01    36   0.357E+01-0.208E+01
DMP:  57     0.706571179473E+00    0.12249E+01   -0.45518E+01    36   0.135E+02-0.549E+01
DMP:  58     0.103308675728E+01    0.32652E+00   -0.36083E+01    36   0.130E+02-0.105E+02
DMP:  59     0.777110555062E+00   -0.25598E+00   -0.28838E+01    36   0.111E+02-0.101E+02
DMP:  60     0.533571292558E+00   -0.24354E+00   -0.39309E+01    36   0.121E+02-0.602E+01
DMP:  61     0.889011912072E+00    0.35544E+00   -0.37238E+01    36   0.127E+02-0.881E+01
DMP:  62     0.100737632842E+01    0.11836E+00   -0.31509E+01    36   0.107E+02-0.744E+01
DMP:  63     0.377903158748E+00   -0.62947E+00   -0.38913E+01    36   0.126E+02-0.755E+01
DMP:  64     0.667556802536E+00    0.28965E+00   -0.30615E+01    36   0.106E+02-0.761E+01
DMP:  65     0.782536110337E+00    0.11498E+00   -0.35957E+01    36   0.137E+02-0.124E+02
DMP:  66     0.749852169898E+00   -0.32684E-01   -0.34814E+01    36   0.117E+02-0.786E+01
DMP:  67     0.394466647697E+00   -0.35539E+00   -0.36459E+01    36   0.123E+02-0.825E+01
DMP:  68     0.637104648776E+00    0.24264E+00   -0.55675E+01    36   0.188E+02-0.127E+02
DMP:  69     0.513484967431E+00   -0.12362E+00   -0.36522E+01    36   0.133E+02-0.109E+02
DMP:  70    -0.198601951207E+01   -0.24995E+01   -0.74966E+00    36   0.677E+00 0.314E+01
DMP:  71     0.226000830776E+01    0.42460E+01   -0.76417E+01    36   0.209E+02-0.474E+01
DMP:  72     0.191119783398E+01   -0.34881E+00   -0.46776E+01    36   0.190E+02-0.192E+02
DMP:  73    -0.133480355302E+01   -0.32460E+01   -0.24022E+01    36   0.397E+01 0.534E+01
DMP:  74     0.418892388766E+01    0.55237E+01   -0.11158E+02    36   0.350E+02-0.187E+02
DMP:  75     0.171442877686E+01   -0.24745E+01   -0.43641E+01    36   0.189E+02-0.209E+02
DMP:  76    -0.166724544004E+01   -0.33817E+01   -0.14316E+01    36   0.125E+02-0.235E+02
DMP:  77    -0.928331587418E+00    0.73891E+00   -0.19543E+01    36   0.578E+01-0.234E+01
DMP:  78     0.267791295343E+01    0.36062E+01   -0.77805E+01    36   0.227E+02-0.841E+01
DMP:  79     0.177572418964E+01   -0.90219E+00   -0.50873E+01    36   0.191E+02-0.168E+02
DMP:  80    -0.161860943500E+01   -0.33943E+01   -0.41677E+01    36   0.634E+01 0.107E+02
DMP:  81     0.386605759450E+01    0.54847E+01   -0.10391E+02    36   0.317E+02-0.151E+02
DMP:  82     0.213415144489E+01   -0.17319E+01   -0.41798E+01    36   0.185E+02-0.211E+02
DMP:  83    -0.140377052393E+01   -0.35379E+01   -0.87637E+00    36   0.887E+00 0.341E+01
DMP:  84     0.117688397290E+01    0.25807E+01   -0.60128E+01    36   0.169E+02-0.477E+01
DMP:  85     0.149727558975E+01    0.32039E+00   -0.45655E+01    36   0.173E+02-0.153E+02
DMP:  86    -0.177446175980E+00   -0.16747E+01   -0.42374E+01    36   0.161E+02-0.145E+02
DMP:  87    -0.498260881790E+00   -0.32081E+00   -0.61744E+01    36   0.203E+02-0.128E+02
DMP:  88     0.620188977599E-01    0.56028E+00   -0.31944E+01    36   0.101E+02-0.562E+01
DMP:  89     0.625753625806E+00    0.56373E+00   -0.39063E+01    36   0.132E+02-0.897E+01
DMP:  90     0.233950237149E+00   -0.39180E+00   -0.36492E+01    36   0.130E+02-0.103E+02
DMP:  91     0.109162925818E+00   -0.12479E+00   -0.29893E+01    36   0.110E+02-0.935E+01
DMP:  92     0.366890977582E+00    0.25773E+00   -0.51153E+01    36   0.175E+02-0.122E+02
DMP:  93     0.138947728187E+00   -0.22794E+00   -0.32045E+01    36   0.110E+02-0.787E+01
DMP:  94    -0.192337046258E+01   -0.20623E+01    0.46781E+00    36   0.354E+01-0.123E+02
DMP:  95    -0.149442079022E+00    0.17739E+01   -0.33165E+02    36   0.859E+02-0.772E+01
DMP:  96     0.496735563486E+00    0.64618E+00   -0.35256E+01    36   0.127E+02-0.103E+02
DMP:  97    -0.179986530405E+01   -0.22966E+01   -0.12759E+01    36   0.169E+01 0.392E+01
DMP:  98     0.366703913994E+01    0.54669E+01   -0.10728E+02    36   0.307E+02-0.101E+02
DMP:  99     0.208255983021E+01   -0.15845E+01   -0.45419E+01    36   0.205E+02-0.240E+02
DMP: 100    -0.119641863751E+01   -0.32790E+01   -0.41227E+01    36   0.716E+01 0.824E+01
DMP: 101     0.372561929386E+01    0.49220E+01   -0.10116E+02    36   0.311E+02-0.152E+02
DMP: 102     0.171914477772E+01   -0.20065E+01   -0.38436E+01    36   0.181E+02-0.222E+02
DMP: 103    -0.124517047780E+01   -0.29643E+01   -0.77742E+00    36   0.552E+01-0.936E+01
DMP: 104    -0.148656188722E+01   -0.24139E+00   -0.24872E-01    36   0.424E-01 0.518E-01
DMP: 105    -0.149915374346E+01   -0.12592E-01   -0.10254E-01    36   0.241E-01 0.415E-02
DMP: 106    -0.159471554256E+01   -0.95562E-01   -0.91531E+00    36   0.237E+01-0.214E+00
DMP: 107    -0.535644393087E+00    0.10591E+01   -0.19209E+02    36   0.525E+02-0.117E+02
DMP: 108    -0.156196276916E+00    0.37945E+00   -0.28212E+01    36   0.969E+01-0.691E+01
DMP: 109    -0.200324486926E+01   -0.18470E+01    0.23765E-01    36   0.303E-01-0.235E+00
DMP: 110     0.211232270580E+01    0.41156E+01   -0.74221E+01    36   0.199E+02-0.352E+01
DMP: 111     0.193252370714E+01   -0.17980E+00   -0.46778E+01    36   0.190E+02-0.190E+02
DMP: 112    -0.135670389751E+01   -0.32892E+01   -0.21466E+01    36   0.350E+01 0.489E+01
DMP: 113     0.413101487480E+01    0.54877E+01   -0.11103E+02    36   0.338E+02-0.158E+02
DMP: 114     0.141013647692E+01   -0.27209E+01   -0.36709E+01    36   0.170E+02-0.206E+02
DMP: 115    -0.176342197338E+01   -0.31736E+01   -0.43826E+01    36   0.598E+01 0.130E+02
DMP: 116     0.212156850879E+01    0.38850E+01   -0.66447E+01    36   0.197E+02-0.821E+01
DMP: 117     0.153560244077E+01   -0.58597E+00   -0.45682E+01    36   0.179E+02-0.169E+02
DMP: 118    -0.169129822665E+01   -0.32269E+01   -0.38088E+01    36   0.573E+01 0.993E+01
DMP: 119     0.346518726275E+01    0.51565E+01   -0.99859E+01    36   0.293E+02-0.114E+02
DMP: 120     0.164555702393E+01   -0.18196E+01   -0.41076E+01    36   0.182E+02-0.208E+02
DMP: 121    -0.131172448828E+01   -0.29573E+01   -0.33344E+01    36   0.575E+01 0.678E+01
DMP: 122     0.406916717218E+01    0.53809E+01   -0.11043E+02    36   0.343E+02-0.175E+02
DMP: 123     0.152410583840E+01   -0.25451E+01   -0.41746E+01    36   0.182E+02-0.202E+02
DMP: 124    -0.180905647056E+01   -0.33332E+01   -0.36616E+01    36   0.469E+01 0.117E+02
DMP: 125     0.215474435886E+01    0.39638E+01   -0.67935E+01    36   0.200E+02-0.798E+01
DMP: 126     0.133270018008E+01   -0.82204E+00   -0.42682E+01    36   0.168E+02-0.161E+02
DMP: 127    -0.158232470953E+01   -0.29150E+01   -0.20713E+01    36   0.321E+01 0.514E+01
DMP: 128     0.406534796907E+01    0.56477E+01   -0.11398E+02    36   0.337E+02-0.137E+02
DMP: 129     0.240448549520E+01   -0.16609E+01   -0.40636E+01    36   0.191E+02-0.233E+02
DMP: 130    -0.592322505507E+00   -0.29968E+01   -0.30495E+01    36   0.539E+01 0.586E+01
DMP: 131     0.438118264890E+01    0.49735E+01   -0.11181E+02    36   0.341E+02-0.160E+02
DMP: 132     0.177869848480E+01   -0.26025E+01   -0.46732E+01    36   0.193E+02-0.199E+02
DMP: 133    -0.218232783934E+00   -0.19969E+01   -0.30635E+01    36   0.110E+02-0.876E+01
DMP: 134     0.743793451608E+00    0.96203E+00   -0.39710E+01    36   0.123E+02-0.633E+01
DMP: 135     0.151299698896E+01    0.76920E+00   -0.97909E+01    36   0.322E+02-0.202E+02
DMP: 136     0.603160594254E+00   -0.90984E+00   -0.40778E+01    36   0.138E+02-0.940E+01
DMP: 137    -0.180663912370E+01   -0.24098E+01   -0.10876E+01    36   0.146E+01 0.329E+01
DMP: 138     0.363665797535E+01    0.54433E+01   -0.10857E+02    36   0.309E+02-0.985E+01
DMP: 139     0.201281013330E+01   -0.16238E+01   -0.43625E+01    36   0.196E+02-0.229E+02
DMP: 140    -0.116286093462E+01   -0.31757E+01   -0.28782E+01    36   0.504E+01 0.564E+01
DMP: 141     0.419105386251E+01    0.53539E+01   -0.11208E+02    36   0.348E+02-0.176E+02
DMP: 142     0.144007947419E+01   -0.27510E+01   -0.38488E+01    36   0.175E+02-0.206E+02
DMP: 143    -0.187755944111E+01   -0.33176E+01    0.42396E+00    36   0.128E+01-0.614E+01
DMP: 144     0.656529139722E+00    0.25341E+01   -0.85109E+01    36   0.227E+02-0.378E+01
DMP: 145     0.126752442856E+01    0.61100E+00   -0.47345E+01    36   0.164E+02-0.120E+02
DMP: 146    -0.175771887337E+01   -0.30252E+01   -0.98321E+00    36   0.125E+01 0.317E+01
DMP: 147     0.417319034131E+01    0.59309E+01   -0.12021E+02    36   0.348E+02-0.123E+02
DMP: 148     0.254794064615E+01   -0.16252E+01   -0.42463E+01    36   0.204E+02-0.255E+02
DMP: 149    -0.624151195784E+00   -0.31721E+01   -0.33954E+01    36   0.625E+01 0.586E+01
DMP: 150     0.403254340635E+01    0.46567E+01   -0.10763E+02    36   0.333E+02-0.168E+02
DMP: 151     0.131274093767E+01   -0.27198E+01   -0.36158E+01    36   0.167E+02-0.200E+02
DMP: 152    -0.147037559846E+00   -0.14598E+01   -0.15254E+01    36   0.576E+01-0.511E+01
DMP: 153     0.296135190004E+00    0.44317E+00   -0.40549E+01    36   0.121E+02-0.504E+01
DMP: 154     0.120116947620E+01    0.90503E+00   -0.11703E+02    36   0.385E+02-0.241E+02
DMP: 155     0.483299571363E+00   -0.71787E+00   -0.35032E+01    36   0.134E+02-0.122E+02
DMP: 156    -0.176202200188E+01   -0.22453E+01   -0.94420E+00    36   0.142E+01 0.246E+01
DMP: 157     0.370697026162E+01    0.54690E+01   -0.11009E+02    36   0.314E+02-0.101E+02
DMP: 158     0.201461825504E+01   -0.16924E+01   -0.43849E+01    36   0.198E+02-0.233E+02
DMP: 159    -0.122180359034E+01   -0.32364E+01   -0.47229E+01    36   0.813E+01 0.962E+01
DMP: 160     0.420466744018E+01    0.54265E+01   -0.10946E+02    36   0.349E+02-0.198E+02
DMP: 161     0.171838471957E+01   -0.24863E+01   -0.44646E+01    36   0.188E+02-0.200E+02
DMP: 162    -0.785196779973E+00   -0.25036E+01   -0.10500E+02    36   0.384E+02-0.319E+02
DMP: 163     0.123638010177E+00    0.90883E+00   -0.30700E+01    36   0.919E+01-0.396E+01
DMP: 164     0.165793724515E+01    0.15343E+01   -0.96013E+01    36   0.300E+02-0.158E+02
DMP: 165     0.766536858515E+00   -0.89140E+00   -0.41093E+01    36   0.144E+02-0.108E+02
DMP: 166    -0.191246339253E+01   -0.26790E+01    0.53186E-01    36   0.511E+00-0.169E+01
DMP: 167     0.145250206402E+01    0.33650E+01   -0.70094E+01    36   0.182E+02-0.184E+01
DMP: 168     0.160883107931E+01    0.15633E+00   -0.47729E+01    36   0.181E+02-0.162E+02
DMP: 169    -0.160362434360E+01   -0.32125E+01   -0.23783E+01    36   0.350E+01 0.642E+01
DMP: 170     0.389985610590E+01    0.55035E+01   -0.11372E+02    36   0.334E+02-0.129E+02
DMP: 171     0.209004543579E+01   -0.18098E+01   -0.40249E+01    36   0.191E+02-0.236E+02
DMP: 172    -0.139747752746E+01   -0.34875E+01   -0.97746E+00    36   0.105E+01 0.366E+01
DMP: 173     0.155188509071E+01    0.29494E+01   -0.48372E+01    36   0.140E+02-0.504E+01
DMP: 174     0.179761155872E+01    0.24573E+00   -0.46233E+01    36   0.170E+02-0.143E+02
DMP: 175     0.290221606196E+00   -0.15074E+01   -0.21917E+01    36   0.876E+01-0.860E+01
DMP: 176     0.741251325677E+00    0.45103E+00   -0.35951E+01    36   0.120E+02-0.800E+01
DMP: 177     0.892074917494E+00    0.15082E+00   -0.79934E+01    36   0.266E+02-0.173E+02
DMP: 178     0.436380021405E+00   -0.45569E+00   -0.33947E+01    36   0.118E+02-0.879E+01
DMP: 179    -0.104632803836E+01   -0.14827E+01   -0.11729E+01    36   0.628E+01-0.876E+01
DMP: 180    -0.150063621982E+01   -0.45431E+00    0.81282E-02    36   0.541E-01-0.195E+00
DMP: 181    -0.140002340732E+01    0.10061E+00   -0.16084E+01    36   0.482E+01-0.208E+01
DMP: 182     0.606223947648E+00    0.20062E+01   -0.47913E+01    36   0.148E+02-0.728E+01
DMP: 183     0.581433379487E+00   -0.24791E-01   -0.35977E+01    36   0.130E+02-0.105E+02
DMP: 184    -0.185035184798E+01   -0.24318E+01   -0.19260E+01    36   0.237E+01 0.641E+01
DMP: 185     0.328509746202E+01    0.51354E+01   -0.97671E+01    36   0.278E+02-0.895E+01
DMP: 186     0.188426081079E+01   -0.14008E+01   -0.45499E+01    36   0.198E+02-0.222E+02
DMP: 187    -0.143108780789E+01   -0.33153E+01   -0.53302E+01    36   0.857E+01 0.124E+02
DMP: 188     0.320965068392E+01    0.46407E+01   -0.93296E+01    36   0.282E+02-0.127E+02
DMP: 189     0.166764889236E+01   -0.15420E+01   -0.38460E+01    36   0.174E+02-0.203E+02
DMP: 190    -0.144059664542E+01   -0.31082E+01   -0.87711E-01    36   0.164E+00 0.146E+00
DMP: 191     0.162403430654E+00    0.16030E+01   -0.10568E+02    36   0.286E+02-0.578E+01
DMP: 192     0.399213978170E+00    0.23681E+00   -0.33309E+01    36   0.120E+02-0.962E+01
DMP: 193    -0.132217922310E+01   -0.17214E+01   -0.73767E+01    36   0.258E+02-0.194E+02
DMP: 194    -0.131238949897E+01    0.97897E-02   -0.13041E+01    36   0.377E+01-0.134E+01
DMP: 195     0.127959456589E+01    0.25920E+01   -0.63362E+01    36   0.186E+02-0.736E+01
DMP: 196     0.798815340752E+00   -0.48078E+00   -0.36523E+01    36   0.141E+02-0.129E+02
DMP: 197    -0.193505112457E+01   -0.27339E+01   -0.29453E+00    36   0.229E+00 0.133E+01
DMP: 198     0.180444816730E+01    0.37395E+01   -0.63023E+01    36   0.177E+02-0.500E+01
DMP: 199     0.153417639214E+01   -0.27027E+00   -0.44056E+01    36   0.173E+02-0.164E+02
DMP: 200    -0.155018350614E+01   -0.30844E+01   -0.28508E+01    36   0.437E+01 0.722E+01
DMP: 201     0.382761716898E+01    0.53778E+01   -0.10818E+02    36   0.321E+02-0.132E+02
DMP: 202     0.211583797151E+01   -0.17118E+01   -0.39499E+01    36   0.184E+02-0.224E+02
DMP: 203    -0.134164393507E+01   -0.34575E+01   -0.18370E+01    36   0.221E+01 0.623E+01
DMP: 204     0.186633852636E+01    0.32080E+01   -0.73013E+01    36   0.213E+02-0.806E+01
DMP: 205     0.142862385434E+01   -0.43771E+00   -0.43653E+01    36   0.170E+02-0.158E+02
DMP: 206    -0.162228800013E+01   -0.30509E+01   -0.29844E+01    36   0.142E+02-0.177E+02
DMP: 207    -0.176540717008E+01   -0.14312E+00   -0.14784E+01    36   0.347E+01 0.600E+00
DMP: 208     0.677540228926E+00    0.24429E+01   -0.58003E+01    36   0.161E+02-0.422E+01
DMP: 209     0.772312106206E+00    0.94772E-01   -0.37991E+01    36   0.140E+02-0.118E+02
DMP: 210    -0.194331158138E+01   -0.27156E+01    0.36186E+00    36   0.406E+00-0.343E+01
DMP: 211     0.153463546465E+01    0.34779E+01   -0.59929E+01    36   0.168E+02-0.463E+01
DMP: 212     0.156781467363E+01    0.33179E-01   -0.45132E+01    36   0.174E+02-0.161E+02
DMP: 213    -0.152747899935E+01   -0.30953E+01   -0.19676E+01    36   0.302E+01 0.496E+01
DMP: 214     0.404957184018E+01    0.55771E+01   -0.11138E+02    36   0.332E+02-0.141E+02
DMP: 215     0.224051413164E+01   -0.18091E+01   -0.38444E+01    36   0.184E+02-0.229E+02
DMP: 216    -0.115169149430E+01   -0.33922E+01   -0.65459E+01    36   0.926E+01 0.186E+02
DMP: 217     0.261092090166E+01    0.37626E+01   -0.71632E+01    36   0.213E+02-0.886E+01
DMP: 218     0.170384000928E+01   -0.90708E+00   -0.48053E+01    36   0.180E+02-0.155E+02
DMP: 219    -0.349016697889E+00   -0.20529E+01   -0.10981E+02    36   0.392E+02-0.308E+02
DMP: 220     0.367619884886E+00    0.71664E+00   -0.31528E+01    36   0.956E+01-0.438E+01
DMP: 221     0.352989097748E+00   -0.14631E-01   -0.16696E+02    36   0.575E+02-0.412E+02
DMP: 222    -0.177191161196E+00   -0.53018E+00   -0.22426E+01    36   0.795E+01-0.613E+01
DMP: 223    -0.514326910291E+00   -0.33714E+00   -0.73733E+01    36   0.253E+02-0.181E+02
DMP: 224    -0.504075654243E+00    0.10251E-01   -0.24761E+01    36   0.806E+01-0.489E+01
DMP: 225     0.717161189624E+00    0.12212E+01   -0.81411E+01    36   0.260E+02-0.147E+02
DMP: 226     0.327413654726E+00   -0.38975E+00   -0.33572E+01    36   0.121E+02-0.977E+01
DMP: 227    -0.183393257502E+01   -0.21613E+01   -0.13518E+01    36   0.177E+01 0.423E+01
DMP: 228     0.364296499871E+01    0.54769E+01   -0.10878E+02    36   0.318E+02-0.121E+02
DMP: 229     0.197437188433E+01   -0.16686E+01   -0.46352E+01    36   0.199E+02-0.217E+02
DMP: 230    -0.117386213652E+01   -0.31482E+01   -0.33233E+01    36   0.581E+01 0.654E+01
DMP: 231     0.402108567601E+01    0.51949E+01   -0.10692E+02    36   0.333E+02-0.172E+02
DMP: 232     0.134755755784E+01   -0.26735E+01   -0.37753E+01    36   0.170E+02-0.198E+02
DMP: 233    -0.155278058737E+01   -0.29003E+01   -0.35919E+01    36   0.190E+02-0.263E+02
DMP: 234    -0.126750518705E+01    0.28528E+00   -0.17199E+01    36   0.448E+01-0.460E+00
DMP: 235     0.227726228992E+01    0.35448E+01   -0.72059E+01    36   0.213E+02-0.871E+01
DMP: 236     0.136382597454E+01   -0.91344E+00   -0.42970E+01    36   0.172E+02-0.169E+02
DMP: 237    -0.152135136876E+01   -0.28852E+01   -0.18192E+01    36   0.289E+01 0.435E+01
DMP: 238     0.397377703798E+01    0.54951E+01   -0.11750E+02    36   0.351E+02-0.150E+02
DMP: 239     0.162028193309E+01   -0.23535E+01   -0.40357E+01    36   0.182E+02-0.212E+02
DMP: 240    -0.171710959345E+01   -0.33374E+01   -0.39380E+01    36   0.527E+01 0.120E+02
DMP: 241     0.226009442990E+01    0.39772E+01   -0.70335E+01    36   0.208E+02-0.846E+01
DMP: 242     0.140106933812E+01   -0.85903E+00   -0.44842E+01    36   0.178E+02-0.172E+02
DMP: 243    -0.187888592060E+01   -0.32800E+01   -0.66431E+00    36   0.632E+00 0.269E+01
DMP: 244     0.174414112230E+01    0.36230E+01   -0.69772E+01    36   0.191E+02-0.434E+01
DMP: 245     0.152302542560E+01   -0.22112E+00   -0.48128E+01    36   0.182E+02-0.162E+02
DMP: 246    -0.165877051251E+01   -0.31818E+01   -0.26352E+01    36   0.379E+01 0.733E+01
DMP: 247     0.360480844525E+01    0.52636E+01   -0.10620E+02    36   0.310E+02-0.117E+02
DMP: 248     0.203925184600E+01   -0.15656E+01   -0.42303E+01    36   0.196E+02-0.236E+02
DMP: 249    -0.147015241840E+01   -0.35094E+01    0.13880E+00    36   0.662E+00-0.264E+01
DMP: 250     0.571576526738E+00    0.20417E+01   -0.45276E+01    36   0.116E+02-0.763E+00
DMP: 251     0.133584868634E+01    0.76427E+00   -0.53438E+01    36   0.174E+02-0.105E+02
DMP: 252    -0.195627228595E+01   -0.32921E+01    0.52161E+00    36   0.739E+00-0.535E+01
DMP: 253     0.153680526581E+01    0.34931E+01   -0.82212E+01    36   0.209E+02-0.103E+01
DMP: 254     0.150623258791E+01   -0.30573E-01   -0.44971E+01    36   0.174E+02-0.162E+02
DMP: 255    -0.156501389015E+01   -0.30712E+01   -0.23873E+01    36   0.361E+01 0.618E+01
DMP: 256     0.387430264394E+01    0.54393E+01   -0.11004E+02    36   0.325E+02-0.131E+02
DMP: 257     0.198076676583E+01   -0.18935E+01   -0.39961E+01    36   0.192E+02-0.241E+02
DMP: 258    -0.144814494469E+01   -0.34289E+01    0.11093E+00    36   0.231E+00-0.133E+01
DMP: 259     0.679926097774E+00    0.21281E+01   -0.34102E+01    36   0.924E+01-0.187E+01
DMP: 260     0.168202343431E+01    0.10021E+01   -0.55469E+01    36   0.179E+02-0.106E+02
DMP: 261    -0.133058223170E+01   -0.30126E+01   -0.38100E+01    36   0.236E+02-0.369E+02
DMP: 262    -0.133099111849E+01   -0.40889E-03   -0.74227E+00    36   0.201E+01-0.409E+00
DMP: 263    -0.103175752509E+01    0.29923E+00   -0.25446E+01    36   0.755E+01-0.312E+01
DMP: 264    -0.865518543415E+00    0.16624E+00   -0.17798E+01    36   0.601E+01-0.408E+01
DMP: 265    -0.670136030501E+00    0.19538E+00   -0.34938E+01    36   0.118E+02-0.794E+01
DMP: 266    -0.599161048394E+00    0.70975E-01   -0.23610E+01    36   0.762E+01-0.450E+01
DMP: 267     0.160776429424E+00    0.75994E+00   -0.27660E+02    36   0.877E+02-0.487E+02
DMP: 268    -0.962321109860E-01   -0.25701E+00   -0.28227E+01    36   0.102E+02-0.816E+01
DMP: 269    -0.188769120087E+01   -0.17915E+01   -0.10673E+01    36   0.131E+01 0.355E+01
DMP: 270     0.303639531894E+01    0.49241E+01   -0.10438E+02    36   0.288E+02-0.709E+01
DMP: 271     0.171020615021E+01   -0.13262E+01   -0.41038E+01    36   0.181E+02-0.204E+02
DMP: 272    -0.128520763701E+01   -0.29954E+01   -0.34566E+01    36   0.590E+01 0.717E+01
DMP: 273     0.383590479956E+01    0.51211E+01   -0.10332E+02    36   0.316E+02-0.150E+02
DMP: 274     0.174866794504E+01   -0.20872E+01   -0.37336E+01    36   0.181E+02-0.229E+02
DMP: 275    -0.143602781148E+01   -0.31847E+01    0.16414E+00    36   0.455E+00-0.227E+01
DMP: 276    -0.807362429511E+00    0.62867E+00   -0.38767E+01    36   0.106E+02-0.250E+01
DMP: 277    -0.223094548400E+00    0.58427E+00   -0.30414E+01    36   0.947E+01-0.488E+01
DMP: 278    -0.103900551560E+01   -0.81591E+00   -0.12994E+02    36   0.496E+02-0.447E+02
DMP: 279    -0.133699599774E+01   -0.29799E+00   -0.10722E+01    36   0.362E+01-0.247E+01
DMP: 280    -0.177469827206E+01   -0.43770E+00   -0.23115E+01    36   0.107E+02-0.129E+02
DMP: 281    -0.178335489254E+01   -0.86566E-02   -0.39678E+00    36   0.128E+01-0.744E+00
DMP: 282     0.142015032222E+01    0.32035E+01   -0.22690E+02    36   0.619E+02-0.136E+02
DMP: 283     0.149428037009E+01    0.74130E-01   -0.44457E+01    36   0.172E+02-0.158E+02
DMP: 284    -0.153462878840E+01   -0.30289E+01   -0.16291E+01    36   0.251E+01 0.410E+01
DMP: 285     0.404056468300E+01    0.55752E+01   -0.11082E+02    36   0.331E+02-0.140E+02
DMP: 286     0.220327391835E+01   -0.18373E+01   -0.37712E+01    36   0.182E+02-0.229E+02
DMP: 287    -0.576898493011E+00   -0.27802E+01   -0.29025E+01    36   0.521E+01 0.535E+01
DMP: 288     0.424191066092E+01    0.48188E+01   -0.10971E+02    36   0.333E+02-0.155E+02
DMP: 289     0.154530363070E+01   -0.26966E+01   -0.45461E+01    36   0.186E+02-0.190E+02
DMP: 290    -0.223553539072E+00   -0.17689E+01   -0.40562E+01    36   0.141E+02-0.104E+02
DMP: 291     0.471278305661E+00    0.69483E+00   -0.41906E+01    36   0.132E+02-0.723E+01
DMP: 292     0.122288799251E+01    0.75161E+00   -0.12696E+02    36   0.415E+02-0.256E+02
DMP: 293     0.346650001974E+00   -0.87624E+00   -0.32988E+01    36   0.121E+02-0.101E+02
DMP: 294    -0.178244640325E+01   -0.21291E+01   -0.80499E+00    36   0.109E+01 0.242E+01
DMP: 295     0.369148566004E+01    0.54739E+01   -0.10902E+02    36   0.311E+02-0.102E+02
DMP: 296     0.201713521044E+01   -0.16744E+01   -0.44982E+01    36   0.202E+02-0.234E+02
DMP: 297    -0.114414223020E+01   -0.31613E+01   -0.27385E+01    36   0.489E+01 0.513E+01
DMP: 298     0.407180569358E+01    0.52159E+01   -0.10864E+02    36   0.336E+02-0.168E+02
DMP: 299     0.196961786464E+01   -0.21022E+01   -0.36151E+01    36   0.178E+02-0.229E+02
DMP: 300    -0.693458363006E+00   -0.26631E+01   -0.30171E+01    36   0.536E+01 0.572E+01
   1 F= -.69345836E+00 E0= -.66533685E+00  d E =-.693458E+00  mag=     3.0000
