<?xml version="1.0" encoding="ISO-8859-1"?>
<modeling>
 <generator>
  <i name="program" type="string">vasp </i>
  <i name="version" type="string">5.4.4.18Apr17-6-g9f103f2a35  </i>
  <i name="subversion" type="string">(build Nov 08 2019 15:19:53) gamma-only         parallel </i>
  <i name="platform" type="string">LinuxIFC </i>
  <i name="date" type="string">2020 11 30 </i>
  <i name="time" type="string">09:30:51 </i>
 </generator>
 <incar>
  <i type="string" name="PREC">accurate</i>
  <i type="string" name="ALGO"> D</i>
  <i type="int" name="ISPIN">     2</i>
  <i type="int" name="NELM">   300</i>
  <i type="int" name="IBRION">     2</i>
  <i name="EDIFF">      0.00005000</i>
  <i type="int" name="NSW">    99</i>
  <i type="int" name="ISIF">     2</i>
  <i name="ENCUT">    520.00000000</i>
  <v name="MAGMOM">      0.60000000</v>
  <i type="string" name="LREAL"> Auto</i>
  <i type="int" name="ISMEAR">     0</i>
  <i name="SIGMA">      0.05000000</i>
  <i type="logical" name="LWAVE"> F  </i>
  <i type="int" name="LORBIT">    11</i>
  <i type="logical" name="LASPH"> T  </i>
  <v type="int" name="KPOINT_BSE">    -1     0     0     0</v>
  <i type="int" name="NELM">   300</i>
  <i type="logical" name="LASPH"> T  </i>
 </incar>
 <structure name="primitive_cell" >
  <crystal>
   <varray name="basis" >
    <v>      10.00000000       0.00000000       0.00000000 </v>
    <v>       0.00000000      10.00000000       0.00000000 </v>
    <v>       0.00000000       0.00000000      10.00000000 </v>
   </varray>
   <i name="volume">   1000.00000000 </i>
   <varray name="rec_basis" >
    <v>       0.10000000       0.00000000       0.00000000 </v>
    <v>       0.00000000       0.10000000       0.00000000 </v>
    <v>       0.00000000       0.00000000       0.10000000 </v>
   </varray>
  </crystal>
  <varray name="positions" >
   <v>      -0.50000000      -0.50000000      -0.50000000 </v>
  </varray>
 </structure>
 <varray name="primitive_index" >
  <v type="int" >        1 </v>
 </varray>
 <kpoints>
  <generation param="Gamma">
   <v type="int" name="divisions">       1        1        1 </v>
   <v name="usershift">      0.00000000       0.00000000       0.00000000 </v>
   <v name="genvec1">      1.00000000       0.00000000       0.00000000 </v>
   <v name="genvec2">      0.00000000       1.00000000       0.00000000 </v>
   <v name="genvec3">      0.00000000       0.00000000       1.00000000 </v>
   <v name="shift">      0.00000000       0.00000000       0.00000000 </v>
  </generation>
  <varray name="kpointlist" >
   <v>       0.00000000       0.00000000       0.00000000 </v>
  </varray>
  <varray name="weights" >
   <v>       1.00000000 </v>
  </varray>
 </kpoints>
 <parameters>
  <separator name="general" >
   <i type="string" name="SYSTEM">unknown system</i>
   <i type="logical" name="LCOMPAT"> F  </i>
  </separator>
  <separator name="electronic" >
   <i type="string" name="PREC">accura</i>
   <i name="ENMAX">    520.00000000</i>
   <i name="ENAUG">    477.81800000</i>
   <i name="EDIFF">      0.00005000</i>
   <i type="int" name="IALGO">    53</i>
   <i type="int" name="IWAVPR">    11</i>
   <i type="int" name="NBANDS">    36</i>
   <i name="NELECT">      9.00000000</i>
   <i type="int" name="TURBO">     0</i>
   <i type="int" name="IRESTART">     0</i>
   <i type="int" name="NREBOOT">     0</i>
   <i type="int" name="NMIN">     0</i>
   <i name="EREF">      0.00000000</i>
   <separator name="electronic smearing" >
    <i type="int" name="ISMEAR">     0</i>
    <i name="SIGMA">      0.05000000</i>
    <i name="KSPACING">      0.50000000</i>
    <i type="logical" name="KGAMMA"> T  </i>
   </separator>
   <separator name="electronic projectors" >
    <i type="logical" name="LREAL"> T  </i>
    <v name="ROPT">     -0.00025000</v>
    <i type="int" name="LMAXPAW">  -100</i>
    <i type="int" name="LMAXMIX">     2</i>
    <i type="logical" name="NLSPLINE"> F  </i>
   </separator>
   <separator name="electronic startup" >
    <i type="int" name="ISTART">     0</i>
    <i type="int" name="ICHARG">     2</i>
    <i type="int" name="INIWAV">     1</i>
   </separator>
   <separator name="electronic spin" >
    <i type="int" name="ISPIN">     2</i>
    <i type="logical" name="LNONCOLLINEAR"> F  </i>
    <v name="MAGMOM">      0.60000000</v>
    <i name="NUPDOWN">     -1.00000000</i>
    <i type="logical" name="LSORBIT"> F  </i>
    <v name="SAXIS">      0.00000000      0.00000000      1.00000000</v>
    <i type="logical" name="LSPIRAL"> F  </i>
    <v name="QSPIRAL">      0.00000000      0.00000000      0.00000000</v>
    <i type="logical" name="LZEROZ"> F  </i>
   </separator>
   <separator name="electronic exchange-correlation" >
    <i type="logical" name="LASPH"> T  </i>
    <i type="logical" name="LMETAGGA"> F  </i>
   </separator>
   <separator name="electronic convergence" >
    <i type="int" name="NELM">   300</i>
    <i type="int" name="NELMDL">    -5</i>
    <i type="int" name="NELMIN">     2</i>
    <i name="ENINI">    520.00000000</i>
    <separator name="electronic convergence detail" >
     <i type="logical" name="LDIAG"> T  </i>
     <i type="logical" name="LSUBROT"> F  </i>
     <i name="WEIMIN">      0.00100000</i>
     <i name="EBREAK">      0.00000035</i>
     <i name="DEPER">      0.30000000</i>
     <i type="int" name="NRMM">     4</i>
     <i name="TIME">      0.40000000</i>
    </separator>
   </separator>
   <separator name="electronic mixer" >
    <i name="AMIX">      0.40000000</i>
    <i name="BMIX">      1.00000000</i>
    <i name="AMIN">      0.10000000</i>
    <i name="AMIX_MAG">      1.60000000</i>
    <i name="BMIX_MAG">      1.00000000</i>
    <separator name="electronic mixer details" >
     <i type="int" name="IMIX">     4</i>
     <i type="logical" name="MIXFIRST"> F  </i>
     <i type="int" name="MAXMIX">   -45</i>
     <i name="WC">    100.00000000</i>
     <i type="int" name="INIMIX">     1</i>
     <i type="int" name="MIXPRE">     1</i>
     <i type="int" name="MREMOVE">     5</i>
    </separator>
   </separator>
   <separator name="electronic dipolcorrection" >
    <i type="logical" name="LDIPOL"> F  </i>
    <i type="logical" name="LMONO"> F  </i>
    <i type="int" name="IDIPOL">     0</i>
    <i name="EPSILON">      1.00000000</i>
    <v name="DIPOL">   -100.00000000   -100.00000000   -100.00000000</v>
    <i name="EFIELD">      0.00000000</i>
   </separator>
  </separator>
  <separator name="grids" >
   <i type="int" name="NGX">    80</i>
   <i type="int" name="NGY">    80</i>
   <i type="int" name="NGZ">    80</i>
   <i type="int" name="NGXF">   160</i>
   <i type="int" name="NGYF">   160</i>
   <i type="int" name="NGZF">   160</i>
   <i type="logical" name="ADDGRID"> F  </i>
  </separator>
  <separator name="ionic" >
   <i type="int" name="NSW">    99</i>
   <i type="int" name="IBRION">     2</i>
   <i type="int" name="MDALGO">     0</i>
   <i type="int" name="ISIF">     2</i>
   <i name="PSTRESS">      0.00000000</i>
   <i name="EDIFFG">      0.00050000</i>
   <i type="int" name="NFREE">     1</i>
   <i name="POTIM">      0.50000000</i>
   <i name="SMASS">     -3.00000000</i>
   <i name="SCALEE">      1.00000000</i>
  </separator>
  <separator name="ionic md" >
   <i name="TEBEG">      0.00010000</i>
   <i name="TEEND">      0.00010000</i>
   <i type="int" name="NBLOCK">     1</i>
   <i type="int" name="KBLOCK">    99</i>
   <i type="int" name="NPACO">   256</i>
   <i name="APACO">     16.00000000</i>
  </separator>
  <separator name="symmetry" >
   <i type="int" name="ISYM">     2</i>
   <i name="SYMPREC">      0.00001000</i>
  </separator>
  <separator name="dos" >
   <i type="int" name="LORBIT">    11</i>
   <v name="RWIGS">     -1.00000000</v>
   <i type="int" name="NEDOS">   301</i>
   <i name="EMIN">     10.00000000</i>
   <i name="EMAX">    -10.00000000</i>
   <i name="EFERMI">      0.00000000</i>
  </separator>
  <separator name="writing" >
   <i type="int" name="NWRITE">     2</i>
   <i type="logical" name="LWAVE"> F  </i>
   <i type="logical" name="LDOWNSAMPLE"> F  </i>
   <i type="logical" name="LCHARG"> T  </i>
   <i type="logical" name="LPARD"> F  </i>
   <i type="logical" name="LVTOT"> F  </i>
   <i type="logical" name="LVHAR"> F  </i>
   <i type="logical" name="LELF"> F  </i>
   <i type="logical" name="LOPTICS"> F  </i>
   <v name="STM">      0.00000000      0.00000000      0.00000000      0.00000000      0.00000000      0.00000000      0.00000000</v>
  </separator>
  <separator name="performance" >
   <i type="int" name="NPAR">    36</i>
   <i type="int" name="NSIM">     4</i>
   <i type="int" name="NBLK">    -1</i>
   <i type="logical" name="LPLANE"> T  </i>
   <i type="logical" name="LSCALAPACK"> T  </i>
   <i type="logical" name="LSCAAWARE"> F  </i>
   <i type="logical" name="LSCALU"> F  </i>
   <i type="logical" name="LASYNC"> F  </i>
   <i type="logical" name="LORBITALREAL"> F  </i>
  </separator>
  <separator name="miscellaneous" >
   <i type="int" name="IDIOT">     3</i>
   <i type="int" name="ISPECIAL">     0</i>
   <i type="logical" name="LMUSIC"> F  </i>
   <v name="POMASS">     58.93300000</v>
   <v name="DARWINR">      0.00000000</v>
   <v name="DARWINV">      1.00000000</v>
   <i type="logical" name="LCORR"> T  </i>
  </separator>
  <i type="logical" name="GGA_COMPAT"> T  </i>
  <i type="logical" name="LBERRY"> F  </i>
  <i type="int" name="ICORELEVEL">     0</i>
  <i type="logical" name="LDAU"> F  </i>
  <i type="int" name="I_CONSTRAINED_M">     0</i>
  <separator name="electronic exchange-correlation" >
   <i type="string" name="GGA">--</i>
   <i type="int" name="VOSKOWN">     0</i>
   <i type="logical" name="LHFCALC"> F  </i>
   <i type="string" name="PRECFOCK"></i>
   <i type="logical" name="LSYMGRAD"> F  </i>
   <i type="logical" name="LHFONE"> F  </i>
   <i type="logical" name="LRHFCALC"> F  </i>
   <i type="logical" name="LTHOMAS"> F  </i>
   <i type="logical" name="LMODELHF"> F  </i>
   <i name="ENCUT4O">     -1.00000000</i>
   <i type="int" name="EXXOEP">     0</i>
   <i type="int" name="FOURORBIT">     0</i>
   <i name="AEXX">      0.00000000</i>
   <i name="HFALPHA">      0.00000000</i>
   <i name="MCALPHA">      0.00000000</i>
   <i name="ALDAX">      1.00000000</i>
   <i name="AGGAX">      1.00000000</i>
   <i name="ALDAC">      1.00000000</i>
   <i name="AGGAC">      1.00000000</i>
   <i type="int" name="NKREDX">     1</i>
   <i type="int" name="NKREDY">     1</i>
   <i type="int" name="NKREDZ">     1</i>
   <i type="logical" name="SHIFTRED"> F  </i>
   <i type="logical" name="ODDONLY"> F  </i>
   <i type="logical" name="EVENONLY"> F  </i>
   <i type="int" name="LMAXFOCK">     0</i>
   <i type="int" name="NMAXFOCKAE">     0</i>
   <i type="logical" name="LFOCKAEDFT"> F  </i>
   <i name="HFSCREEN">      0.00000000</i>
   <i name="HFSCREENC">      0.00000000</i>
   <i type="int" name="NBANDSGWLOW">     0</i>
  </separator>
  <separator name="vdW DFT" >
   <i type="logical" name="LUSE_VDW"> F  </i>
   <i name="Zab_VDW">     -0.84910000</i>
   <i name="PARAM1">      0.12340000</i>
   <i name="PARAM2">      1.00000000</i>
   <i name="PARAM3">      0.00000000</i>
  </separator>
  <separator name="model GW" >
   <i type="int" name="MODEL_GW">     0</i>
   <i name="MODEL_EPS0">    600.00000000</i>
   <i name="MODEL_ALPHA">      1.00000000</i>
  </separator>
  <separator name="linear response parameters" >
   <i type="logical" name="LEPSILON"> F  </i>
   <i type="logical" name="LRPA"> F  </i>
   <i type="logical" name="LNABLA"> F  </i>
   <i type="logical" name="LVEL"> F  </i>
   <i type="int" name="KINTER">     0</i>
   <i name="CSHIFT">      0.10000000</i>
   <i name="OMEGAMAX">     -1.00000000</i>
   <i name="DEG_THRESHOLD">      0.00200000</i>
   <i name="RTIME">     -0.10000000</i>
   <i name="WPLASMAI">      0.00000000</i>
   <v name="DFIELD">      0.00000000      0.00000000      0.00000000</v>
   <v name="WPLASMA">      0.00000000      0.00000000      0.00000000      0.00000000      0.00000000      0.00000000      0.00000000      0.00000000      0.00000000</v>
  </separator>
  <separator name="orbital magnetization" >
   <i type="logical" name="NUCIND"> F  </i>
   <v name="MAGPOS">      0.00000000      0.00000000      0.00000000</v>
   <i type="logical" name="LNICSALL"> T  </i>
   <i type="logical" name="ORBITALMAG"> F  </i>
   <i type="logical" name="LMAGBLOCH"> F  </i>
   <i type="logical" name="LCHIMAG"> F  </i>
   <i type="logical" name="LGAUGE"> T  </i>
   <i type="int" name="MAGATOM">     0</i>
   <v name="MAGDIPOL">      0.00000000      0.00000000      0.00000000</v>
   <v name="AVECCONST">      0.00000000      0.00000000      0.00000000</v>
  </separator>
  <separator name="response functions" >
   <i type="logical" name="LADDER"> F  </i>
   <i type="logical" name="LRPAFORCE"> F  </i>
   <i type="logical" name="LFXC"> F  </i>
   <i type="logical" name="LHARTREE"> T  </i>
   <i type="int" name="IBSE">     0</i>
   <v type="int" name="KPOINT">    -1     0     0     0</v>
   <i type="logical" name="LTCTE"> F  </i>
   <i type="logical" name="LTETE"> F  </i>
   <i type="logical" name="LTRIPLET"> F  </i>
   <i type="logical" name="LFXCEPS"> F  </i>
   <i type="logical" name="LFXHEG"> F  </i>
   <i type="int" name="NATURALO">     2</i>
   <i type="logical" name="L2ORDER"> F  </i>
   <i type="logical" name="LMP2LT"> F  </i>
   <i type="logical" name="LUSEW"> F  </i>
   <i name="ENCUTGW">     -2.00000000</i>
   <i name="ENCUTGWSOFT">     -2.00000000</i>
   <i name="ENCUTLF">     -1.00000000</i>
   <i type="int" name="LMAXMP2">    -1</i>
   <i name="SCISSOR">      0.00000000</i>
   <i type="int" name="NOMEGA">     0</i>
   <i type="int" name="NOMEGAR">     0</i>
   <i type="int" name="NBANDSGW">    -1</i>
   <i type="int" name="NBANDSO">    -1</i>
   <i type="int" name="NBANDSV">    -1</i>
   <i type="int" name="NELM">   300</i>
   <i type="int" name="NELMHF">     1</i>
   <i type="int" name="DIM">     3</i>
   <i type="int" name="ANTIRES">     0</i>
   <i name="OMEGAMAX">    -30.00000000</i>
   <i name="OMEGAMIN">    -30.00000000</i>
   <i name="OMEGATL">   -200.00000000</i>
   <i type="int" name="OMEGAGRID">   140</i>
   <i name="CSHIFT">     -0.10000000</i>
   <i type="logical" name="SELFENERGY"> F  </i>
   <i type="logical" name="LSPECTRAL"> F  </i>
   <i type="logical" name="LSPECTRALGW"> F  </i>
   <i type="logical" name="LSINGLES"> F  </i>
   <i type="logical" name="LFERMIGW"> F  </i>
   <i type="logical" name="ODDONLYGW"> F  </i>
   <i type="logical" name="EVENONLYGW"> F  </i>
   <i type="int" name="NKREDLFX">     1</i>
   <i type="int" name="NKREDLFY">     1</i>
   <i type="int" name="NKREDLFZ">     1</i>
   <i type="int" name="MAXMEM">  2800</i>
   <i type="int" name="TELESCOPE">     0</i>
   <i type="int" name="TAUPAR">     1</i>
   <i type="int" name="OMEGAPAR">    -1</i>
   <i name="LAMBDA">      1.00000000</i>
  </separator>
  <separator name="External order field" >
   <i name="OFIELD_KAPPA">      0.00000000</i>
   <v name="OFIELD_K">      0.00000000      0.00000000      0.00000000</v>
   <i name="OFIELD_Q6_NEAR">      0.00000000</i>
   <i name="OFIELD_Q6_FAR">      0.00000000</i>
   <i name="OFIELD_A">      0.00000000</i>
  </separator>
 </parameters>
 <atominfo>
  <atoms>       1 </atoms>
  <types>       1 </types>
  <array name="atoms" >
   <dimension dim="1">ion</dimension>
   <field type="string">element</field>
   <field type="int">atomtype</field>
   <set>
    <rc><c>Co</c><c>   1</c></rc>
   </set>
  </array>
  <array name="atomtypes" >
   <dimension dim="1">type</dimension>
   <field type="int">atomspertype</field>
   <field type="string">element</field>
   <field>mass</field>
   <field>valence</field>
   <field type="string">pseudopotential</field>
   <set>
    <rc><c>   1</c><c>Co</c><c>     58.93300000</c><c>      9.00000000</c><c>  PAW_PBE Co 02Aug2007                  </c></rc>
   </set>
  </array>
 </atominfo>
 <structure name="initialpos" >
  <crystal>
   <varray name="basis" >
    <v>      10.00000000       0.00000000       0.00000000 </v>
    <v>       0.00000000      10.00000000       0.00000000 </v>
    <v>       0.00000000       0.00000000      10.00000000 </v>
   </varray>
   <i name="volume">   1000.00000000 </i>
   <varray name="rec_basis" >
    <v>       0.10000000       0.00000000       0.00000000 </v>
    <v>       0.00000000       0.10000000       0.00000000 </v>
    <v>       0.00000000       0.00000000       0.10000000 </v>
   </varray>
  </crystal>
  <varray name="positions" >
   <v>       0.50000000       0.50000000       0.50000000 </v>
  </varray>
 </structure>
 <calculation>
  <scstep>
   <time name="total">    0.90    0.91</time>
   <energy>
    <i name="alphaZ">      0.42357691 </i>
    <i name="ewald">   -165.46874404 </i>
    <i name="hartreedc">   -572.90750749 </i>
    <i name="XCdc">     14.17920919 </i>
    <i name="pawpsdc">    720.97093593 </i>
    <i name="pawaedc">   -773.99759027 </i>
    <i name="eentropy">     -0.00000000 </i>
    <i name="bandstr">      4.57189573 </i>
    <i name="atom">    813.36418888 </i>
    <i name="e_fr_energy">     41.13596484 </i>
    <i name="e_wo_entrp">     41.13596484 </i>
    <i name="e_0_energy">     41.13596484 </i>
   </energy>
  </scstep>
  <scstep>
   <time name="total">    0.40    0.40</time>
   <energy>
    <i name="e_fr_energy">     11.74105787 </i>
    <i name="e_wo_entrp">     11.74177745 </i>
    <i name="e_0_energy">     11.74141766 </i>
   </energy>
  </scstep>
  <scstep>
   <time name="total">    0.41    0.41</time>
   <energy>
    <i name="e_fr_energy">      1.00702670 </i>
    <i name="e_wo_entrp">      1.03845676 </i>
    <i name="e_0_energy">      1.02274173 </i>
   </energy>
  </scstep>
  <scstep>
   <time name="total">    0.41    0.41</time>
   <energy>
    <i name="e_fr_energy">     -0.49850648 </i>
    <i name="e_wo_entrp">     -0.43448359 </i>
    <i name="e_0_energy">     -0.46649503 </i>
   </energy>
  </scstep>
  <scstep>
   <time name="total">    0.63    0.63</time>
   <energy>
    <i name="e_fr_energy">     -0.75786577 </i>
    <i name="e_wo_entrp">     -0.68986727 </i>
    <i name="e_0_energy">     -0.72386652 </i>
   </energy>
  </scstep>
  <scstep>
   <time name="total">    0.95    0.95</time>
   <energy>
    <i name="e_fr_energy">      1.70887443 </i>
    <i name="e_wo_entrp">      1.75784229 </i>
    <i name="e_0_energy">      1.73335836 </i>
   </energy>
  </scstep>
  <scstep>
   <time name="total">    0.91    0.91</time>
   <energy>
    <i name="e_fr_energy">     25.56625483 </i>
    <i name="e_wo_entrp">     25.60971823 </i>
    <i name="e_0_energy">     25.58798653 </i>
   </energy>
  </scstep>
  <scstep>
   <time name="total">    0.93    0.93</time>
   <energy>
    <i name="e_fr_energy">     18.64651699 </i>
    <i name="e_wo_entrp">     18.64926589 </i>
    <i name="e_0_energy">     18.64789144 </i>
   </energy>
  </scstep>
  <scstep>
   <time name="total">    0.91    0.91</time>
   <energy>
    <i name="e_fr_energy">      4.29397371 </i>
    <i name="e_wo_entrp">      4.30526985 </i>
    <i name="e_0_energy">      4.29962178 </i>
   </energy>
  </scstep>
  <scstep>
   <time name="total">    0.91    0.91</time>
   <energy>
    <i name="e_fr_energy">      3.91428673 </i>
    <i name="e_wo_entrp">      3.91428673 </i>
    <i name="e_0_energy">      3.91428673 </i>
   </energy>
  </scstep>
  <scstep>
   <time name="total">    0.92    0.92</time>
   <energy>
    <i name="e_fr_energy">     -1.24466335 </i>
    <i name="e_wo_entrp">     -1.24466335 </i>
    <i name="e_0_energy">     -1.24466335 </i>
   </energy>
  </scstep>
  <scstep>
   <time name="total">    0.92    0.92</time>
   <energy>
    <i name="e_fr_energy">     -0.73615986 </i>
    <i name="e_wo_entrp">     -0.73615986 </i>
    <i name="e_0_energy">     -0.73615986 </i>
   </energy>
  </scstep>
  <scstep>
   <time name="total">    0.91    0.91</time>
   <energy>
    <i name="e_fr_energy">     -1.56292188 </i>
    <i name="e_wo_entrp">     -1.52530203 </i>
    <i name="e_0_energy">     -1.54411195 </i>
   </energy>
  </scstep>
  <scstep>
   <time name="total">    0.91    0.91</time>
   <energy>
    <i name="e_fr_energy">      2.74368673 </i>
    <i name="e_wo_entrp">      2.74368724 </i>
    <i name="e_0_energy">      2.74368698 </i>
   </energy>
  </scstep>
  <scstep>
   <time name="total">    0.91    0.91</time>
   <energy>
    <i name="e_fr_energy">      2.34233507 </i>
    <i name="e_wo_entrp">      2.34233513 </i>
    <i name="e_0_energy">      2.34233510 </i>
   </energy>
  </scstep>
  <scstep>
   <time name="total">    0.92    0.92</time>
   <energy>
    <i name="e_fr_energy">     -1.52327209 </i>
    <i name="e_wo_entrp">     -1.48494107 </i>
    <i name="e_0_energy">     -1.50410658 </i>
   </energy>
  </scstep>
  <scstep>
   <time name="total">    0.98    0.98</time>
   <energy>
    <i name="e_fr_energy">      4.73891797 </i>
    <i name="e_wo_entrp">      4.78369728 </i>
    <i name="e_0_energy">      4.76130762 </i>
   </energy>
  </scstep>
  <scstep>
   <time name="total">    0.91    0.91</time>
   <energy>
    <i name="e_fr_energy">      1.74952976 </i>
    <i name="e_wo_entrp">      1.79061965 </i>
    <i name="e_0_energy">      1.77007471 </i>
   </energy>
  </scstep>
  <scstep>
   <time name="total">    0.92    0.92</time>
   <energy>
    <i name="e_fr_energy">     -0.88907043 </i>
    <i name="e_wo_entrp">     -0.85057748 </i>
    <i name="e_0_energy">     -0.86982395 </i>
   </energy>
  </scstep>
  <scstep>
   <time name="total">    0.91    0.91</time>
   <energy>
    <i name="e_fr_energy">      3.60625423 </i>
    <i name="e_wo_entrp">      3.64475676 </i>
    <i name="e_0_energy">      3.62550550 </i>
   </energy>
  </scstep>
  <scstep>
   <time name="total">    0.90    0.90</time>
   <energy>
    <i name="e_fr_energy">      1.49070936 </i>
    <i name="e_wo_entrp">      1.49070940 </i>
    <i name="e_0_energy">      1.49070938 </i>
   </energy>
  </scstep>
  <scstep>
   <time name="total">    0.90    0.90</time>
   <energy>
    <i name="e_fr_energy">     -1.38858107 </i>
    <i name="e_wo_entrp">     -1.35006082 </i>
    <i name="e_0_energy">     -1.36932095 </i>
   </energy>
  </scstep>
  <scstep>
   <time name="total">    0.91    0.91</time>
   <energy>
    <i name="e_fr_energy">      3.36629404 </i>
    <i name="e_wo_entrp">      3.41066546 </i>
    <i name="e_0_energy">      3.38847975 </i>
   </energy>
  </scstep>
  <scstep>
   <time name="total">    0.92    0.92</time>
   <energy>
    <i name="e_fr_energy">      1.22568642 </i>
    <i name="e_wo_entrp">      1.27012466 </i>
    <i name="e_0_energy">      1.24790554 </i>
   </energy>
  </scstep>
  <scstep>
   <time name="total">    0.91    0.91</time>
   <energy>
    <i name="e_fr_energy">     -0.77451724 </i>
    <i name="e_wo_entrp">     -0.73469133 </i>
    <i name="e_0_energy">     -0.75460429 </i>
   </energy>
  </scstep>
  <scstep>
   <time name="total">    0.90    0.90</time>
   <energy>
    <i name="e_fr_energy">      3.28477565 </i>
    <i name="e_wo_entrp">      3.28518357 </i>
    <i name="e_0_energy">      3.28497961 </i>
   </energy>
  </scstep>
  <scstep>
   <time name="total">    0.90    0.90</time>
   <energy>
    <i name="e_fr_energy">      0.41858545 </i>
    <i name="e_wo_entrp">      0.41862530 </i>
    <i name="e_0_energy">      0.41860538 </i>
   </energy>
  </scstep>
  <scstep>
   <time name="total">    0.91    0.91</time>
   <energy>
    <i name="e_fr_energy">     -1.32832461 </i>
    <i name="e_wo_entrp">     -1.28977908 </i>
    <i name="e_0_energy">     -1.30905184 </i>
   </energy>
  </scstep>
  <scstep>
   <time name="total">    0.91    0.91</time>
   <energy>
    <i name="e_fr_energy">      3.04727754 </i>
    <i name="e_wo_entrp">      3.09150975 </i>
    <i name="e_0_energy">      3.06939364 </i>
   </energy>
  </scstep>
  <scstep>
   <time name="total">    0.93    0.93</time>
   <energy>
    <i name="e_fr_energy">      0.94119921 </i>
    <i name="e_wo_entrp">      0.98524741 </i>
    <i name="e_0_energy">      0.96322331 </i>
   </energy>
  </scstep>
  <scstep>
   <time name="total">    0.91    0.91</time>
   <energy>
    <i name="e_fr_energy">     -0.78873688 </i>
    <i name="e_wo_entrp">     -0.74983074 </i>
    <i name="e_0_energy">     -0.76928381 </i>
   </energy>
  </scstep>
  <scstep>
   <time name="total">    0.90    0.90</time>
   <energy>
    <i name="e_fr_energy">      3.02339045 </i>
    <i name="e_wo_entrp">      3.02353015 </i>
    <i name="e_0_energy">      3.02346030 </i>
   </energy>
  </scstep>
  <scstep>
   <time name="total">    0.90    0.90</time>
   <energy>
    <i name="e_fr_energy">      0.28681218 </i>
    <i name="e_wo_entrp">      0.28698163 </i>
    <i name="e_0_energy">      0.28689691 </i>
   </energy>
  </scstep>
  <scstep>
   <time name="total">    0.90    0.90</time>
   <energy>
    <i name="e_fr_energy">     -1.32059590 </i>
    <i name="e_wo_entrp">     -1.28204352 </i>
    <i name="e_0_energy">     -1.30131971 </i>
   </energy>
  </scstep>
  <scstep>
   <time name="total">    0.90    0.90</time>
   <energy>
    <i name="e_fr_energy">      2.91434025 </i>
    <i name="e_wo_entrp">      2.95540595 </i>
    <i name="e_0_energy">      2.93487310 </i>
   </energy>
  </scstep>
  <scstep>
   <time name="total">    0.92    0.92</time>
   <energy>
    <i name="e_fr_energy">      0.73630967 </i>
    <i name="e_wo_entrp">      0.77299343 </i>
    <i name="e_0_energy">      0.75465155 </i>
   </energy>
  </scstep>
  <scstep>
   <time name="total">    0.92    0.92</time>
   <energy>
    <i name="e_fr_energy">     -0.94289773 </i>
    <i name="e_wo_entrp">     -0.90433861 </i>
    <i name="e_0_energy">     -0.92361817 </i>
   </energy>
  </scstep>
  <scstep>
   <time name="total">    0.91    0.91</time>
   <energy>
    <i name="e_fr_energy">      2.90430967 </i>
    <i name="e_wo_entrp">      2.94290605 </i>
    <i name="e_0_energy">      2.92360786 </i>
   </energy>
  </scstep>
  <scstep>
   <time name="total">    0.90    0.90</time>
   <energy>
    <i name="e_fr_energy">      0.97141934 </i>
    <i name="e_wo_entrp">      1.00998463 </i>
    <i name="e_0_energy">      0.99070199 </i>
   </energy>
  </scstep>
  <scstep>
   <time name="total">    0.90    0.90</time>
   <energy>
    <i name="e_fr_energy">     -0.62475191 </i>
    <i name="e_wo_entrp">     -0.58493900 </i>
    <i name="e_0_energy">     -0.60484545 </i>
   </energy>
  </scstep>
  <scstep>
   <time name="total">    0.90    0.90</time>
   <energy>
    <i name="e_fr_energy">      3.32444791 </i>
    <i name="e_wo_entrp">      3.36308947 </i>
    <i name="e_0_energy">      3.34376869 </i>
   </energy>
  </scstep>
  <scstep>
   <time name="total">    0.90    0.90</time>
   <energy>
    <i name="e_fr_energy">      1.00232404 </i>
    <i name="e_wo_entrp">      1.06981960 </i>
    <i name="e_0_energy">      1.03607182 </i>
   </energy>
  </scstep>
  <scstep>
   <time name="total">    0.91    0.91</time>
   <energy>
    <i name="e_fr_energy">     -0.54038549 </i>
    <i name="e_wo_entrp">     -0.50181231 </i>
    <i name="e_0_energy">     -0.52109890 </i>
   </energy>
  </scstep>
  <scstep>
   <time name="total">    0.91    0.91</time>
   <energy>
    <i name="e_fr_energy">      0.28210812 </i>
    <i name="e_wo_entrp">      0.32071392 </i>
    <i name="e_0_energy">      0.30141102 </i>
   </energy>
  </scstep>
  <scstep>
   <time name="total">    0.91    0.91</time>
   <energy>
    <i name="e_fr_energy">      1.10718902 </i>
    <i name="e_wo_entrp">      1.11217836 </i>
    <i name="e_0_energy">      1.10968369 </i>
   </energy>
  </scstep>
  <scstep>
   <time name="total">    0.91    0.91</time>
   <energy>
    <i name="e_fr_energy">      0.43742221 </i>
    <i name="e_wo_entrp">      0.47706123 </i>
    <i name="e_0_energy">      0.45724172 </i>
   </energy>
  </scstep>
  <scstep>
   <time name="total">    0.90    0.90</time>
   <energy>
    <i name="e_fr_energy">      0.50949463 </i>
    <i name="e_wo_entrp">      0.54913658 </i>
    <i name="e_0_energy">      0.52931560 </i>
   </energy>
  </scstep>
  <scstep>
   <time name="total">    0.88    0.88</time>
   <energy>
    <i name="e_fr_energy">      0.95672507 </i>
    <i name="e_wo_entrp">      1.00778089 </i>
    <i name="e_0_energy">      0.98225298 </i>
   </energy>
  </scstep>
  <scstep>
   <time name="total">    0.90    0.90</time>
   <energy>
    <i name="e_fr_energy">     -1.12101434 </i>
    <i name="e_wo_entrp">     -1.07769927 </i>
    <i name="e_0_energy">     -1.09935681 </i>
   </energy>
  </scstep>
  <scstep>
   <time name="total">    0.90    0.91</time>
   <energy>
    <i name="e_fr_energy">      2.08707410 </i>
    <i name="e_wo_entrp">      2.12617235 </i>
    <i name="e_0_energy">      2.10662322 </i>
   </energy>
  </scstep>
  <scstep>
   <time name="total">    0.90    0.90</time>
   <energy>
    <i name="e_fr_energy">      1.66774466 </i>
    <i name="e_wo_entrp">      1.74070999 </i>
    <i name="e_0_energy">      1.70422733 </i>
   </energy>
  </scstep>
  <scstep>
   <time name="total">    0.90    0.90</time>
   <energy>
    <i name="e_fr_energy">     -1.26235259 </i>
    <i name="e_wo_entrp">     -1.19518367 </i>
    <i name="e_0_energy">     -1.22876813 </i>
   </energy>
  </scstep>
  <scstep>
   <time name="total">    0.91    0.91</time>
   <energy>
    <i name="e_fr_energy">      1.42101379 </i>
    <i name="e_wo_entrp">      1.48348434 </i>
    <i name="e_0_energy">      1.45224907 </i>
   </energy>
  </scstep>
  <scstep>
   <time name="total">    0.92    0.92</time>
   <energy>
    <i name="e_fr_energy">      1.77911235 </i>
    <i name="e_wo_entrp">      1.82289653 </i>
    <i name="e_0_energy">      1.80100444 </i>
   </energy>
  </scstep>
  <scstep>
   <time name="total">    0.91    0.91</time>
   <energy>
    <i name="e_fr_energy">     -0.87103663 </i>
    <i name="e_wo_entrp">     -0.83247127 </i>
    <i name="e_0_energy">     -0.85175395 </i>
   </energy>
  </scstep>
  <scstep>
   <time name="total">    0.91    0.91</time>
   <energy>
    <i name="e_fr_energy">     -0.51831805 </i>
    <i name="e_wo_entrp">     -0.51763143 </i>
    <i name="e_0_energy">     -0.51797474 </i>
   </energy>
  </scstep>
  <scstep>
   <time name="total">    0.91    0.91</time>
   <energy>
    <i name="e_fr_energy">      0.70657118 </i>
    <i name="e_wo_entrp">      0.74513547 </i>
    <i name="e_0_energy">      0.72585333 </i>
   </energy>
  </scstep>
  <scstep>
   <time name="total">    0.90    0.90</time>
   <energy>
    <i name="e_fr_energy">      1.03308676 </i>
    <i name="e_wo_entrp">      1.09878603 </i>
    <i name="e_0_energy">      1.06593639 </i>
   </energy>
  </scstep>
  <scstep>
   <time name="total">    0.90    0.90</time>
   <energy>
    <i name="e_fr_energy">      0.77711056 </i>
    <i name="e_wo_entrp">      0.80528612 </i>
    <i name="e_0_energy">      0.79119834 </i>
   </energy>
  </scstep>
  <scstep>
   <time name="total">    0.90    0.90</time>
   <energy>
    <i name="e_fr_energy">      0.53357129 </i>
    <i name="e_wo_entrp">      0.57213494 </i>
    <i name="e_0_energy">      0.55285312 </i>
   </energy>
  </scstep>
  <scstep>
   <time name="total">    0.92    0.92</time>
   <energy>
    <i name="e_fr_energy">      0.88901191 </i>
    <i name="e_wo_entrp">      0.95431698 </i>
    <i name="e_0_energy">      0.92166445 </i>
   </energy>
  </scstep>
  <scstep>
   <time name="total">    0.90    0.90</time>
   <energy>
    <i name="e_fr_energy">      1.00737633 </i>
    <i name="e_wo_entrp">      1.01954454 </i>
    <i name="e_0_energy">      1.01346043 </i>
   </energy>
  </scstep>
  <scstep>
   <time name="total">    0.90    0.90</time>
   <energy>
    <i name="e_fr_energy">      0.37790316 </i>
    <i name="e_wo_entrp">      0.41646719 </i>
    <i name="e_0_energy">      0.39718518 </i>
   </energy>
  </scstep>
  <scstep>
   <time name="total">    0.91    0.91</time>
   <energy>
    <i name="e_fr_energy">      0.66755680 </i>
    <i name="e_wo_entrp">      0.70998221 </i>
    <i name="e_0_energy">      0.68876951 </i>
   </energy>
  </scstep>
  <scstep>
   <time name="total">    0.90    0.90</time>
   <energy>
    <i name="e_fr_energy">      0.78253611 </i>
    <i name="e_wo_entrp">      0.83095442 </i>
    <i name="e_0_energy">      0.80674527 </i>
   </energy>
  </scstep>
  <scstep>
   <time name="total">    0.91    0.91</time>
   <energy>
    <i name="e_fr_energy">      0.74985217 </i>
    <i name="e_wo_entrp">      0.75238351 </i>
    <i name="e_0_energy">      0.75111784 </i>
   </energy>
  </scstep>
  <scstep>
   <time name="total">    0.91    0.91</time>
   <energy>
    <i name="e_fr_energy">      0.39446665 </i>
    <i name="e_wo_entrp">      0.43352161 </i>
    <i name="e_0_energy">      0.41399413 </i>
   </energy>
  </scstep>
  <scstep>
   <time name="total">    0.91    0.91</time>
   <energy>
    <i name="e_fr_energy">      0.63710465 </i>
    <i name="e_wo_entrp">      0.65793294 </i>
    <i name="e_0_energy">      0.64751880 </i>
   </energy>
  </scstep>
  <scstep>
   <time name="total">    0.90    0.90</time>
   <energy>
    <i name="e_fr_energy">      0.51348497 </i>
    <i name="e_wo_entrp">      0.53715109 </i>
    <i name="e_0_energy">      0.52531803 </i>
   </energy>
  </scstep>
  <scstep>
   <time name="total">    0.90    0.90</time>
   <energy>
    <i name="e_fr_energy">     -1.98601951 </i>
    <i name="e_wo_entrp">     -1.94745698 </i>
    <i name="e_0_energy">     -1.96673825 </i>
   </energy>
  </scstep>
  <scstep>
   <time name="total">    0.91    0.91</time>
   <energy>
    <i name="e_fr_energy">      2.26000831 </i>
    <i name="e_wo_entrp">      2.26016840 </i>
    <i name="e_0_energy">      2.26008835 </i>
   </energy>
  </scstep>
  <scstep>
   <time name="total">    0.90    0.90</time>
   <energy>
    <i name="e_fr_energy">      1.91119783 </i>
    <i name="e_wo_entrp">      1.91158415 </i>
    <i name="e_0_energy">      1.91139099 </i>
   </energy>
  </scstep>
  <scstep>
   <time name="total">    0.90    0.90</time>
   <energy>
    <i name="e_fr_energy">     -1.33480355 </i>
    <i name="e_wo_entrp">     -1.28822733 </i>
    <i name="e_0_energy">     -1.31151544 </i>
   </energy>
  </scstep>
  <scstep>
   <time name="total">    0.91    0.91</time>
   <energy>
    <i name="e_fr_energy">      4.18892389 </i>
    <i name="e_wo_entrp">      4.21297210 </i>
    <i name="e_0_energy">      4.20094800 </i>
   </energy>
  </scstep>
  <scstep>
   <time name="total">    0.91    0.91</time>
   <energy>
    <i name="e_fr_energy">      1.71442878 </i>
    <i name="e_wo_entrp">      1.75811108 </i>
    <i name="e_0_energy">      1.73626993 </i>
   </energy>
  </scstep>
  <scstep>
   <time name="total">    0.91    0.91</time>
   <energy>
    <i name="e_fr_energy">     -1.66724544 </i>
    <i name="e_wo_entrp">     -1.61528843 </i>
    <i name="e_0_energy">     -1.64126693 </i>
   </energy>
  </scstep>
  <scstep>
   <time name="total">    0.90    0.90</time>
   <energy>
    <i name="e_fr_energy">     -0.92833159 </i>
    <i name="e_wo_entrp">     -0.86731923 </i>
    <i name="e_0_energy">     -0.89782541 </i>
   </energy>
  </scstep>
  <scstep>
   <time name="total">    0.90    0.91</time>
   <energy>
    <i name="e_fr_energy">      2.67791295 </i>
    <i name="e_wo_entrp">      2.71108317 </i>
    <i name="e_0_energy">      2.69449806 </i>
   </energy>
  </scstep>
  <scstep>
   <time name="total">    0.90    0.90</time>
   <energy>
    <i name="e_fr_energy">      1.77572419 </i>
    <i name="e_wo_entrp">      1.78470703 </i>
    <i name="e_0_energy">      1.78021561 </i>
   </energy>
  </scstep>
  <scstep>
   <time name="total">    0.92    0.92</time>
   <energy>
    <i name="e_fr_energy">     -1.61860944 </i>
    <i name="e_wo_entrp">     -1.55271491 </i>
    <i name="e_0_energy">     -1.58566217 </i>
   </energy>
  </scstep>
  <scstep>
   <time name="total">    0.90    0.90</time>
   <energy>
    <i name="e_fr_energy">      3.86605759 </i>
    <i name="e_wo_entrp">      3.92933994 </i>
    <i name="e_0_energy">      3.89769877 </i>
   </energy>
  </scstep>
  <scstep>
   <time name="total">    0.90    0.90</time>
   <energy>
    <i name="e_fr_energy">      2.13415144 </i>
    <i name="e_wo_entrp">      2.18772712 </i>
    <i name="e_0_energy">      2.16093928 </i>
   </energy>
  </scstep>
  <scstep>
   <time name="total">    0.90    0.90</time>
   <energy>
    <i name="e_fr_energy">     -1.40377052 </i>
    <i name="e_wo_entrp">     -1.38229629 </i>
    <i name="e_0_energy">     -1.39303341 </i>
   </energy>
  </scstep>
  <scstep>
   <time name="total">    0.92    0.93</time>
   <energy>
    <i name="e_fr_energy">      1.17688397 </i>
    <i name="e_wo_entrp">      1.21544751 </i>
    <i name="e_0_energy">      1.19616574 </i>
   </energy>
  </scstep>
  <scstep>
   <time name="total">    0.91    0.91</time>
   <energy>
    <i name="e_fr_energy">      1.49727559 </i>
    <i name="e_wo_entrp">      1.55150848 </i>
    <i name="e_0_energy">      1.52439204 </i>
   </energy>
  </scstep>
  <scstep>
   <time name="total">    0.91    0.91</time>
   <energy>
    <i name="e_fr_energy">     -0.17744618 </i>
    <i name="e_wo_entrp">     -0.12343751 </i>
    <i name="e_0_energy">     -0.15044184 </i>
   </energy>
  </scstep>
  <scstep>
   <time name="total">    0.90    0.90</time>
   <energy>
    <i name="e_fr_energy">     -0.49826088 </i>
    <i name="e_wo_entrp">     -0.45968006 </i>
    <i name="e_0_energy">     -0.47897047 </i>
   </energy>
  </scstep>
  <scstep>
   <time name="total">    0.89    0.89</time>
   <energy>
    <i name="e_fr_energy">      0.06201890 </i>
    <i name="e_wo_entrp">      0.09968359 </i>
    <i name="e_0_energy">      0.08085124 </i>
   </energy>
  </scstep>
  <scstep>
   <time name="total">    0.90    0.90</time>
   <energy>
    <i name="e_fr_energy">      0.62575363 </i>
    <i name="e_wo_entrp">      0.66447065 </i>
    <i name="e_0_energy">      0.64511214 </i>
   </energy>
  </scstep>
  <scstep>
   <time name="total">    0.91    0.91</time>
   <energy>
    <i name="e_fr_energy">      0.23395024 </i>
    <i name="e_wo_entrp">      0.27068719 </i>
    <i name="e_0_energy">      0.25231871 </i>
   </energy>
  </scstep>
  <scstep>
   <time name="total">    0.90    0.90</time>
   <energy>
    <i name="e_fr_energy">      0.10916293 </i>
    <i name="e_wo_entrp">      0.14799803 </i>
    <i name="e_0_energy">      0.12858048 </i>
   </energy>
  </scstep>
  <scstep>
   <time name="total">    0.90    0.90</time>
   <energy>
    <i name="e_fr_energy">      0.36689098 </i>
    <i name="e_wo_entrp">      0.36707834 </i>
    <i name="e_0_energy">      0.36698466 </i>
   </energy>
  </scstep>
  <scstep>
   <time name="total">    0.91    0.91</time>
   <energy>
    <i name="e_fr_energy">      0.13894773 </i>
    <i name="e_wo_entrp">      0.17184322 </i>
    <i name="e_0_energy">      0.15539547 </i>
   </energy>
  </scstep>
  <scstep>
   <time name="total">    0.90    0.90</time>
   <energy>
    <i name="e_fr_energy">     -1.92337046 </i>
    <i name="e_wo_entrp">     -1.87859716 </i>
    <i name="e_0_energy">     -1.90098381 </i>
   </energy>
  </scstep>
  <scstep>
   <time name="total">    0.90    0.90</time>
   <energy>
    <i name="e_fr_energy">     -0.14944208 </i>
    <i name="e_wo_entrp">     -0.14943508 </i>
    <i name="e_0_energy">     -0.14943858 </i>
   </energy>
  </scstep>
  <scstep>
   <time name="total">    0.91    0.91</time>
   <energy>
    <i name="e_fr_energy">      0.49673556 </i>
    <i name="e_wo_entrp">      0.49921885 </i>
    <i name="e_0_energy">      0.49797721 </i>
   </energy>
  </scstep>
  <scstep>
   <time name="total">    0.91    0.91</time>
   <energy>
    <i name="e_fr_energy">     -1.79986530 </i>
    <i name="e_wo_entrp">     -1.76130562 </i>
    <i name="e_0_energy">     -1.78058546 </i>
   </energy>
  </scstep>
  <scstep>
   <time name="total">    0.90    0.90</time>
   <energy>
    <i name="e_fr_energy">      3.66703914 </i>
    <i name="e_wo_entrp">      3.69430544 </i>
    <i name="e_0_energy">      3.68067229 </i>
   </energy>
  </scstep>
  <scstep>
   <time name="total">    0.90    0.90</time>
   <energy>
    <i name="e_fr_energy">      2.08255983 </i>
    <i name="e_wo_entrp">      2.09258995 </i>
    <i name="e_0_energy">      2.08757489 </i>
   </energy>
  </scstep>
  <scstep>
   <time name="total">    0.90    0.90</time>
   <energy>
    <i name="e_fr_energy">     -1.19641864 </i>
    <i name="e_wo_entrp">     -1.15785874 </i>
    <i name="e_0_energy">     -1.17713869 </i>
   </energy>
  </scstep>
  <scstep>
   <time name="total">    0.90    0.90</time>
   <energy>
    <i name="e_fr_energy">      3.72561929 </i>
    <i name="e_wo_entrp">      3.76666000 </i>
    <i name="e_0_energy">      3.74613964 </i>
   </energy>
  </scstep>
  <scstep>
   <time name="total">    0.91    0.91</time>
   <energy>
    <i name="e_fr_energy">      1.71914478 </i>
    <i name="e_wo_entrp">      1.77145804 </i>
    <i name="e_0_energy">      1.74530141 </i>
   </energy>
  </scstep>
  <scstep>
   <time name="total">    0.90    0.90</time>
   <energy>
    <i name="e_fr_energy">     -1.24517048 </i>
    <i name="e_wo_entrp">     -1.20628030 </i>
    <i name="e_0_energy">     -1.22572539 </i>
   </energy>
  </scstep>
  <scstep>
   <time name="total">    0.90    0.90</time>
   <energy>
    <i name="e_fr_energy">     -1.48656189 </i>
    <i name="e_wo_entrp">     -1.44799135 </i>
    <i name="e_0_energy">     -1.46727662 </i>
   </energy>
  </scstep>
  <scstep>
   <time name="total">    0.90    0.90</time>
   <energy>
    <i name="e_fr_energy">     -1.49915374 </i>
    <i name="e_wo_entrp">     -1.45882715 </i>
    <i name="e_0_energy">     -1.47899044 </i>
   </energy>
  </scstep>
  <scstep>
   <time name="total">    0.90    0.90</time>
   <energy>
    <i name="e_fr_energy">     -1.59471554 </i>
    <i name="e_wo_entrp">     -1.55030475 </i>
    <i name="e_0_energy">     -1.57251014 </i>
   </energy>
  </scstep>
  <scstep>
   <time name="total">    0.91    0.91</time>
   <energy>
    <i name="e_fr_energy">     -0.53564439 </i>
    <i name="e_wo_entrp">     -0.53564372 </i>
    <i name="e_0_energy">     -0.53564405 </i>
   </energy>
  </scstep>
  <scstep>
   <time name="total">    0.91    0.91</time>
   <energy>
    <i name="e_fr_energy">     -0.15619628 </i>
    <i name="e_wo_entrp">     -0.13478039 </i>
    <i name="e_0_energy">     -0.14548833 </i>
   </energy>
  </scstep>
  <scstep>
   <time name="total">    0.91    0.91</time>
   <energy>
    <i name="e_fr_energy">     -2.00324487 </i>
    <i name="e_wo_entrp">     -1.96468135 </i>
    <i name="e_0_energy">     -1.98396311 </i>
   </energy>
  </scstep>
  <scstep>
   <time name="total">    0.91    0.91</time>
   <energy>
    <i name="e_fr_energy">      2.11232271 </i>
    <i name="e_wo_entrp">      2.11234925 </i>
    <i name="e_0_energy">      2.11233598 </i>
   </energy>
  </scstep>
  <scstep>
   <time name="total">    0.89    0.89</time>
   <energy>
    <i name="e_fr_energy">      1.93252371 </i>
    <i name="e_wo_entrp">      1.93255080 </i>
    <i name="e_0_energy">      1.93253725 </i>
   </energy>
  </scstep>
  <scstep>
   <time name="total">    0.91    0.91</time>
   <energy>
    <i name="e_fr_energy">     -1.35670390 </i>
    <i name="e_wo_entrp">     -1.31789979 </i>
    <i name="e_0_energy">     -1.33730184 </i>
   </energy>
  </scstep>
  <scstep>
   <time name="total">    0.89    0.90</time>
   <energy>
    <i name="e_fr_energy">      4.13101487 </i>
    <i name="e_wo_entrp">      4.13393269 </i>
    <i name="e_0_energy">      4.13247378 </i>
   </energy>
  </scstep>
  <scstep>
   <time name="total">    0.90    0.90</time>
   <energy>
    <i name="e_fr_energy">      1.41013648 </i>
    <i name="e_wo_entrp">      1.43518837 </i>
    <i name="e_0_energy">      1.42266242 </i>
   </energy>
  </scstep>
  <scstep>
   <time name="total">    0.91    0.91</time>
   <energy>
    <i name="e_fr_energy">     -1.76342197 </i>
    <i name="e_wo_entrp">     -1.72485755 </i>
    <i name="e_0_energy">     -1.74413976 </i>
   </energy>
  </scstep>
  <scstep>
   <time name="total">    0.91    0.91</time>
   <energy>
    <i name="e_fr_energy">      2.12156851 </i>
    <i name="e_wo_entrp">      2.15533557 </i>
    <i name="e_0_energy">      2.13845204 </i>
   </energy>
  </scstep>
  <scstep>
   <time name="total">    0.90    0.91</time>
   <energy>
    <i name="e_fr_energy">      1.53560244 </i>
    <i name="e_wo_entrp">      1.54927186 </i>
    <i name="e_0_energy">      1.54243715 </i>
   </energy>
  </scstep>
  <scstep>
   <time name="total">    0.90    0.91</time>
   <energy>
    <i name="e_fr_energy">     -1.69129823 </i>
    <i name="e_wo_entrp">     -1.65273747 </i>
    <i name="e_0_energy">     -1.67201785 </i>
   </energy>
  </scstep>
  <scstep>
   <time name="total">    0.89    0.89</time>
   <energy>
    <i name="e_fr_energy">      3.46518726 </i>
    <i name="e_wo_entrp">      3.46849245 </i>
    <i name="e_0_energy">      3.46683986 </i>
   </energy>
  </scstep>
  <scstep>
   <time name="total">    0.91    0.91</time>
   <energy>
    <i name="e_fr_energy">      1.64555702 </i>
    <i name="e_wo_entrp">      1.64774064 </i>
    <i name="e_0_energy">      1.64664883 </i>
   </energy>
  </scstep>
  <scstep>
   <time name="total">    0.91    0.91</time>
   <energy>
    <i name="e_fr_energy">     -1.31172449 </i>
    <i name="e_wo_entrp">     -1.26589392 </i>
    <i name="e_0_energy">     -1.28880921 </i>
   </energy>
  </scstep>
  <scstep>
   <time name="total">    0.90    0.90</time>
   <energy>
    <i name="e_fr_energy">      4.06916717 </i>
    <i name="e_wo_entrp">      4.07899987 </i>
    <i name="e_0_energy">      4.07408352 </i>
   </energy>
  </scstep>
  <scstep>
   <time name="total">    0.90    0.90</time>
   <energy>
    <i name="e_fr_energy">      1.52410584 </i>
    <i name="e_wo_entrp">      1.54970726 </i>
    <i name="e_0_energy">      1.53690655 </i>
   </energy>
  </scstep>
  <scstep>
   <time name="total">    0.90    0.90</time>
   <energy>
    <i name="e_fr_energy">     -1.80905647 </i>
    <i name="e_wo_entrp">     -1.77033791 </i>
    <i name="e_0_energy">     -1.78969719 </i>
   </energy>
  </scstep>
  <scstep>
   <time name="total">    0.89    0.89</time>
   <energy>
    <i name="e_fr_energy">      2.15474436 </i>
    <i name="e_wo_entrp">      2.15599609 </i>
    <i name="e_0_energy">      2.15537022 </i>
   </energy>
  </scstep>
  <scstep>
   <time name="total">    0.90    0.90</time>
   <energy>
    <i name="e_fr_energy">      1.33270018 </i>
    <i name="e_wo_entrp">      1.33429051 </i>
    <i name="e_0_energy">      1.33349534 </i>
   </energy>
  </scstep>
  <scstep>
   <time name="total">    0.90    0.90</time>
   <energy>
    <i name="e_fr_energy">     -1.58232471 </i>
    <i name="e_wo_entrp">     -1.54375909 </i>
    <i name="e_0_energy">     -1.56304190 </i>
   </energy>
  </scstep>
  <scstep>
   <time name="total">    0.90    0.90</time>
   <energy>
    <i name="e_fr_energy">      4.06534797 </i>
    <i name="e_wo_entrp">      4.10753131 </i>
    <i name="e_0_energy">      4.08643964 </i>
   </energy>
  </scstep>
  <scstep>
   <time name="total">    0.90    0.90</time>
   <energy>
    <i name="e_fr_energy">      2.40448550 </i>
    <i name="e_wo_entrp">      2.44490143 </i>
    <i name="e_0_energy">      2.42469346 </i>
   </energy>
  </scstep>
  <scstep>
   <time name="total">    0.91    0.91</time>
   <energy>
    <i name="e_fr_energy">     -0.59232251 </i>
    <i name="e_wo_entrp">     -0.53628219 </i>
    <i name="e_0_energy">     -0.56430235 </i>
   </energy>
  </scstep>
  <scstep>
   <time name="total">    0.90    0.90</time>
   <energy>
    <i name="e_fr_energy">      4.38118265 </i>
    <i name="e_wo_entrp">      4.41526172 </i>
    <i name="e_0_energy">      4.39822218 </i>
   </energy>
  </scstep>
  <scstep>
   <time name="total">    0.90    0.90</time>
   <energy>
    <i name="e_fr_energy">      1.77869848 </i>
    <i name="e_wo_entrp">      1.81775473 </i>
    <i name="e_0_energy">      1.79822661 </i>
   </energy>
  </scstep>
  <scstep>
   <time name="total">    0.90    0.90</time>
   <energy>
    <i name="e_fr_energy">     -0.21823278 </i>
    <i name="e_wo_entrp">     -0.17337544 </i>
    <i name="e_0_energy">     -0.19580411 </i>
   </energy>
  </scstep>
  <scstep>
   <time name="total">    0.90    0.90</time>
   <energy>
    <i name="e_fr_energy">      0.74379345 </i>
    <i name="e_wo_entrp">      0.80042922 </i>
    <i name="e_0_energy">      0.77211134 </i>
   </energy>
  </scstep>
  <scstep>
   <time name="total">    0.91    0.91</time>
   <energy>
    <i name="e_fr_energy">      1.51299699 </i>
    <i name="e_wo_entrp">      1.54395105 </i>
    <i name="e_0_energy">      1.52847402 </i>
   </energy>
  </scstep>
  <scstep>
   <time name="total">    0.90    0.90</time>
   <energy>
    <i name="e_fr_energy">      0.60316059 </i>
    <i name="e_wo_entrp">      0.60549849 </i>
    <i name="e_0_energy">      0.60432954 </i>
   </energy>
  </scstep>
  <scstep>
   <time name="total">    0.89    0.90</time>
   <energy>
    <i name="e_fr_energy">     -1.80663912 </i>
    <i name="e_wo_entrp">     -1.76807487 </i>
    <i name="e_0_energy">     -1.78735700 </i>
   </energy>
  </scstep>
  <scstep>
   <time name="total">    0.90    0.90</time>
   <energy>
    <i name="e_fr_energy">      3.63665798 </i>
    <i name="e_wo_entrp">      3.63672061 </i>
    <i name="e_0_energy">      3.63668929 </i>
   </energy>
  </scstep>
  <scstep>
   <time name="total">    0.90    0.90</time>
   <energy>
    <i name="e_fr_energy">      2.01281013 </i>
    <i name="e_wo_entrp">      2.01319602 </i>
    <i name="e_0_energy">      2.01300308 </i>
   </energy>
  </scstep>
  <scstep>
   <time name="total">    0.91    0.91</time>
   <energy>
    <i name="e_fr_energy">     -1.16286093 </i>
    <i name="e_wo_entrp">     -1.12285144 </i>
    <i name="e_0_energy">     -1.14285619 </i>
   </energy>
  </scstep>
  <scstep>
   <time name="total">    0.91    0.91</time>
   <energy>
    <i name="e_fr_energy">      4.19105386 </i>
    <i name="e_wo_entrp">      4.19495009 </i>
    <i name="e_0_energy">      4.19300198 </i>
   </energy>
  </scstep>
  <scstep>
   <time name="total">    0.90    0.90</time>
   <energy>
    <i name="e_fr_energy">      1.44007947 </i>
    <i name="e_wo_entrp">      1.47887127 </i>
    <i name="e_0_energy">      1.45947537 </i>
   </energy>
  </scstep>
  <scstep>
   <time name="total">    0.90    0.90</time>
   <energy>
    <i name="e_fr_energy">     -1.87755944 </i>
    <i name="e_wo_entrp">     -1.83829129 </i>
    <i name="e_0_energy">     -1.85792537 </i>
   </energy>
  </scstep>
  <scstep>
   <time name="total">    0.90    0.90</time>
   <energy>
    <i name="e_fr_energy">      0.65652914 </i>
    <i name="e_wo_entrp">      0.65665886 </i>
    <i name="e_0_energy">      0.65659400 </i>
   </energy>
  </scstep>
  <scstep>
   <time name="total">    0.90    0.90</time>
   <energy>
    <i name="e_fr_energy">      1.26752443 </i>
    <i name="e_wo_entrp">      1.26760135 </i>
    <i name="e_0_energy">      1.26756289 </i>
   </energy>
  </scstep>
  <scstep>
   <time name="total">    0.90    0.90</time>
   <energy>
    <i name="e_fr_energy">     -1.75771887 </i>
    <i name="e_wo_entrp">     -1.71915703 </i>
    <i name="e_0_energy">     -1.73843795 </i>
   </energy>
  </scstep>
  <scstep>
   <time name="total">    0.90    0.90</time>
   <energy>
    <i name="e_fr_energy">      4.17319034 </i>
    <i name="e_wo_entrp">      4.21811865 </i>
    <i name="e_0_energy">      4.19565450 </i>
   </energy>
  </scstep>
  <scstep>
   <time name="total">    0.90    0.90</time>
   <energy>
    <i name="e_fr_energy">      2.54794065 </i>
    <i name="e_wo_entrp">      2.59169904 </i>
    <i name="e_0_energy">      2.56981984 </i>
   </energy>
  </scstep>
  <scstep>
   <time name="total">    0.90    0.90</time>
   <energy>
    <i name="e_fr_energy">     -0.62415120 </i>
    <i name="e_wo_entrp">     -0.58528319 </i>
    <i name="e_0_energy">     -0.60471719 </i>
   </energy>
  </scstep>
  <scstep>
   <time name="total">    0.91    0.91</time>
   <energy>
    <i name="e_fr_energy">      4.03254341 </i>
    <i name="e_wo_entrp">      4.03255207 </i>
    <i name="e_0_energy">      4.03254774 </i>
   </energy>
  </scstep>
  <scstep>
   <time name="total">    0.90    0.90</time>
   <energy>
    <i name="e_fr_energy">      1.31274094 </i>
    <i name="e_wo_entrp">      1.35133756 </i>
    <i name="e_0_energy">      1.33203925 </i>
   </energy>
  </scstep>
  <scstep>
   <time name="total">    0.91    0.91</time>
   <energy>
    <i name="e_fr_energy">     -0.14703756 </i>
    <i name="e_wo_entrp">     -0.14700962 </i>
    <i name="e_0_energy">     -0.14702359 </i>
   </energy>
  </scstep>
  <scstep>
   <time name="total">    0.90    0.90</time>
   <energy>
    <i name="e_fr_energy">      0.29613519 </i>
    <i name="e_wo_entrp">      0.33588508 </i>
    <i name="e_0_energy">      0.31601014 </i>
   </energy>
  </scstep>
  <scstep>
   <time name="total">    0.90    0.90</time>
   <energy>
    <i name="e_fr_energy">      1.20116948 </i>
    <i name="e_wo_entrp">      1.22170252 </i>
    <i name="e_0_energy">      1.21143600 </i>
   </energy>
  </scstep>
  <scstep>
   <time name="total">    0.90    0.90</time>
   <energy>
    <i name="e_fr_energy">      0.48329957 </i>
    <i name="e_wo_entrp">      0.48908967 </i>
    <i name="e_0_energy">      0.48619462 </i>
   </energy>
  </scstep>
  <scstep>
   <time name="total">    0.87    0.87</time>
   <energy>
    <i name="e_fr_energy">     -1.76202200 </i>
    <i name="e_wo_entrp">     -1.72346093 </i>
    <i name="e_0_energy">     -1.74274147 </i>
   </energy>
  </scstep>
  <scstep>
   <time name="total">    0.91    0.91</time>
   <energy>
    <i name="e_fr_energy">      3.70697026 </i>
    <i name="e_wo_entrp">      3.71008805 </i>
    <i name="e_0_energy">      3.70852916 </i>
   </energy>
  </scstep>
  <scstep>
   <time name="total">    0.90    0.91</time>
   <energy>
    <i name="e_fr_energy">      2.01461826 </i>
    <i name="e_wo_entrp">      2.01855470 </i>
    <i name="e_0_energy">      2.01658648 </i>
   </energy>
  </scstep>
  <scstep>
   <time name="total">    0.90    0.90</time>
   <energy>
    <i name="e_fr_energy">     -1.22180359 </i>
    <i name="e_wo_entrp">     -1.16819913 </i>
    <i name="e_0_energy">     -1.19500136 </i>
   </energy>
  </scstep>
  <scstep>
   <time name="total">    0.90    0.90</time>
   <energy>
    <i name="e_fr_energy">      4.20466744 </i>
    <i name="e_wo_entrp">      4.23869067 </i>
    <i name="e_0_energy">      4.22167906 </i>
   </energy>
  </scstep>
  <scstep>
   <time name="total">    0.90    0.90</time>
   <energy>
    <i name="e_fr_energy">      1.71838472 </i>
    <i name="e_wo_entrp">      1.76174463 </i>
    <i name="e_0_energy">      1.74006468 </i>
   </energy>
  </scstep>
  <scstep>
   <time name="total">    0.90    0.90</time>
   <energy>
    <i name="e_fr_energy">     -0.78519678 </i>
    <i name="e_wo_entrp">     -0.74026160 </i>
    <i name="e_0_energy">     -0.76272919 </i>
   </energy>
  </scstep>
  <scstep>
   <time name="total">    0.90    0.90</time>
   <energy>
    <i name="e_fr_energy">      0.12363801 </i>
    <i name="e_wo_entrp">      0.17942825 </i>
    <i name="e_0_energy">      0.15153313 </i>
   </energy>
  </scstep>
  <scstep>
   <time name="total">    0.89    0.89</time>
   <energy>
    <i name="e_fr_energy">      1.65793725 </i>
    <i name="e_wo_entrp">      1.69122832 </i>
    <i name="e_0_energy">      1.67458278 </i>
   </energy>
  </scstep>
  <scstep>
   <time name="total">    0.89    0.89</time>
   <energy>
    <i name="e_fr_energy">      0.76653686 </i>
    <i name="e_wo_entrp">      0.80056991 </i>
    <i name="e_0_energy">      0.78355338 </i>
   </energy>
  </scstep>
  <scstep>
   <time name="total">    0.91    0.91</time>
   <energy>
    <i name="e_fr_energy">     -1.91246339 </i>
    <i name="e_wo_entrp">     -1.87389773 </i>
    <i name="e_0_energy">     -1.89318056 </i>
   </energy>
  </scstep>
  <scstep>
   <time name="total">    0.89    0.90</time>
   <energy>
    <i name="e_fr_energy">      1.45250206 </i>
    <i name="e_wo_entrp">      1.45726531 </i>
    <i name="e_0_energy">      1.45488369 </i>
   </energy>
  </scstep>
  <scstep>
   <time name="total">    0.90    0.90</time>
   <energy>
    <i name="e_fr_energy">      1.60883108 </i>
    <i name="e_wo_entrp">      1.61347290 </i>
    <i name="e_0_energy">      1.61115199 </i>
   </energy>
  </scstep>
  <scstep>
   <time name="total">    0.91    0.91</time>
   <energy>
    <i name="e_fr_energy">     -1.60362434 </i>
    <i name="e_wo_entrp">     -1.56506282 </i>
    <i name="e_0_energy">     -1.58434358 </i>
   </energy>
  </scstep>
  <scstep>
   <time name="total">    0.91    0.91</time>
   <energy>
    <i name="e_fr_energy">      3.89985611 </i>
    <i name="e_wo_entrp">      3.94315823 </i>
    <i name="e_0_energy">      3.92150717 </i>
   </energy>
  </scstep>
  <scstep>
   <time name="total">    0.90    0.91</time>
   <energy>
    <i name="e_fr_energy">      2.09004544 </i>
    <i name="e_wo_entrp">      2.12862262 </i>
    <i name="e_0_energy">      2.10933403 </i>
   </energy>
  </scstep>
  <scstep>
   <time name="total">    0.90    0.90</time>
   <energy>
    <i name="e_fr_energy">     -1.39747753 </i>
    <i name="e_wo_entrp">     -1.35890009 </i>
    <i name="e_0_energy">     -1.37818881 </i>
   </energy>
  </scstep>
  <scstep>
   <time name="total">    0.90    0.90</time>
   <energy>
    <i name="e_fr_energy">      1.55188509 </i>
    <i name="e_wo_entrp">      1.59044995 </i>
    <i name="e_0_energy">      1.57116752 </i>
   </energy>
  </scstep>
  <scstep>
   <time name="total">    0.90    0.90</time>
   <energy>
    <i name="e_fr_energy">      1.79761156 </i>
    <i name="e_wo_entrp">      1.83617799 </i>
    <i name="e_0_energy">      1.81689478 </i>
   </energy>
  </scstep>
  <scstep>
   <time name="total">    0.90    0.90</time>
   <energy>
    <i name="e_fr_energy">      0.29022161 </i>
    <i name="e_wo_entrp">      0.33459535 </i>
    <i name="e_0_energy">      0.31240848 </i>
   </energy>
  </scstep>
  <scstep>
   <time name="total">    0.90    0.90</time>
   <energy>
    <i name="e_fr_energy">      0.74125133 </i>
    <i name="e_wo_entrp">      0.79683816 </i>
    <i name="e_0_energy">      0.76904474 </i>
   </energy>
  </scstep>
  <scstep>
   <time name="total">    0.90    0.90</time>
   <energy>
    <i name="e_fr_energy">      0.89207492 </i>
    <i name="e_wo_entrp">      0.93080280 </i>
    <i name="e_0_energy">      0.91143886 </i>
   </energy>
  </scstep>
  <scstep>
   <time name="total">    0.91    0.91</time>
   <energy>
    <i name="e_fr_energy">      0.43638002 </i>
    <i name="e_wo_entrp">      0.47500799 </i>
    <i name="e_0_energy">      0.45569400 </i>
   </energy>
  </scstep>
  <scstep>
   <time name="total">    0.90    0.90</time>
   <energy>
    <i name="e_fr_energy">     -1.04632804 </i>
    <i name="e_wo_entrp">     -1.00776244 </i>
    <i name="e_0_energy">     -1.02704524 </i>
   </energy>
  </scstep>
  <scstep>
   <time name="total">    0.90    0.90</time>
   <energy>
    <i name="e_fr_energy">     -1.50063622 </i>
    <i name="e_wo_entrp">     -1.46628715 </i>
    <i name="e_0_energy">     -1.48346168 </i>
   </energy>
  </scstep>
  <scstep>
   <time name="total">    0.91    0.91</time>
   <energy>
    <i name="e_fr_energy">     -1.40002341 </i>
    <i name="e_wo_entrp">     -1.36143120 </i>
    <i name="e_0_energy">     -1.38072730 </i>
   </energy>
  </scstep>
  <scstep>
   <time name="total">    0.91    0.91</time>
   <energy>
    <i name="e_fr_energy">      0.60622395 </i>
    <i name="e_wo_entrp">      0.60622449 </i>
    <i name="e_0_energy">      0.60622422 </i>
   </energy>
  </scstep>
  <scstep>
   <time name="total">    0.89    0.89</time>
   <energy>
    <i name="e_fr_energy">      0.58143338 </i>
    <i name="e_wo_entrp">      0.59021331 </i>
    <i name="e_0_energy">      0.58582334 </i>
   </energy>
  </scstep>
  <scstep>
   <time name="total">    0.90    0.90</time>
   <energy>
    <i name="e_fr_energy">     -1.85035185 </i>
    <i name="e_wo_entrp">     -1.81178915 </i>
    <i name="e_0_energy">     -1.83107050 </i>
   </energy>
  </scstep>
  <scstep>
   <time name="total">    0.89    0.89</time>
   <energy>
    <i name="e_fr_energy">      3.28509746 </i>
    <i name="e_wo_entrp">      3.30440297 </i>
    <i name="e_0_energy">      3.29475022 </i>
   </energy>
  </scstep>
  <scstep>
   <time name="total">    0.91    0.91</time>
   <energy>
    <i name="e_fr_energy">      1.88426081 </i>
    <i name="e_wo_entrp">      1.89805636 </i>
    <i name="e_0_energy">      1.89115858 </i>
   </energy>
  </scstep>
  <scstep>
   <time name="total">    0.90    0.90</time>
   <energy>
    <i name="e_fr_energy">     -1.43108781 </i>
    <i name="e_wo_entrp">     -1.39251429 </i>
    <i name="e_0_energy">     -1.41180105 </i>
   </energy>
  </scstep>
  <scstep>
   <time name="total">    0.91    0.91</time>
   <energy>
    <i name="e_fr_energy">      3.20965068 </i>
    <i name="e_wo_entrp">      3.24824839 </i>
    <i name="e_0_energy">      3.22894954 </i>
   </energy>
  </scstep>
  <scstep>
   <time name="total">    0.91    0.91</time>
   <energy>
    <i name="e_fr_energy">      1.66764889 </i>
    <i name="e_wo_entrp">      1.71231592 </i>
    <i name="e_0_energy">      1.68998241 </i>
   </energy>
  </scstep>
  <scstep>
   <time name="total">    0.90    0.90</time>
   <energy>
    <i name="e_fr_energy">     -1.44059665 </i>
    <i name="e_wo_entrp">     -1.38429636 </i>
    <i name="e_0_energy">     -1.41244650 </i>
   </energy>
  </scstep>
  <scstep>
   <time name="total">    0.90    0.90</time>
   <energy>
    <i name="e_fr_energy">      0.16240343 </i>
    <i name="e_wo_entrp">      0.20096841 </i>
    <i name="e_0_energy">      0.18168592 </i>
   </energy>
  </scstep>
  <scstep>
   <time name="total">    0.90    0.90</time>
   <energy>
    <i name="e_fr_energy">      0.39921398 </i>
    <i name="e_wo_entrp">      0.44403440 </i>
    <i name="e_0_energy">      0.42162419 </i>
   </energy>
  </scstep>
  <scstep>
   <time name="total">    0.90    0.90</time>
   <energy>
    <i name="e_fr_energy">     -1.32217922 </i>
    <i name="e_wo_entrp">     -1.32091808 </i>
    <i name="e_0_energy">     -1.32154865 </i>
   </energy>
  </scstep>
  <scstep>
   <time name="total">    0.90    0.90</time>
   <energy>
    <i name="e_fr_energy">     -1.31238950 </i>
    <i name="e_wo_entrp">     -1.27382480 </i>
    <i name="e_0_energy">     -1.29310715 </i>
   </energy>
  </scstep>
  <scstep>
   <time name="total">    0.90    0.90</time>
   <energy>
    <i name="e_fr_energy">      1.27959457 </i>
    <i name="e_wo_entrp">      1.27974265 </i>
    <i name="e_0_energy">      1.27966861 </i>
   </energy>
  </scstep>
  <scstep>
   <time name="total">    0.88    0.88</time>
   <energy>
    <i name="e_fr_energy">      0.79881534 </i>
    <i name="e_wo_entrp">      0.82998504 </i>
    <i name="e_0_energy">      0.81440019 </i>
   </energy>
  </scstep>
  <scstep>
   <time name="total">    0.89    0.90</time>
   <energy>
    <i name="e_fr_energy">     -1.93505112 </i>
    <i name="e_wo_entrp">     -1.89648936 </i>
    <i name="e_0_energy">     -1.91577024 </i>
   </energy>
  </scstep>
  <scstep>
   <time name="total">    0.89    0.89</time>
   <energy>
    <i name="e_fr_energy">      1.80444817 </i>
    <i name="e_wo_entrp">      1.80490150 </i>
    <i name="e_0_energy">      1.80467483 </i>
   </energy>
  </scstep>
  <scstep>
   <time name="total">    0.90    0.90</time>
   <energy>
    <i name="e_fr_energy">      1.53417639 </i>
    <i name="e_wo_entrp">      1.53824279 </i>
    <i name="e_0_energy">      1.53620959 </i>
   </energy>
  </scstep>
  <scstep>
   <time name="total">    0.90    0.90</time>
   <energy>
    <i name="e_fr_energy">     -1.55018351 </i>
    <i name="e_wo_entrp">     -1.51162456 </i>
    <i name="e_0_energy">     -1.53090403 </i>
   </energy>
  </scstep>
  <scstep>
   <time name="total">    0.90    0.90</time>
   <energy>
    <i name="e_fr_energy">      3.82761717 </i>
    <i name="e_wo_entrp">      3.86793512 </i>
    <i name="e_0_energy">      3.84777614 </i>
   </energy>
  </scstep>
  <scstep>
   <time name="total">    0.90    0.90</time>
   <energy>
    <i name="e_fr_energy">      2.11583797 </i>
    <i name="e_wo_entrp">      2.15566704 </i>
    <i name="e_0_energy">      2.13575251 </i>
   </energy>
  </scstep>
  <scstep>
   <time name="total">    0.90    0.90</time>
   <energy>
    <i name="e_fr_energy">     -1.34164394 </i>
    <i name="e_wo_entrp">     -1.29805647 </i>
    <i name="e_0_energy">     -1.31985020 </i>
   </energy>
  </scstep>
  <scstep>
   <time name="total">    0.91    0.91</time>
   <energy>
    <i name="e_fr_energy">      1.86633853 </i>
    <i name="e_wo_entrp">      1.90490318 </i>
    <i name="e_0_energy">      1.88562085 </i>
   </energy>
  </scstep>
  <scstep>
   <time name="total">    0.92    0.92</time>
   <energy>
    <i name="e_fr_energy">      1.42862385 </i>
    <i name="e_wo_entrp">      1.47258894 </i>
    <i name="e_0_energy">      1.45060640 </i>
   </energy>
  </scstep>
  <scstep>
   <time name="total">    0.90    0.91</time>
   <energy>
    <i name="e_fr_energy">     -1.62228800 </i>
    <i name="e_wo_entrp">     -1.60119417 </i>
    <i name="e_0_energy">     -1.61174109 </i>
   </energy>
  </scstep>
  <scstep>
   <time name="total">    0.90    0.90</time>
   <energy>
    <i name="e_fr_energy">     -1.76540717 </i>
    <i name="e_wo_entrp">     -1.72684204 </i>
    <i name="e_0_energy">     -1.74612461 </i>
   </energy>
  </scstep>
  <scstep>
   <time name="total">    0.91    0.91</time>
   <energy>
    <i name="e_fr_energy">      0.67754023 </i>
    <i name="e_wo_entrp">      0.67754634 </i>
    <i name="e_0_energy">      0.67754328 </i>
   </energy>
  </scstep>
  <scstep>
   <time name="total">    0.90    0.90</time>
   <energy>
    <i name="e_fr_energy">      0.77231211 </i>
    <i name="e_wo_entrp">      0.80554220 </i>
    <i name="e_0_energy">      0.78892715 </i>
   </energy>
  </scstep>
  <scstep>
   <time name="total">    0.90    0.90</time>
   <energy>
    <i name="e_fr_energy">     -1.94331158 </i>
    <i name="e_wo_entrp">     -1.90474920 </i>
    <i name="e_0_energy">     -1.92403039 </i>
   </energy>
  </scstep>
  <scstep>
   <time name="total">    0.90    0.90</time>
   <energy>
    <i name="e_fr_energy">      1.53463546 </i>
    <i name="e_wo_entrp">      1.53463591 </i>
    <i name="e_0_energy">      1.53463569 </i>
   </energy>
  </scstep>
  <scstep>
   <time name="total">    0.89    0.90</time>
   <energy>
    <i name="e_fr_energy">      1.56781467 </i>
    <i name="e_wo_entrp">      1.56858893 </i>
    <i name="e_0_energy">      1.56820180 </i>
   </energy>
  </scstep>
  <scstep>
   <time name="total">    0.90    0.90</time>
   <energy>
    <i name="e_fr_energy">     -1.52747900 </i>
    <i name="e_wo_entrp">     -1.48892014 </i>
    <i name="e_0_energy">     -1.50819957 </i>
   </energy>
  </scstep>
  <scstep>
   <time name="total">    0.90    0.90</time>
   <energy>
    <i name="e_fr_energy">      4.04957184 </i>
    <i name="e_wo_entrp">      4.09145481 </i>
    <i name="e_0_energy">      4.07051333 </i>
   </energy>
  </scstep>
  <scstep>
   <time name="total">    0.90    0.90</time>
   <energy>
    <i name="e_fr_energy">      2.24051413 </i>
    <i name="e_wo_entrp">      2.28819107 </i>
    <i name="e_0_energy">      2.26435260 </i>
   </energy>
  </scstep>
  <scstep>
   <time name="total">    0.90    0.90</time>
   <energy>
    <i name="e_fr_energy">     -1.15169149 </i>
    <i name="e_wo_entrp">     -1.09702447 </i>
    <i name="e_0_energy">     -1.12435798 </i>
   </energy>
  </scstep>
  <scstep>
   <time name="total">    0.90    0.90</time>
   <energy>
    <i name="e_fr_energy">      2.61092090 </i>
    <i name="e_wo_entrp">      2.65283903 </i>
    <i name="e_0_energy">      2.63187996 </i>
   </energy>
  </scstep>
  <scstep>
   <time name="total">    0.92    0.93</time>
   <energy>
    <i name="e_fr_energy">      1.70384001 </i>
    <i name="e_wo_entrp">      1.74563141 </i>
    <i name="e_0_energy">      1.72473571 </i>
   </energy>
  </scstep>
  <scstep>
   <time name="total">    0.90    0.91</time>
   <energy>
    <i name="e_fr_energy">     -0.34901670 </i>
    <i name="e_wo_entrp">     -0.30883233 </i>
    <i name="e_0_energy">     -0.32892452 </i>
   </energy>
  </scstep>
  <scstep>
   <time name="total">    0.90    0.90</time>
   <energy>
    <i name="e_fr_energy">      0.36761988 </i>
    <i name="e_wo_entrp">      0.42341665 </i>
    <i name="e_0_energy">      0.39551827 </i>
   </energy>
  </scstep>
  <scstep>
   <time name="total">    0.90    0.90</time>
   <energy>
    <i name="e_fr_energy">      0.35298910 </i>
    <i name="e_wo_entrp">      0.39155462 </i>
    <i name="e_0_energy">      0.37227186 </i>
   </energy>
  </scstep>
  <scstep>
   <time name="total">    0.90    0.90</time>
   <energy>
    <i name="e_fr_energy">     -0.17719116 </i>
    <i name="e_wo_entrp">     -0.13619953 </i>
    <i name="e_0_energy">     -0.15669534 </i>
   </energy>
  </scstep>
  <scstep>
   <time name="total">    0.90    0.90</time>
   <energy>
    <i name="e_fr_energy">     -0.51432691 </i>
    <i name="e_wo_entrp">     -0.51204544 </i>
    <i name="e_0_energy">     -0.51318618 </i>
   </energy>
  </scstep>
  <scstep>
   <time name="total">    0.89    0.89</time>
   <energy>
    <i name="e_fr_energy">     -0.50407565 </i>
    <i name="e_wo_entrp">     -0.46480466 </i>
    <i name="e_0_energy">     -0.48444016 </i>
   </energy>
  </scstep>
  <scstep>
   <time name="total">    0.89    0.89</time>
   <energy>
    <i name="e_fr_energy">      0.71716119 </i>
    <i name="e_wo_entrp">      0.72069310 </i>
    <i name="e_0_energy">      0.71892715 </i>
   </energy>
  </scstep>
  <scstep>
   <time name="total">    0.90    0.90</time>
   <energy>
    <i name="e_fr_energy">      0.32741365 </i>
    <i name="e_wo_entrp">      0.33132324 </i>
    <i name="e_0_energy">      0.32936845 </i>
   </energy>
  </scstep>
  <scstep>
   <time name="total">    0.90    0.90</time>
   <energy>
    <i name="e_fr_energy">     -1.83393258 </i>
    <i name="e_wo_entrp">     -1.78575966 </i>
    <i name="e_0_energy">     -1.80984612 </i>
   </energy>
  </scstep>
  <scstep>
   <time name="total">    0.90    0.90</time>
   <energy>
    <i name="e_fr_energy">      3.64296500 </i>
    <i name="e_wo_entrp">      3.65139719 </i>
    <i name="e_0_energy">      3.64718110 </i>
   </energy>
  </scstep>
  <scstep>
   <time name="total">    0.90    0.90</time>
   <energy>
    <i name="e_fr_energy">      1.97437188 </i>
    <i name="e_wo_entrp">      1.97559513 </i>
    <i name="e_0_energy">      1.97498351 </i>
   </energy>
  </scstep>
  <scstep>
   <time name="total">    0.90    0.90</time>
   <energy>
    <i name="e_fr_energy">     -1.17386214 </i>
    <i name="e_wo_entrp">     -1.13325236 </i>
    <i name="e_0_energy">     -1.15355725 </i>
   </energy>
  </scstep>
  <scstep>
   <time name="total">    0.90    0.90</time>
   <energy>
    <i name="e_fr_energy">      4.02108568 </i>
    <i name="e_wo_entrp">      4.02540509 </i>
    <i name="e_0_energy">      4.02324538 </i>
   </energy>
  </scstep>
  <scstep>
   <time name="total">    0.90    0.90</time>
   <energy>
    <i name="e_fr_energy">      1.34755756 </i>
    <i name="e_wo_entrp">      1.39190252 </i>
    <i name="e_0_energy">      1.36973004 </i>
   </energy>
  </scstep>
  <scstep>
   <time name="total">    0.90    0.90</time>
   <energy>
    <i name="e_fr_energy">     -1.55278059 </i>
    <i name="e_wo_entrp">     -1.54820624 </i>
    <i name="e_0_energy">     -1.55049341 </i>
   </energy>
  </scstep>
  <scstep>
   <time name="total">    0.90    0.90</time>
   <energy>
    <i name="e_fr_energy">     -1.26750519 </i>
    <i name="e_wo_entrp">     -1.22894724 </i>
    <i name="e_0_energy">     -1.24822621 </i>
   </energy>
  </scstep>
  <scstep>
   <time name="total">    0.90    0.90</time>
   <energy>
    <i name="e_fr_energy">      2.27726229 </i>
    <i name="e_wo_entrp">      2.28310628 </i>
    <i name="e_0_energy">      2.28018429 </i>
   </energy>
  </scstep>
  <scstep>
   <time name="total">    0.90    0.90</time>
   <energy>
    <i name="e_fr_energy">      1.36382597 </i>
    <i name="e_wo_entrp">      1.36424929 </i>
    <i name="e_0_energy">      1.36403763 </i>
   </energy>
  </scstep>
  <scstep>
   <time name="total">    0.90    0.90</time>
   <energy>
    <i name="e_fr_energy">     -1.52135137 </i>
    <i name="e_wo_entrp">     -1.47951206 </i>
    <i name="e_0_energy">     -1.50043172 </i>
   </energy>
  </scstep>
  <scstep>
   <time name="total">    0.92    0.92</time>
   <energy>
    <i name="e_fr_energy">      3.97377704 </i>
    <i name="e_wo_entrp">      3.97931208 </i>
    <i name="e_0_energy">      3.97654456 </i>
   </energy>
  </scstep>
  <scstep>
   <time name="total">    0.90    0.90</time>
   <energy>
    <i name="e_fr_energy">      1.62028193 </i>
    <i name="e_wo_entrp">      1.64718718 </i>
    <i name="e_0_energy">      1.63373456 </i>
   </energy>
  </scstep>
  <scstep>
   <time name="total">    0.90    0.90</time>
   <energy>
    <i name="e_fr_energy">     -1.71710959 </i>
    <i name="e_wo_entrp">     -1.67855242 </i>
    <i name="e_0_energy">     -1.69783101 </i>
   </energy>
  </scstep>
  <scstep>
   <time name="total">    0.90    0.90</time>
   <energy>
    <i name="e_fr_energy">      2.26009443 </i>
    <i name="e_wo_entrp">      2.27839273 </i>
    <i name="e_0_energy">      2.26924358 </i>
   </energy>
  </scstep>
  <scstep>
   <time name="total">    0.90    0.90</time>
   <energy>
    <i name="e_fr_energy">      1.40106934 </i>
    <i name="e_wo_entrp">      1.43505179 </i>
    <i name="e_0_energy">      1.41806057 </i>
   </energy>
  </scstep>
  <scstep>
   <time name="total">    0.89    0.89</time>
   <energy>
    <i name="e_fr_energy">     -1.87888592 </i>
    <i name="e_wo_entrp">     -1.84031427 </i>
    <i name="e_0_energy">     -1.85960010 </i>
   </energy>
  </scstep>
  <scstep>
   <time name="total">    0.90    0.90</time>
   <energy>
    <i name="e_fr_energy">      1.74414112 </i>
    <i name="e_wo_entrp">      1.75895922 </i>
    <i name="e_0_energy">      1.75155017 </i>
   </energy>
  </scstep>
  <scstep>
   <time name="total">    0.91    0.91</time>
   <energy>
    <i name="e_fr_energy">      1.52302543 </i>
    <i name="e_wo_entrp">      1.53345993 </i>
    <i name="e_0_energy">      1.52824268 </i>
   </energy>
  </scstep>
  <scstep>
   <time name="total">    0.91    0.91</time>
   <energy>
    <i name="e_fr_energy">     -1.65877051 </i>
    <i name="e_wo_entrp">     -1.62020997 </i>
    <i name="e_0_energy">     -1.63949024 </i>
   </energy>
  </scstep>
  <scstep>
   <time name="total">    0.91    0.91</time>
   <energy>
    <i name="e_fr_energy">      3.60480845 </i>
    <i name="e_wo_entrp">      3.64787815 </i>
    <i name="e_0_energy">      3.62634330 </i>
   </energy>
  </scstep>
  <scstep>
   <time name="total">    0.90    0.90</time>
   <energy>
    <i name="e_fr_energy">      2.03925185 </i>
    <i name="e_wo_entrp">      2.07988350 </i>
    <i name="e_0_energy">      2.05956767 </i>
   </energy>
  </scstep>
  <scstep>
   <time name="total">    0.90    0.90</time>
   <energy>
    <i name="e_fr_energy">     -1.47015242 </i>
    <i name="e_wo_entrp">     -1.41787145 </i>
    <i name="e_0_energy">     -1.44401193 </i>
   </energy>
  </scstep>
  <scstep>
   <time name="total">    0.89    0.89</time>
   <energy>
    <i name="e_fr_energy">      0.57157653 </i>
    <i name="e_wo_entrp">      0.58663194 </i>
    <i name="e_0_energy">      0.57910423 </i>
   </energy>
  </scstep>
  <scstep>
   <time name="total">    0.93    0.93</time>
   <energy>
    <i name="e_fr_energy">      1.33584869 </i>
    <i name="e_wo_entrp">      1.36773363 </i>
    <i name="e_0_energy">      1.35179116 </i>
   </energy>
  </scstep>
  <scstep>
   <time name="total">    0.90    0.90</time>
   <energy>
    <i name="e_fr_energy">     -1.95627229 </i>
    <i name="e_wo_entrp">     -1.91757133 </i>
    <i name="e_0_energy">     -1.93692181 </i>
   </energy>
  </scstep>
  <scstep>
   <time name="total">    0.89    0.89</time>
   <energy>
    <i name="e_fr_energy">      1.53680527 </i>
    <i name="e_wo_entrp">      1.53981493 </i>
    <i name="e_0_energy">      1.53831010 </i>
   </energy>
  </scstep>
  <scstep>
   <time name="total">    0.91    0.91</time>
   <energy>
    <i name="e_fr_energy">      1.50623259 </i>
    <i name="e_wo_entrp">      1.51050286 </i>
    <i name="e_0_energy">      1.50836772 </i>
   </energy>
  </scstep>
  <scstep>
   <time name="total">    0.90    0.90</time>
   <energy>
    <i name="e_fr_energy">     -1.56501389 </i>
    <i name="e_wo_entrp">     -1.52645361 </i>
    <i name="e_0_energy">     -1.54573375 </i>
   </energy>
  </scstep>
  <scstep>
   <time name="total">    0.90    0.90</time>
   <energy>
    <i name="e_fr_energy">      3.87430264 </i>
    <i name="e_wo_entrp">      3.91808054 </i>
    <i name="e_0_energy">      3.89619159 </i>
   </energy>
  </scstep>
  <scstep>
   <time name="total">    0.93    0.93</time>
   <energy>
    <i name="e_fr_energy">      1.98076677 </i>
    <i name="e_wo_entrp">      2.01953017 </i>
    <i name="e_0_energy">      2.00014847 </i>
   </energy>
  </scstep>
  <scstep>
   <time name="total">    0.90    0.90</time>
   <energy>
    <i name="e_fr_energy">     -1.44814494 </i>
    <i name="e_wo_entrp">     -1.39173092 </i>
    <i name="e_0_energy">     -1.41993793 </i>
   </energy>
  </scstep>
  <scstep>
   <time name="total">    0.89    0.90</time>
   <energy>
    <i name="e_fr_energy">      0.67992610 </i>
    <i name="e_wo_entrp">      0.72050373 </i>
    <i name="e_0_energy">      0.70021491 </i>
   </energy>
  </scstep>
  <scstep>
   <time name="total">    0.90    0.90</time>
   <energy>
    <i name="e_fr_energy">      1.68202343 </i>
    <i name="e_wo_entrp">      1.72686962 </i>
    <i name="e_0_energy">      1.70444653 </i>
   </energy>
  </scstep>
  <scstep>
   <time name="total">    0.90    0.90</time>
   <energy>
    <i name="e_fr_energy">     -1.33058223 </i>
    <i name="e_wo_entrp">     -1.28893944 </i>
    <i name="e_0_energy">     -1.30976084 </i>
   </energy>
  </scstep>
  <scstep>
   <time name="total">    0.90    0.90</time>
   <energy>
    <i name="e_fr_energy">     -1.33099112 </i>
    <i name="e_wo_entrp">     -1.29209301 </i>
    <i name="e_0_energy">     -1.31154206 </i>
   </energy>
  </scstep>
  <scstep>
   <time name="total">    0.90    0.90</time>
   <energy>
    <i name="e_fr_energy">     -1.03175753 </i>
    <i name="e_wo_entrp">     -0.98682231 </i>
    <i name="e_0_energy">     -1.00928992 </i>
   </energy>
  </scstep>
  <scstep>
   <time name="total">    0.88    0.88</time>
   <energy>
    <i name="e_fr_energy">     -0.86551854 </i>
    <i name="e_wo_entrp">     -0.82657832 </i>
    <i name="e_0_energy">     -0.84604843 </i>
   </energy>
  </scstep>
  <scstep>
   <time name="total">    0.90    0.90</time>
   <energy>
    <i name="e_fr_energy">     -0.67013603 </i>
    <i name="e_wo_entrp">     -0.66617487 </i>
    <i name="e_0_energy">     -0.66815545 </i>
   </energy>
  </scstep>
  <scstep>
   <time name="total">    0.90    0.90</time>
   <energy>
    <i name="e_fr_energy">     -0.59916105 </i>
    <i name="e_wo_entrp">     -0.55497209 </i>
    <i name="e_0_energy">     -0.57706657 </i>
   </energy>
  </scstep>
  <scstep>
   <time name="total">    0.89    0.90</time>
   <energy>
    <i name="e_fr_energy">      0.16077643 </i>
    <i name="e_wo_entrp">      0.16672871 </i>
    <i name="e_0_energy">      0.16375257 </i>
   </energy>
[...]
        <r>     4.1692     0.0000     0.0000     0.0000     0.0000     0.0051     0.0051     0.0000     0.0051     0.0000 </r>
        <r>     4.2032     0.0000     0.0000     0.0000     0.0000     0.0004     0.0004     0.0000     0.0004     0.0000 </r>
        <r>     4.2372     0.0000     0.0000     0.0000     0.0000     0.0000     0.0000     0.0000     0.0000     0.0000 </r>
        <r>     4.2712     0.0000     0.0000     0.0000     0.0000     0.0000     0.0000     0.0000     0.0000     0.0000 </r>
        <r>     4.3052     0.0000     0.0000     0.0000     0.0000     0.0000     0.0000     0.0000     0.0000     0.0000 </r>
        <r>     4.3392     0.0000     0.0000     0.0000     0.0000     0.0000     0.0000     0.0000     0.0000     0.0000 </r>
        <r>     4.3732     0.0000     0.0000     0.0000     0.0000     0.0000     0.0000     0.0000     0.0000     0.0000 </r>
        <r>     4.4072     0.0000     0.0000     0.0000     0.0000     0.0000     0.0000     0.0000     0.0000     0.0000 </r>
        <r>     4.4412     0.0000     0.0000     0.0000     0.0000     0.0000     0.0000     0.0000     0.0000     0.0000 </r>
        <r>     4.4751     0.0000     0.0000     0.0000     0.0000     0.0000     0.0000     0.0000     0.0000     0.0000 </r>
        <r>     4.5091     0.0000     0.0000     0.0000     0.0000     0.0000     0.0000     0.0000     0.0000     0.0000 </r>
        <r>     4.5431     0.0000     0.0000     0.0000     0.0000     0.0000     0.0000     0.0000     0.0000     0.0000 </r>
        <r>     4.5771     0.0000     0.0000     0.0000     0.0000     0.0000     0.0000     0.0000     0.0000     0.0000 </r>
        <r>     4.6111     0.0000     0.0000     0.0000     0.0000     0.0000     0.0000     0.0000     0.0000     0.0000 </r>
        <r>     4.6451     0.0000     0.0000     0.0000     0.0000     0.0000     0.0000     0.0000     0.0000     0.0000 </r>
        <r>     4.6791     0.0000     0.0000     0.0000     0.0000     0.0000     0.0000     0.0000     0.0000     0.0000 </r>
        <r>     4.7131     0.0000     0.0000     0.0000     0.0000     0.0000     0.0000     0.0000     0.0000     0.0000 </r>
        <r>     4.7471     0.0000     0.0000     0.0000     0.0000     0.0000     0.0000     0.0000     0.0000     0.0000 </r>
        <r>     4.7811     0.0000     0.0000     0.0000     0.0000     0.0000     0.0000     0.0000     0.0000     0.0000 </r>
        <r>     4.8151     0.0000     0.0001     0.0001     0.0001     0.0000     0.0000     0.0000     0.0000     0.0000 </r>
        <r>     4.8491     0.0000     0.0020     0.0020     0.0020     0.0000     0.0000     0.0000     0.0000     0.0000 </r>
        <r>     4.8831     0.0000     0.0259     0.0259     0.0259     0.0000     0.0000     0.0000     0.0000     0.0000 </r>
        <r>     4.9170     0.0000     0.1415     0.1415     0.1415     0.0000     0.0000     0.0000     0.0000     0.0000 </r>
        <r>     4.9510     0.0000     0.3263     0.3263     0.3263     0.0000     0.0000     0.0000     0.0000     0.0000 </r>
        <r>     4.9850     0.0000     0.3196     0.3196     0.3196     0.0000     0.0000     0.0000     0.0000     0.0000 </r>
        <r>     5.0190     0.0000     0.1329     0.1329     0.1329     0.0000     0.0000     0.0000     0.0000     0.0000 </r>
        <r>     5.0530     0.0000     0.0234     0.0234     0.0233     0.0000     0.0000     0.0000     0.0000     0.0000 </r>
        <r>     5.0870     0.0008     0.0017     0.0017     0.0017     0.0000     0.0000     0.0000     0.0000     0.0000 </r>
        <r>     5.1210     0.0142     0.0001     0.0001     0.0001     0.0000     0.0000     0.0000     0.0000     0.0000 </r>
        <r>     5.1550     0.1015     0.0000     0.0000     0.0000     0.0000     0.0000     0.0000     0.0000     0.0001 </r>
        <r>     5.1890     0.3068     0.0000     0.0000     0.0000     0.0000     0.0000     0.0000     0.0000     0.0003 </r>
        <r>     5.2230     0.3935     0.0000     0.0000     0.0000     0.0000     0.0000     0.0000     0.0000     0.0004 </r>
        <r>     5.2570     0.2144     0.0000     0.0000     0.0000     0.0000     0.0000     0.0000     0.0000     0.0002 </r>
        <r>     5.2910     0.0495     0.0000     0.0000     0.0000     0.0000     0.0000     0.0000     0.0000     0.0000 </r>
        <r>     5.3250     0.0048     0.0000     0.0000     0.0000     0.0000     0.0000     0.0000     0.0000     0.0000 </r>
        <r>     5.3589     0.0002     0.0000     0.0000     0.0000     0.0000     0.0000     0.0000     0.0000     0.0000 </r>
        <r>     5.3929     0.0000     0.0000     0.0000     0.0000     0.0000     0.0000     0.0000     0.0000     0.0000 </r>
        <r>     5.4269     0.0000     0.0000     0.0000     0.0000     0.0000     0.0000     0.0000     0.0000     0.0000 </r>
        <r>     5.4609     0.0000     0.0000     0.0000     0.0000     0.0000     0.0000     0.0000     0.0000     0.0000 </r>
        <r>     5.4949     0.0000     0.0000     0.0000     0.0000     0.0000     0.0000     0.0000     0.0000     0.0000 </r>
        <r>     5.5289     0.0000     0.0000     0.0000     0.0000     0.0000     0.0000     0.0000     0.0000     0.0000 </r>
        <r>     5.5629     0.0000     0.0000     0.0000     0.0000     0.0000     0.0000     0.0000     0.0000     0.0000 </r>
        <r>     5.5969     0.0000     0.0000     0.0000     0.0000     0.0000     0.0000     0.0000     0.0000     0.0000 </r>
        <r>     5.6309     0.0000     0.0000     0.0000     0.0000     0.0000     0.0000     0.0000     0.0000     0.0000 </r>
        <r>     5.6649     0.0000     0.0000     0.0000     0.0000     0.0000     0.0000     0.0000     0.0000     0.0000 </r>
        <r>     5.6989     0.0000     0.0000     0.0000     0.0000     0.0000     0.0000     0.0000     0.0000     0.0000 </r>
       </set>
      </set>
     </set>
    </array>
   </partial>
  </dos>
  <projected>
   <eigenvalues>
    <array>
     <dimension dim="1">band</dimension>
     <dimension dim="2">kpoint</dimension>
     <dimension dim="3">spin</dimension>
     <field>eigene</field>
     <field>occ</field>
     <set>
      <set comment="spin 1">
       <set comment="kpoint 1">
        <r>   -3.9988    1.0000 </r>
        <r>   -1.5411    1.0000 </r>
        <r>   -1.5334    1.0000 </r>
        <r>   -1.3555    1.0000 </r>
        <r>   -1.3555    1.0000 </r>
        <r>   -1.3555    1.0000 </r>
        <r>   -0.5374    0.6667 </r>
        <r>   -0.5374    0.6667 </r>
        <r>   -0.5374    0.6667 </r>
        <r>   -0.2674    0.0000 </r>
        <r>    0.8311    0.0000 </r>
        <r>    0.8332    0.0000 </r>
        <r>    1.5722    0.0000 </r>
        <r>    1.5722    0.0000 </r>
        <r>    1.5722    0.0000 </r>
        <r>    1.6806    0.0000 </r>
        <r>    2.0369    0.0000 </r>
        <r>    2.0369    0.0000 </r>
        <r>    2.0369    0.0000 </r>
        <r>    2.3857    0.0000 </r>
        <r>    2.3857    0.0000 </r>
        <r>    2.3857    0.0000 </r>
        <r>    2.4596    0.0000 </r>
        <r>    2.4605    0.0000 </r>
        <r>    3.4922    0.0000 </r>
        <r>    3.4922    0.0000 </r>
        <r>    3.4922    0.0000 </r>
        <r>    3.6320    0.0000 </r>
        <r>    3.7074    0.0000 </r>
        <r>    3.7614    0.0000 </r>
        <r>    3.7614    0.0000 </r>
        <r>    3.7614    0.0000 </r>
        <r>    4.3983    0.0000 </r>
        <r>    4.3983    0.0000 </r>
        <r>    4.3983    0.0000 </r>
        <r>    4.8680    0.0000 </r>
       </set>
      </set>
      <set comment="spin 2">
       <set comment="kpoint 1">
        <r>   -2.7888    1.0000 </r>
        <r>    0.0485    0.0000 </r>
        <r>    0.2943    0.0000 </r>
        <r>    0.2943    0.0000 </r>
        <r>    0.2943    0.0000 </r>
        <r>    0.3825    0.0000 </r>
        <r>    0.3825    0.0000 </r>
        <r>    0.3825    0.0000 </r>
        <r>    0.5971    0.0000 </r>
        <r>    0.6106    0.0000 </r>
        <r>    1.1882    0.0000 </r>
        <r>    1.1996    0.0000 </r>
        <r>    1.9087    0.0000 </r>
        <r>    1.9087    0.0000 </r>
        <r>    1.9087    0.0000 </r>
        <r>    1.9970    0.0000 </r>
        <r>    2.4942    0.0000 </r>
        <r>    2.4942    0.0000 </r>
        <r>    2.4942    0.0000 </r>
        <r>    2.6653    0.0000 </r>
        <r>    2.6653    0.0000 </r>
        <r>    2.6653    0.0000 </r>
        <r>    2.7358    0.0000 </r>
        <r>    2.7406    0.0000 </r>
        <r>    3.8128    0.0000 </r>
        <r>    3.8128    0.0000 </r>
        <r>    3.8128    0.0000 </r>
        <r>    3.9704    0.0000 </r>
        <r>    3.9848    0.0000 </r>
        <r>    4.0638    0.0000 </r>
        <r>    4.0638    0.0000 </r>
        <r>    4.0638    0.0000 </r>
        <r>    4.9502    0.0000 </r>
        <r>    4.9502    0.0000 </r>
        <r>    4.9502    0.0000 </r>
        <r>    5.1989    0.0000 </r>
       </set>
      </set>
     </set>
    </array>
   </eigenvalues>
   <array>
    <dimension dim="1">ion</dimension>
    <dimension dim="2">band</dimension>
    <dimension dim="3">kpoint</dimension>
    <dimension dim="4">spin</dimension>
    <field>    s</field>
    <field>   py</field>
    <field>   pz</field>
    <field>   px</field>
    <field>  dxy</field>
    <field>  dyz</field>
    <field>  dz2</field>
    <field>  dxz</field>
    <field>x2-y2</field>
    <set>
     <set comment="spin1">
      <set comment="kpoint 1">
       <set comment="band 1">
        <r>  0.3303  0.0000  0.0000  0.0000  0.0000  0.0000  0.0000  0.0000  0.0000 </r>
       </set>
       <set comment="band 2">
        <r>  0.0000  0.0000  0.0000  0.0000  0.0000  0.0000  0.8405  0.0000  0.0917 </r>
       </set>
       <set comment="band 3">
        <r>  0.0000  0.0000  0.0000  0.0000  0.0000  0.0000  0.0917  0.0000  0.8399 </r>
       </set>
       <set comment="band 4">
        <r>  0.0000  0.0000  0.0000  0.0000  0.0000  0.0000  0.0000  0.9255  0.0000 </r>
       </set>
       <set comment="band 5">
        <r>  0.0000  0.0000  0.0000  0.0000  0.0000  0.9255  0.0000  0.0000  0.0000 </r>
       </set>
       <set comment="band 6">
        <r>  0.0000  0.0000  0.0000  0.0000  0.9255  0.0000  0.0000  0.0000  0.0000 </r>
       </set>
       <set comment="band 7">
        <r>  0.0000  0.0000  0.1057  0.0000  0.0000  0.0000  0.0000  0.0000  0.0000 </r>
       </set>
       <set comment="band 8">
        <r>  0.0000  0.1057  0.0000  0.0000  0.0000  0.0000  0.0000  0.0000  0.0000 </r>
       </set>
       <set comment="band 9">
        <r>  0.0000  0.0000  0.0000  0.1057  0.0000  0.0000  0.0000  0.0000  0.0000 </r>
       </set>
       <set comment="band 10">
        <r>  0.0281  0.0000  0.0000  0.0000  0.0000  0.0000  0.0000  0.0000  0.0000 </r>
       </set>
       <set comment="band 11">
        <r>  0.0000  0.0000  0.0000  0.0000  0.0000  0.0000  0.0047  0.0000  0.0005 </r>
       </set>
       <set comment="band 12">
        <r>  0.0000  0.0000  0.0000  0.0000  0.0000  0.0000  0.0005  0.0000  0.0046 </r>
       </set>
       <set comment="band 13">
        <r>  0.0000  0.0000  0.0000  0.0311  0.0000  0.0000  0.0000  0.0000  0.0000 </r>
       </set>
       <set comment="band 14">
        <r>  0.0000  0.0311  0.0000  0.0000  0.0000  0.0000  0.0000  0.0000  0.0000 </r>
       </set>
       <set comment="band 15">
        <r>  0.0000  0.0000  0.0311  0.0000  0.0000  0.0000  0.0000  0.0000  0.0000 </r>
       </set>
       <set comment="band 16">
        <r>  0.0294  0.0000  0.0000  0.0000  0.0000  0.0000  0.0000  0.0000  0.0000 </r>
       </set>
       <set comment="band 17">
        <r>  0.0000  0.0000  0.0000  0.0000  0.0151  0.0000  0.0000  0.0000  0.0000 </r>
       </set>
       <set comment="band 18">
        <r>  0.0000  0.0000  0.0000  0.0000  0.0000  0.0151  0.0000  0.0000  0.0000 </r>
       </set>
       <set comment="band 19">
        <r>  0.0000  0.0000  0.0000  0.0000  0.0000  0.0000  0.0000  0.0151  0.0000 </r>
       </set>
       <set comment="band 20">
        <r>  0.0000  0.0000  0.0000  0.0000  0.0000  0.0000  0.0000  0.0000  0.0000 </r>
       </set>
       <set comment="band 21">
        <r>  0.0000  0.0000  0.0000  0.0000  0.0000  0.0000  0.0000  0.0000  0.0000 </r>
       </set>
       <set comment="band 22">
        <r>  0.0000  0.0000  0.0000  0.0000  0.0000  0.0000  0.0000  0.0000  0.0000 </r>
       </set>
       <set comment="band 23">
        <r>  0.0000  0.0000  0.0000  0.0000  0.0000  0.0000  0.0004  0.0000  0.0032 </r>
       </set>
       <set comment="band 24">
        <r>  0.0000  0.0000  0.0000  0.0000  0.0000  0.0000  0.0033  0.0000  0.0004 </r>
       </set>
       <set comment="band 25">
        <r>  0.0000  0.0000  0.0409  0.0000  0.0000  0.0000  0.0000  0.0000  0.0000 </r>
       </set>
       <set comment="band 26">
        <r>  0.0000  0.0409  0.0000  0.0000  0.0000  0.0000  0.0000  0.0000  0.0000 </r>
       </set>
       <set comment="band 27">
        <r>  0.0000  0.0000  0.0000  0.0409  0.0000  0.0000  0.0000  0.0000  0.0000 </r>
       </set>
       <set comment="band 28">
        <r>  0.0000  0.0000  0.0000  0.0000  0.0000  0.0000  0.0000  0.0000  0.0000 </r>
       </set>
       <set comment="band 29">
        <r>  0.0316  0.0000  0.0000  0.0000  0.0000  0.0000  0.0000  0.0000  0.0000 </r>
       </set>
       <set comment="band 30">
        <r>  0.0000  0.0000  0.0000  0.0000  0.0072  0.0000  0.0000  0.0000  0.0000 </r>
       </set>
       <set comment="band 31">
        <r>  0.0000  0.0000  0.0000  0.0000  0.0000  0.0072  0.0000  0.0000  0.0000 </r>
       </set>
       <set comment="band 32">
        <r>  0.0000  0.0000  0.0000  0.0000  0.0000  0.0000  0.0000  0.0072  0.0000 </r>
       </set>
       <set comment="band 33">
        <r>  0.0000  0.0000  0.0000  0.0276  0.0000  0.0000  0.0000  0.0000  0.0000 </r>
       </set>
       <set comment="band 34">
        <r>  0.0000  0.0276  0.0000  0.0000  0.0000  0.0000  0.0000  0.0000  0.0000 </r>
       </set>
       <set comment="band 35">
        <r>  0.0000  0.0000  0.0276  0.0000  0.0000  0.0000  0.0000  0.0000  0.0000 </r>
       </set>
       <set comment="band 36">
        <r>  0.0000  0.0000  0.0000  0.0000  0.0000  0.0000  0.0025  0.0000  0.0231 </r>
       </set>
      </set>
     </set>
     <set comment="spin2">
      <set comment="kpoint 1">
       <set comment="band 1">
        <r>  0.2932  0.0000  0.0000  0.0000  0.0000  0.0000  0.0000  0.0000  0.0001 </r>
       </set>
       <set comment="band 2">
        <r>  0.0294  0.0000  0.0000  0.0000  0.0000  0.0000  0.0000  0.0000  0.0000 </r>
       </set>
       <set comment="band 3">
        <r>  0.0000  0.0000  0.0802  0.0000  0.0000  0.0000  0.0000  0.0000  0.0000 </r>
       </set>
       <set comment="band 4">
        <r>  0.0000  0.0802  0.0000  0.0000  0.0000  0.0000  0.0000  0.0000  0.0000 </r>
       </set>
       <set comment="band 5">
        <r>  0.0000  0.0000  0.0000  0.0802  0.0000  0.0000  0.0000  0.0000  0.0000 </r>
       </set>
       <set comment="band 6">
        <r>  0.0000  0.0000  0.0000  0.0000  0.9139  0.0000  0.0000  0.0000  0.0000 </r>
       </set>
       <set comment="band 7">
        <r>  0.0000  0.0000  0.0000  0.0000  0.0000  0.0000  0.0000  0.9139  0.0000 </r>
       </set>
       <set comment="band 8">
        <r>  0.0000  0.0000  0.0000  0.0000  0.0000  0.9139  0.0000  0.0000  0.0000 </r>
       </set>
       <set comment="band 9">
        <r>  0.0000  0.0000  0.0000  0.0000  0.0000  0.0000  0.9045  0.0000  0.0033 </r>
       </set>
       <set comment="band 10">
        <r>  0.0000  0.0000  0.0000  0.0000  0.0000  0.0000  0.0034  0.0000  0.9091 </r>
       </set>
       <set comment="band 11">
        <r>  0.0000  0.0000  0.0000  0.0000  0.0000  0.0000  0.0000  0.0000  0.0060 </r>
       </set>
       <set comment="band 12">
        <r>  0.0000  0.0000  0.0000  0.0000  0.0000  0.0000  0.0095  0.0000  0.0000 </r>
       </set>
       <set comment="band 13">
        <r>  0.0000  0.0000  0.0000  0.0310  0.0000  0.0000  0.0000  0.0000  0.0000 </r>
       </set>
       <set comment="band 14">
        <r>  0.0000  0.0310  0.0000  0.0000  0.0000  0.0000  0.0000  0.0000  0.0000 </r>
       </set>
       <set comment="band 15">
        <r>  0.0000  0.0000  0.0310  0.0000  0.0000  0.0000  0.0000  0.0000  0.0000 </r>
       </set>
       <set comment="band 16">
        <r>  0.0311  0.0000  0.0000  0.0000  0.0000  0.0000  0.0000  0.0000  0.0000 </r>
       </set>
       <set comment="band 17">
        <r>  0.0000  0.0000  0.0000  0.0000  0.0000  0.0152  0.0000  0.0000  0.0000 </r>
       </set>
       <set comment="band 18">
        <r>  0.0000  0.0000  0.0000  0.0000  0.0000  0.0000  0.0000  0.0152  0.0000 </r>
       </set>
       <set comment="band 19">
        <r>  0.0000  0.0000  0.0000  0.0000  0.0152  0.0000  0.0000  0.0000  0.0000 </r>
       </set>
       <set comment="band 20">
        <r>  0.0000  0.0000  0.0000  0.0000  0.0000  0.0000  0.0000  0.0000  0.0000 </r>
       </set>
       <set comment="band 21">
        <r>  0.0000  0.0000  0.0000  0.0000  0.0000  0.0000  0.0000  0.0000  0.0000 </r>
       </set>
       <set comment="band 22">
        <r>  0.0000  0.0000  0.0000  0.0000  0.0000  0.0000  0.0000  0.0000  0.0000 </r>
       </set>
       <set comment="band 23">
        <r>  0.0000  0.0000  0.0000  0.0000  0.0000  0.0000  0.0000  0.0000  0.0038 </r>
       </set>
       <set comment="band 24">
        <r>  0.0000  0.0000  0.0000  0.0000  0.0000  0.0000  0.0051  0.0000  0.0000 </r>
       </set>
       <set comment="band 25">
        <r>  0.0000  0.0315  0.0000  0.0000  0.0000  0.0000  0.0000  0.0000  0.0000 </r>
       </set>
       <set comment="band 26">
        <r>  0.0000  0.0000  0.0315  0.0000  0.0000  0.0000  0.0000  0.0000  0.0000 </r>
       </set>
       <set comment="band 27">
        <r>  0.0000  0.0000  0.0000  0.0315  0.0000  0.0000  0.0000  0.0000  0.0000 </r>
       </set>
       <set comment="band 28">
        <r>  0.0287  0.0000  0.0000  0.0000  0.0000  0.0000  0.0000  0.0000  0.0000 </r>
       </set>
       <set comment="band 29">
        <r>  0.0000  0.0000  0.0000  0.0000  0.0000  0.0000  0.0000  0.0000  0.0000 </r>
       </set>
       <set comment="band 30">
        <r>  0.0000  0.0000  0.0000  0.0000  0.0000  0.0086  0.0000  0.0000  0.0000 </r>
       </set>
       <set comment="band 31">
        <r>  0.0000  0.0000  0.0000  0.0000  0.0000  0.0000  0.0000  0.0086  0.0000 </r>
       </set>
       <set comment="band 32">
        <r>  0.0000  0.0000  0.0000  0.0000  0.0086  0.0000  0.0000  0.0000  0.0000 </r>
       </set>
       <set comment="band 33">
        <r>  0.0000  0.0000  0.0000  0.0331  0.0000  0.0000  0.0000  0.0000  0.0000 </r>
       </set>
       <set comment="band 34">
        <r>  0.0000  0.0331  0.0000  0.0000  0.0000  0.0000  0.0000  0.0000  0.0000 </r>
       </set>
       <set comment="band 35">
        <r>  0.0000  0.0000  0.0331  0.0000  0.0000  0.0000  0.0000  0.0000  0.0000 </r>
       </set>
       <set comment="band 36">
        <r>  0.0369  0.0000  0.0000  0.0000  0.0000  0.0000  0.0000  0.0000  0.0000 </r>
       </set>
      </set>
     </set>
    </set>
   </array>
  </projected>
 </calculation>
 <structure name="finalpos" >
  <crystal>
   <varray name="basis" >
    <v>      10.00000000       0.00000000       0.00000000 </v>
    <v>       0.00000000      10.00000000       0.00000000 </v>
    <v>       0.00000000       0.00000000      10.00000000 </v>
   </varray>
   <i name="volume">   1000.00000000 </i>
   <varray name="rec_basis" >
    <v>       0.10000000       0.00000000       0.00000000 </v>
    <v>       0.00000000       0.10000000       0.00000000 </v>
    <v>       0.00000000       0.00000000       0.10000000 </v>
   </varray>
  </crystal>
  <varray name="positions" >
   <v>       0.50000000       0.50000000       0.50000000 </v>
  </varray>
 </structure>
</modeling>
