       N       E                     dE             d eps       ncg     rms          ort
DAV:   1     0.597169652027E+02    0.59717E+02   -0.21322E+03    36   0.150E+02
DAV:   2     0.422139742155E+02   -0.17503E+02   -0.17486E+02    36   0.217E+01
DAV:   3     0.305980160319E+02   -0.11616E+02   -0.11185E+02    36   0.681E+00
DAV:   4     0.121346329294E+02   -0.18463E+02   -0.17668E+02    36   0.181E+01
DAV:   5     0.385754258561E+01   -0.82771E+01   -0.82771E+01    36   0.128E+01
SDA:   6     0.431715076588E+01    0.45961E+00   -0.72539E+01    36   0.181E+02 0.000E+00
DMP:   7     0.518087797323E+00   -0.37991E+01   -0.81748E+00    36   0.155E+01 0.129E+01
DMP:   8     0.246612740511E+00   -0.27148E+00   -0.54834E+00    36   0.173E+01-0.944E+00
DMP:   9    -0.930475079118E-01   -0.33966E+00   -0.20076E+00    36   0.389E+00 0.295E+00
DMP:  10    -0.159894473981E+00   -0.66847E-01   -0.21460E-01    36   0.122E+00-0.179E+00
DMP:  11    -0.170033079357E+00   -0.10139E-01   -0.45295E-01    36   0.117E+00-0.984E-02
DMP:  12    -0.199954824156E+00   -0.29922E-01   -0.13380E-01    36   0.196E-01 0.362E-01
DMP:  13    -0.207758576470E+00   -0.78038E-02   -0.61946E-02    36   0.120E-01 0.924E-02
DMP:  14    -0.216183927293E+00   -0.84254E-02   -0.95037E-02    36   0.135E-01 0.267E-01
DMP:  15    -0.225840500036E+00   -0.96566E-02   -0.64472E-02    36   0.734E-02 0.230E-01
DMP:  16    -0.231538069458E+00   -0.56976E-02   -0.33081E-02    36   0.378E-02 0.118E-01
DMP:  17    -0.234585966555E+00   -0.30479E-02   -0.22124E-02    36   0.275E-02 0.727E-02
DMP:  18    -0.237342481241E+00   -0.27565E-02   -0.26887E-02    36   0.340E-02 0.869E-02
DMP:  19    -0.240579575254E+00   -0.32371E-02   -0.27030E-02    36   0.329E-02 0.909E-02
DMP:  20    -0.243284333183E+00   -0.27048E-02   -0.18314E-02    36   0.213E-02 0.642E-02
DMP:  21    -0.244930819574E+00   -0.16465E-02   -0.97048E-03    36   0.108E-02 0.353E-02
DMP:  22    -0.245757477958E+00   -0.82666E-03   -0.44630E-03    36   0.476E-03 0.168E-02
DMP:  23    -0.246126812538E+00   -0.36933E-03   -0.18792E-03    36   0.193E-03 0.724E-03
DMP:  24    -0.246279595319E+00   -0.15278E-03   -0.74192E-04    36   0.737E-04 0.293E-03
DMP:  25    -0.246339109824E+00   -0.59515E-04   -0.27684E-04    36   0.265E-04 0.112E-03
DMP:  26    -0.246361058192E+00   -0.21948E-04   -0.97959E-05    36   0.904E-05 0.404E-04
   1 F= -.24636106E+00 E0= -.22708008E+00  d E =-.246361E+00  mag=    -1.0000
