<?xml version="1.0" encoding="ISO-8859-1"?>
<modeling>
 <generator>
  <i name="program" type="string">vasp </i>
  <i name="version" type="string">5.4.4.18Apr17-6-g9f103f2a35  </i>
  <i name="subversion" type="string">(build Nov 08 2019 15:19:53) gamma-only         parallel </i>
  <i name="platform" type="string">LinuxIFC </i>
  <i name="date" type="string">2020 11 30 </i>
  <i name="time" type="string">09:30:48 </i>
 </generator>
 <incar>
  <i type="string" name="PREC">accurate</i>
  <i type="string" name="ALGO"> D</i>
  <i type="int" name="ISPIN">     2</i>
  <i type="int" name="NELM">   300</i>
  <i type="int" name="IBRION">     2</i>
  <i name="EDIFF">      0.00005000</i>
  <i type="int" name="NSW">    99</i>
  <i type="int" name="ISIF">     2</i>
  <i name="ENCUT">    520.00000000</i>
  <v name="MAGMOM">      0.60000000</v>
  <i type="string" name="LREAL"> Auto</i>
  <i type="int" name="ISMEAR">     0</i>
  <i name="SIGMA">      0.05000000</i>
  <i type="logical" name="LWAVE"> F  </i>
  <i type="int" name="LORBIT">    11</i>
  <i type="logical" name="LASPH"> T  </i>
  <v type="int" name="KPOINT_BSE">    -1     0     0     0</v>
  <i type="int" name="NELM">   300</i>
  <i type="logical" name="LASPH"> T  </i>
 </incar>
 <structure name="primitive_cell" >
  <crystal>
   <varray name="basis" >
    <v>      10.00000000       0.00000000       0.00000000 </v>
    <v>       0.00000000      10.00000000       0.00000000 </v>
    <v>       0.00000000       0.00000000      10.00000000 </v>
   </varray>
   <i name="volume">   1000.00000000 </i>
   <varray name="rec_basis" >
    <v>       0.10000000       0.00000000       0.00000000 </v>
    <v>       0.00000000       0.10000000       0.00000000 </v>
    <v>       0.00000000       0.00000000       0.10000000 </v>
   </varray>
  </crystal>
  <varray name="positions" >
   <v>      -0.50000000      -0.50000000      -0.50000000 </v>
  </varray>
 </structure>
 <varray name="primitive_index" >
  <v type="int" >        1 </v>
 </varray>
 <kpoints>
  <generation param="Gamma">
   <v type="int" name="divisions">       1        1        1 </v>
   <v name="usershift">      0.00000000       0.00000000       0.00000000 </v>
   <v name="genvec1">      1.00000000       0.00000000       0.00000000 </v>
   <v name="genvec2">      0.00000000       1.00000000       0.00000000 </v>
   <v name="genvec3">      0.00000000       0.00000000       1.00000000 </v>
   <v name="shift">      0.00000000       0.00000000       0.00000000 </v>
  </generation>
  <varray name="kpointlist" >
   <v>       0.00000000       0.00000000       0.00000000 </v>
  </varray>
  <varray name="weights" >
   <v>       1.00000000 </v>
  </varray>
 </kpoints>
 <parameters>
  <separator name="general" >
   <i type="string" name="SYSTEM">unknown system</i>
   <i type="logical" name="LCOMPAT"> F  </i>
  </separator>
  <separator name="electronic" >
   <i type="string" name="PREC">accura</i>
   <i name="ENMAX">    520.00000000</i>
   <i name="ENAUG">    503.85200000</i>
   <i name="EDIFF">      0.00005000</i>
   <i type="int" name="IALGO">    53</i>
   <i type="int" name="IWAVPR">    11</i>
   <i type="int" name="NBANDS">    36</i>
   <i name="NELECT">      7.00000000</i>
   <i type="int" name="TURBO">     0</i>
   <i type="int" name="IRESTART">     0</i>
   <i type="int" name="NREBOOT">     0</i>
   <i type="int" name="NMIN">     0</i>
   <i name="EREF">      0.00000000</i>
   <separator name="electronic smearing" >
    <i type="int" name="ISMEAR">     0</i>
    <i name="SIGMA">      0.05000000</i>
    <i name="KSPACING">      0.50000000</i>
    <i type="logical" name="KGAMMA"> T  </i>
   </separator>
   <separator name="electronic projectors" >
    <i type="logical" name="LREAL"> T  </i>
    <v name="ROPT">     -0.00025000</v>
    <i type="int" name="LMAXPAW">  -100</i>
    <i type="int" name="LMAXMIX">     2</i>
    <i type="logical" name="NLSPLINE"> F  </i>
   </separator>
   <separator name="electronic startup" >
    <i type="int" name="ISTART">     0</i>
    <i type="int" name="ICHARG">     2</i>
    <i type="int" name="INIWAV">     1</i>
   </separator>
   <separator name="electronic spin" >
    <i type="int" name="ISPIN">     2</i>
    <i type="logical" name="LNONCOLLINEAR"> F  </i>
    <v name="MAGMOM">      0.60000000</v>
    <i name="NUPDOWN">     -1.00000000</i>
    <i type="logical" name="LSORBIT"> F  </i>
    <v name="SAXIS">      0.00000000      0.00000000      1.00000000</v>
    <i type="logical" name="LSPIRAL"> F  </i>
    <v name="QSPIRAL">      0.00000000      0.00000000      0.00000000</v>
    <i type="logical" name="LZEROZ"> F  </i>
   </separator>
   <separator name="electronic exchange-correlation" >
    <i type="logical" name="LASPH"> T  </i>
    <i type="logical" name="LMETAGGA"> F  </i>
   </separator>
   <separator name="electronic convergence" >
    <i type="int" name="NELM">   300</i>
    <i type="int" name="NELMDL">    -5</i>
    <i type="int" name="NELMIN">     2</i>
    <i name="ENINI">    520.00000000</i>
    <separator name="electronic convergence detail" >
     <i type="logical" name="LDIAG"> T  </i>
     <i type="logical" name="LSUBROT"> F  </i>
     <i name="WEIMIN">      0.00100000</i>
     <i name="EBREAK">      0.00000035</i>
     <i name="DEPER">      0.30000000</i>
     <i type="int" name="NRMM">     4</i>
     <i name="TIME">      0.40000000</i>
    </separator>
   </separator>
   <separator name="electronic mixer" >
    <i name="AMIX">      0.40000000</i>
    <i name="BMIX">      1.00000000</i>
    <i name="AMIN">      0.10000000</i>
    <i name="AMIX_MAG">      1.60000000</i>
    <i name="BMIX_MAG">      1.00000000</i>
    <separator name="electronic mixer details" >
     <i type="int" name="IMIX">     4</i>
     <i type="logical" name="MIXFIRST"> F  </i>
     <i type="int" name="MAXMIX">   -45</i>
     <i name="WC">    100.00000000</i>
     <i type="int" name="INIMIX">     1</i>
     <i type="int" name="MIXPRE">     1</i>
     <i type="int" name="MREMOVE">     5</i>
    </separator>
   </separator>
   <separator name="electronic dipolcorrection" >
    <i type="logical" name="LDIPOL"> F  </i>
    <i type="logical" name="LMONO"> F  </i>
    <i type="int" name="IDIPOL">     0</i>
    <i name="EPSILON">      1.00000000</i>
    <v name="DIPOL">   -100.00000000   -100.00000000   -100.00000000</v>
    <i name="EFIELD">      0.00000000</i>
   </separator>
  </separator>
  <separator name="grids" >
   <i type="int" name="NGX">    80</i>
   <i type="int" name="NGY">    80</i>
   <i type="int" name="NGZ">    80</i>
   <i type="int" name="NGXF">   160</i>
   <i type="int" name="NGYF">   160</i>
   <i type="int" name="NGZF">   160</i>
   <i type="logical" name="ADDGRID"> F  </i>
  </separator>
  <separator name="ionic" >
   <i type="int" name="NSW">    99</i>
   <i type="int" name="IBRION">     2</i>
   <i type="int" name="MDALGO">     0</i>
   <i type="int" name="ISIF">     2</i>
   <i name="PSTRESS">      0.00000000</i>
   <i name="EDIFFG">      0.00050000</i>
   <i type="int" name="NFREE">     1</i>
   <i name="POTIM">      0.50000000</i>
   <i name="SMASS">     -3.00000000</i>
   <i name="SCALEE">      1.00000000</i>
  </separator>
  <separator name="ionic md" >
   <i name="TEBEG">      0.00010000</i>
   <i name="TEEND">      0.00010000</i>
   <i type="int" name="NBLOCK">     1</i>
   <i type="int" name="KBLOCK">    99</i>
   <i type="int" name="NPACO">   256</i>
   <i name="APACO">     16.00000000</i>
  </separator>
  <separator name="symmetry" >
   <i type="int" name="ISYM">     2</i>
   <i name="SYMPREC">      0.00001000</i>
  </separator>
  <separator name="dos" >
   <i type="int" name="LORBIT">    11</i>
   <v name="RWIGS">     -1.00000000</v>
   <i type="int" name="NEDOS">   301</i>
   <i name="EMIN">     10.00000000</i>
   <i name="EMAX">    -10.00000000</i>
   <i name="EFERMI">      0.00000000</i>
  </separator>
  <separator name="writing" >
   <i type="int" name="NWRITE">     2</i>
   <i type="logical" name="LWAVE"> F  </i>
   <i type="logical" name="LDOWNSAMPLE"> F  </i>
   <i type="logical" name="LCHARG"> T  </i>
   <i type="logical" name="LPARD"> F  </i>
   <i type="logical" name="LVTOT"> F  </i>
   <i type="logical" name="LVHAR"> F  </i>
   <i type="logical" name="LELF"> F  </i>
   <i type="logical" name="LOPTICS"> F  </i>
   <v name="STM">      0.00000000      0.00000000      0.00000000      0.00000000      0.00000000      0.00000000      0.00000000</v>
  </separator>
  <separator name="performance" >
   <i type="int" name="NPAR">    36</i>
   <i type="int" name="NSIM">     4</i>
   <i type="int" name="NBLK">    -1</i>
   <i type="logical" name="LPLANE"> T  </i>
   <i type="logical" name="LSCALAPACK"> T  </i>
   <i type="logical" name="LSCAAWARE"> F  </i>
   <i type="logical" name="LSCALU"> F  </i>
   <i type="logical" name="LASYNC"> F  </i>
   <i type="logical" name="LORBITALREAL"> F  </i>
  </separator>
  <separator name="miscellaneous" >
   <i type="int" name="IDIOT">     3</i>
   <i type="int" name="ISPECIAL">     0</i>
   <i type="logical" name="LMUSIC"> F  </i>
   <v name="POMASS">     79.90400000</v>
   <v name="DARWINR">      0.00000000</v>
   <v name="DARWINV">      1.00000000</v>
   <i type="logical" name="LCORR"> T  </i>
  </separator>
  <i type="logical" name="GGA_COMPAT"> T  </i>
  <i type="logical" name="LBERRY"> F  </i>
  <i type="int" name="ICORELEVEL">     0</i>
  <i type="logical" name="LDAU"> F  </i>
  <i type="int" name="I_CONSTRAINED_M">     0</i>
  <separator name="electronic exchange-correlation" >
   <i type="string" name="GGA">--</i>
   <i type="int" name="VOSKOWN">     0</i>
   <i type="logical" name="LHFCALC"> F  </i>
   <i type="string" name="PRECFOCK"></i>
   <i type="logical" name="LSYMGRAD"> F  </i>
   <i type="logical" name="LHFONE"> F  </i>
   <i type="logical" name="LRHFCALC"> F  </i>
   <i type="logical" name="LTHOMAS"> F  </i>
   <i type="logical" name="LMODELHF"> F  </i>
   <i name="ENCUT4O">     -1.00000000</i>
   <i type="int" name="EXXOEP">     0</i>
   <i type="int" name="FOURORBIT">     0</i>
   <i name="AEXX">      0.00000000</i>
   <i name="HFALPHA">      0.00000000</i>
   <i name="MCALPHA">      0.00000000</i>
   <i name="ALDAX">      1.00000000</i>
   <i name="AGGAX">      1.00000000</i>
   <i name="ALDAC">      1.00000000</i>
   <i name="AGGAC">      1.00000000</i>
   <i type="int" name="NKREDX">     1</i>
   <i type="int" name="NKREDY">     1</i>
   <i type="int" name="NKREDZ">     1</i>
   <i type="logical" name="SHIFTRED"> F  </i>
   <i type="logical" name="ODDONLY"> F  </i>
   <i type="logical" name="EVENONLY"> F  </i>
   <i type="int" name="LMAXFOCK">     0</i>
   <i type="int" name="NMAXFOCKAE">     0</i>
   <i type="logical" name="LFOCKAEDFT"> F  </i>
   <i name="HFSCREEN">      0.00000000</i>
   <i name="HFSCREENC">      0.00000000</i>
   <i type="int" name="NBANDSGWLOW">     0</i>
  </separator>
  <separator name="vdW DFT" >
   <i type="logical" name="LUSE_VDW"> F  </i>
   <i name="Zab_VDW">     -0.84910000</i>
   <i name="PARAM1">      0.12340000</i>
   <i name="PARAM2">      1.00000000</i>
   <i name="PARAM3">      0.00000000</i>
  </separator>
  <separator name="model GW" >
   <i type="int" name="MODEL_GW">     0</i>
   <i name="MODEL_EPS0">    600.00000000</i>
   <i name="MODEL_ALPHA">      1.00000000</i>
  </separator>
  <separator name="linear response parameters" >
   <i type="logical" name="LEPSILON"> F  </i>
   <i type="logical" name="LRPA"> F  </i>
   <i type="logical" name="LNABLA"> F  </i>
   <i type="logical" name="LVEL"> F  </i>
   <i type="int" name="KINTER">     0</i>
   <i name="CSHIFT">      0.10000000</i>
   <i name="OMEGAMAX">     -1.00000000</i>
   <i name="DEG_THRESHOLD">      0.00200000</i>
   <i name="RTIME">     -0.10000000</i>
   <i name="WPLASMAI">      0.00000000</i>
   <v name="DFIELD">      0.00000000      0.00000000      0.00000000</v>
   <v name="WPLASMA">      0.00000000      0.00000000      0.00000000      0.00000000      0.00000000      0.00000000      0.00000000      0.00000000      0.00000000</v>
  </separator>
  <separator name="orbital magnetization" >
   <i type="logical" name="NUCIND"> F  </i>
   <v name="MAGPOS">      0.00000000      0.00000000      0.00000000</v>
   <i type="logical" name="LNICSALL"> T  </i>
   <i type="logical" name="ORBITALMAG"> F  </i>
   <i type="logical" name="LMAGBLOCH"> F  </i>
   <i type="logical" name="LCHIMAG"> F  </i>
   <i type="logical" name="LGAUGE"> T  </i>
   <i type="int" name="MAGATOM">     0</i>
   <v name="MAGDIPOL">      0.00000000      0.00000000      0.00000000</v>
   <v name="AVECCONST">      0.00000000      0.00000000      0.00000000</v>
  </separator>
  <separator name="response functions" >
   <i type="logical" name="LADDER"> F  </i>
   <i type="logical" name="LRPAFORCE"> F  </i>
   <i type="logical" name="LFXC"> F  </i>
   <i type="logical" name="LHARTREE"> T  </i>
   <i type="int" name="IBSE">     0</i>
   <v type="int" name="KPOINT">    -1     0     0     0</v>
   <i type="logical" name="LTCTE"> F  </i>
   <i type="logical" name="LTETE"> F  </i>
   <i type="logical" name="LTRIPLET"> F  </i>
   <i type="logical" name="LFXCEPS"> F  </i>
   <i type="logical" name="LFXHEG"> F  </i>
   <i type="int" name="NATURALO">     2</i>
   <i type="logical" name="L2ORDER"> F  </i>
   <i type="logical" name="LMP2LT"> F  </i>
   <i type="logical" name="LUSEW"> F  </i>
   <i name="ENCUTGW">     -2.00000000</i>
   <i name="ENCUTGWSOFT">     -2.00000000</i>
   <i name="ENCUTLF">     -1.00000000</i>
   <i type="int" name="LMAXMP2">    -1</i>
   <i name="SCISSOR">      0.00000000</i>
   <i type="int" name="NOMEGA">     0</i>
   <i type="int" name="NOMEGAR">     0</i>
   <i type="int" name="NBANDSGW">    -1</i>
   <i type="int" name="NBANDSO">    -1</i>
   <i type="int" name="NBANDSV">    -1</i>
   <i type="int" name="NELM">   300</i>
   <i type="int" name="NELMHF">     1</i>
   <i type="int" name="DIM">     3</i>
   <i type="int" name="ANTIRES">     0</i>
   <i name="OMEGAMAX">    -30.00000000</i>
   <i name="OMEGAMIN">    -30.00000000</i>
   <i name="OMEGATL">   -200.00000000</i>
   <i type="int" name="OMEGAGRID">   140</i>
   <i name="CSHIFT">     -0.10000000</i>
   <i type="logical" name="SELFENERGY"> F  </i>
   <i type="logical" name="LSPECTRAL"> F  </i>
   <i type="logical" name="LSPECTRALGW"> F  </i>
   <i type="logical" name="LSINGLES"> F  </i>
   <i type="logical" name="LFERMIGW"> F  </i>
   <i type="logical" name="ODDONLYGW"> F  </i>
   <i type="logical" name="EVENONLYGW"> F  </i>
   <i type="int" name="NKREDLFX">     1</i>
   <i type="int" name="NKREDLFY">     1</i>
   <i type="int" name="NKREDLFZ">     1</i>
   <i type="int" name="MAXMEM">  2800</i>
   <i type="int" name="TELESCOPE">     0</i>
   <i type="int" name="TAUPAR">     1</i>
   <i type="int" name="OMEGAPAR">    -1</i>
   <i name="LAMBDA">      1.00000000</i>
  </separator>
  <separator name="External order field" >
   <i name="OFIELD_KAPPA">      0.00000000</i>
   <v name="OFIELD_K">      0.00000000      0.00000000      0.00000000</v>
   <i name="OFIELD_Q6_NEAR">      0.00000000</i>
   <i name="OFIELD_Q6_FAR">      0.00000000</i>
   <i name="OFIELD_A">      0.00000000</i>
  </separator>
 </parameters>
 <atominfo>
  <atoms>       1 </atoms>
  <types>       1 </types>
  <array name="atoms" >
   <dimension dim="1">ion</dimension>
   <field type="string">element</field>
   <field type="int">atomtype</field>
   <set>
    <rc><c>Br</c><c>   1</c></rc>
   </set>
  </array>
  <array name="atomtypes" >
   <dimension dim="1">type</dimension>
   <field type="int">atomspertype</field>
   <field type="string">element</field>
   <field>mass</field>
   <field>valence</field>
   <field type="string">pseudopotential</field>
   <set>
    <rc><c>   1</c><c>Br</c><c>     79.90400000</c><c>      7.00000000</c><c>  PAW_PBE Br 06Sep2000                  </c></rc>
   </set>
  </array>
 </atominfo>
 <structure name="initialpos" >
  <crystal>
   <varray name="basis" >
    <v>      10.00000000       0.00000000       0.00000000 </v>
    <v>       0.00000000      10.00000000       0.00000000 </v>
    <v>       0.00000000       0.00000000      10.00000000 </v>
   </varray>
   <i name="volume">   1000.00000000 </i>
   <varray name="rec_basis" >
    <v>       0.10000000       0.00000000       0.00000000 </v>
    <v>       0.00000000       0.10000000       0.00000000 </v>
    <v>       0.00000000       0.00000000       0.10000000 </v>
   </varray>
  </crystal>
  <varray name="positions" >
   <v>       0.50000000       0.50000000       0.50000000 </v>
  </varray>
 </structure>
 <calculation>
  <scstep>
   <time name="total">    0.86    0.87</time>
   <energy>
    <i name="alphaZ">      0.45636199 </i>
    <i name="ewald">   -100.09837603 </i>
    <i name="hartreedc">   -206.08345111 </i>
    <i name="XCdc">      9.19505495 </i>
    <i name="pawpsdc">    295.05330679 </i>
    <i name="pawaedc">   -288.87577381 </i>
    <i name="eentropy">     -0.02667301 </i>
    <i name="bandstr">    -18.35122265 </i>
    <i name="atom">    368.44773808 </i>
    <i name="e_fr_energy">     59.71696520 </i>
    <i name="e_wo_entrp">     59.74363822 </i>
    <i name="e_0_energy">     59.73030171 </i>
   </energy>
  </scstep>
  <scstep>
   <time name="total">    0.34    0.34</time>
   <energy>
    <i name="e_fr_energy">     42.21397422 </i>
    <i name="e_wo_entrp">     42.26636661 </i>
    <i name="e_0_energy">     42.24017041 </i>
   </energy>
  </scstep>
  <scstep>
   <time name="total">    0.34    0.34</time>
   <energy>
    <i name="e_fr_energy">     30.59801603 </i>
    <i name="e_wo_entrp">     30.62168028 </i>
    <i name="e_0_energy">     30.60984816 </i>
   </energy>
  </scstep>
  <scstep>
   <time name="total">    0.36    0.36</time>
   <energy>
    <i name="e_fr_energy">     12.13463293 </i>
    <i name="e_wo_entrp">     12.13463293 </i>
    <i name="e_0_energy">     12.13463293 </i>
   </energy>
  </scstep>
  <scstep>
   <time name="total">    0.57    0.57</time>
   <energy>
    <i name="e_fr_energy">      3.85754259 </i>
    <i name="e_wo_entrp">      3.85754974 </i>
    <i name="e_0_energy">      3.85754616 </i>
   </energy>
  </scstep>
  <scstep>
   <time name="total">    0.96    0.96</time>
   <energy>
    <i name="e_fr_energy">      4.31715077 </i>
    <i name="e_wo_entrp">      4.31715077 </i>
    <i name="e_0_energy">      4.31715077 </i>
   </energy>
  </scstep>
  <scstep>
   <time name="total">    0.93    0.93</time>
   <energy>
    <i name="e_fr_energy">      0.51808780 </i>
    <i name="e_wo_entrp">      0.51808780 </i>
    <i name="e_0_energy">      0.51808780 </i>
   </energy>
  </scstep>
  <scstep>
   <time name="total">    0.92    0.92</time>
   <energy>
    <i name="e_fr_energy">      0.24661274 </i>
    <i name="e_wo_entrp">      0.24661274 </i>
    <i name="e_0_energy">      0.24661274 </i>
   </energy>
  </scstep>
  <scstep>
   <time name="total">    0.92    0.92</time>
   <energy>
    <i name="e_fr_energy">     -0.09304751 </i>
    <i name="e_wo_entrp">     -0.09304751 </i>
    <i name="e_0_energy">     -0.09304751 </i>
   </energy>
  </scstep>
  <scstep>
   <time name="total">    0.90    0.90</time>
   <energy>
    <i name="e_fr_energy">     -0.15989447 </i>
    <i name="e_wo_entrp">     -0.15989377 </i>
    <i name="e_0_energy">     -0.15989412 </i>
   </energy>
  </scstep>
  <scstep>
   <time name="total">    0.90    0.90</time>
   <energy>
    <i name="e_fr_energy">     -0.17003308 </i>
    <i name="e_wo_entrp">     -0.16986720 </i>
    <i name="e_0_energy">     -0.16995014 </i>
   </energy>
  </scstep>
  <scstep>
   <time name="total">    0.92    0.92</time>
   <energy>
    <i name="e_fr_energy">     -0.19995482 </i>
    <i name="e_wo_entrp">     -0.19724442 </i>
    <i name="e_0_energy">     -0.19859962 </i>
   </energy>
  </scstep>
  <scstep>
   <time name="total">    0.91    0.91</time>
   <energy>
    <i name="e_fr_energy">     -0.20775858 </i>
    <i name="e_wo_entrp">     -0.19750367 </i>
    <i name="e_0_energy">     -0.20263112 </i>
   </energy>
  </scstep>
  <scstep>
   <time name="total">    0.91    0.91</time>
   <energy>
    <i name="e_fr_energy">     -0.21618393 </i>
    <i name="e_wo_entrp">     -0.19758063 </i>
    <i name="e_0_energy">     -0.20688228 </i>
   </energy>
  </scstep>
  <scstep>
   <time name="total">    0.91    0.91</time>
   <energy>
    <i name="e_fr_energy">     -0.22584050 </i>
    <i name="e_wo_entrp">     -0.20185228 </i>
    <i name="e_0_energy">     -0.21384639 </i>
   </energy>
  </scstep>
  <scstep>
   <time name="total">    0.93    0.93</time>
   <energy>
    <i name="e_fr_energy">     -0.23153807 </i>
    <i name="e_wo_entrp">     -0.20460689 </i>
    <i name="e_0_energy">     -0.21807248 </i>
   </energy>
  </scstep>
  <scstep>
   <time name="total">    0.90    0.90</time>
   <energy>
    <i name="e_fr_energy">     -0.23458597 </i>
    <i name="e_wo_entrp">     -0.20499915 </i>
    <i name="e_0_energy">     -0.21979256 </i>
   </energy>
  </scstep>
  <scstep>
   <time name="total">    0.89    0.89</time>
   <energy>
    <i name="e_fr_energy">     -0.23734248 </i>
    <i name="e_wo_entrp">     -0.20455167 </i>
    <i name="e_0_energy">     -0.22094708 </i>
   </energy>
  </scstep>
  <scstep>
   <time name="total">    0.90    0.90</time>
   <energy>
    <i name="e_fr_energy">     -0.24057958 </i>
    <i name="e_wo_entrp">     -0.20509199 </i>
    <i name="e_0_energy">     -0.22283578 </i>
   </energy>
  </scstep>
  <scstep>
   <time name="total">    0.91    0.91</time>
   <energy>
    <i name="e_fr_energy">     -0.24328433 </i>
    <i name="e_wo_entrp">     -0.20615619 </i>
    <i name="e_0_energy">     -0.22472026 </i>
   </energy>
  </scstep>
  <scstep>
   <time name="total">    0.90    0.90</time>
   <energy>
    <i name="e_fr_energy">     -0.24493082 </i>
    <i name="e_wo_entrp">     -0.20697887 </i>
    <i name="e_0_energy">     -0.22595485 </i>
   </energy>
  </scstep>
  <scstep>
   <time name="total">    0.90    0.90</time>
   <energy>
    <i name="e_fr_energy">     -0.24575748 </i>
    <i name="e_wo_entrp">     -0.20743695 </i>
    <i name="e_0_energy">     -0.22659721 </i>
   </energy>
  </scstep>
  <scstep>
   <time name="total">    0.91    0.92</time>
   <energy>
    <i name="e_fr_energy">     -0.24612681 </i>
    <i name="e_wo_entrp">     -0.20765379 </i>
    <i name="e_0_energy">     -0.22689030 </i>
   </energy>
  </scstep>
  <scstep>
   <time name="total">    0.91    0.91</time>
   <energy>
    <i name="e_fr_energy">     -0.24627960 </i>
    <i name="e_wo_entrp">     -0.20774721 </i>
    <i name="e_0_energy">     -0.22701340 </i>
   </energy>
  </scstep>
  <scstep>
   <time name="total">    0.92    0.92</time>
   <energy>
    <i name="e_fr_energy">     -0.24633911 </i>
    <i name="e_wo_entrp">     -0.20778482 </i>
    <i name="e_0_energy">     -0.22706197 </i>
   </energy>
  </scstep>
  <scstep>
   <time name="total">    0.95    0.95</time>
   <energy>
    <i name="alphaZ">      0.45636199 </i>
    <i name="ewald">   -100.09837603 </i>
    <i name="hartreedc">   -206.21914057 </i>
    <i name="XCdc">      9.26614175 </i>
    <i name="pawpsdc">    299.01122170 </i>
    <i name="pawaedc">   -292.84239650 </i>
    <i name="eentropy">     -0.03856195 </i>
    <i name="bandstr">    -78.22935719 </i>
    <i name="atom">    368.44773808 </i>
    <i name="e_fr_energy">     -0.24636106 </i>
    <i name="e_wo_entrp">     -0.20779911 </i>
    <i name="e_0_energy">     -0.22708008 </i>
   </energy>
  </scstep>
  <structure>
   <crystal>
    <varray name="basis" >
     <v>      10.00000000       0.00000000       0.00000000 </v>
     <v>       0.00000000      10.00000000       0.00000000 </v>
     <v>       0.00000000       0.00000000      10.00000000 </v>
    </varray>
    <i name="volume">   1000.00000000 </i>
    <varray name="rec_basis" >
     <v>       0.10000000       0.00000000       0.00000000 </v>
     <v>       0.00000000       0.10000000       0.00000000 </v>
     <v>       0.00000000       0.00000000       0.10000000 </v>
    </varray>
   </crystal>
   <varray name="positions" >
    <v>       0.50000000       0.50000000       0.50000000 </v>
   </varray>
  </structure>
  <varray name="forces" >
   <v>       0.00000000       0.00000000       0.00000000 </v>
  </varray>
  <varray name="stress" >
   <v>       0.03012671       0.00000000       0.00000000 </v>
   <v>       0.00000000       0.03012671       0.00000000 </v>
   <v>      -0.00000000      -0.00000000       0.03012671 </v>
  </varray>
  <energy>
   <i name="e_fr_energy">     -0.24636106 </i>
   <i name="e_wo_entrp">     -0.22708008 </i>
   <i name="e_0_energy">     -0.03856195 </i>
  </energy>
  <time name="totalsc">   33.47   33.64</time>
  <eigenvalues>
   <array>
    <dimension dim="1">band</dimension>
    <dimension dim="2">kpoint</dimension>
    <dimension dim="3">spin</dimension>
    <field>eigene</field>
    <field>occ</field>
    <set>
     <set comment="spin 1">
      <set comment="kpoint 1">
       <r>  -19.4985    1.0000 </r>
       <r>   -7.2318    0.6737 </r>
       <r>   -7.2318    0.6632 </r>
       <r>   -7.2318    0.6631 </r>
       <r>   -0.4471    0.0000 </r>
       <r>    1.1800    0.0000 </r>
       <r>    1.2145    0.0000 </r>
       <r>    1.2147    0.0000 </r>
       <r>    1.2150    0.0000 </r>
       <r>    1.2339    0.0000 </r>
       <r>    1.2345    0.0000 </r>
       <r>    2.2207    0.0000 </r>
       <r>    2.2209    0.0000 </r>
       <r>    2.2212    0.0000 </r>
       <r>    2.7489    0.0000 </r>
       <r>    2.7495    0.0000 </r>
       <r>    2.7750    0.0000 </r>
       <r>    2.7806    0.0000 </r>
       <r>    2.7818    0.0000 </r>
       <r>    2.8671    0.0000 </r>
       <r>    2.8726    0.0000 </r>
       <r>    2.8922    0.0000 </r>
       <r>    2.9849    0.0000 </r>
       <r>    3.9565    0.0000 </r>
       <r>    3.9567    0.0000 </r>
       <r>    3.9573    0.0000 </r>
       <r>    4.1658    0.0000 </r>
       <r>    4.4035    0.0000 </r>
       <r>    4.4433    0.0000 </r>
       <r>    4.4438    0.0000 </r>
       <r>    4.4539    0.0000 </r>
       <r>    4.4610    0.0000 </r>
       <r>    4.4683    0.0000 </r>
       <r>    5.8344    0.0000 </r>
       <r>    5.8952    0.0000 </r>
       <r>    6.5856    0.0000 </r>
      </set>
     </set>
     <set comment="spin 2">
      <set comment="kpoint 1">
       <r>  -20.2761    1.0000 </r>
       <r>   -7.9971    1.0000 </r>
       <r>   -7.9971    1.0000 </r>
       <r>   -7.9971    1.0000 </r>
       <r>   -0.5264    0.0000 </r>
       <r>    1.1200    0.0000 </r>
       <r>    1.1528    0.0000 </r>
       <r>    1.1611    0.0000 </r>
       <r>    1.1624    0.0000 </r>
       <r>    1.1805    0.0000 </r>
       <r>    1.1892    0.0000 </r>
       <r>    2.1050    0.0000 </r>
       <r>    2.1051    0.0000 </r>
       <r>    2.1051    0.0000 </r>
       <r>    2.7029    0.0000 </r>
       <r>    2.7031    0.0000 </r>
       <r>    2.7139    0.0000 </r>
       <r>    2.7152    0.0000 </r>
       <r>    2.7187    0.0000 </r>
       <r>    2.8622    0.0000 </r>
       <r>    2.8624    0.0000 </r>
       <r>    2.8722    0.0000 </r>
       <r>    2.9596    0.0000 </r>
       <r>    3.8955    0.0000 </r>
       <r>    3.8956    0.0000 </r>
       <r>    3.8957    0.0000 </r>
       <r>    4.1499    0.0000 </r>
       <r>    4.2275    0.0000 </r>
       <r>    4.2586    0.0000 </r>
       <r>    4.3678    0.0000 </r>
       <r>    4.3717    0.0000 </r>
       <r>    4.4275    0.0000 </r>
       <r>    4.5001    0.0000 </r>
       <r>    5.7036    0.0000 </r>
       <r>    5.7759    0.0000 </r>
       <r>    6.2093    0.0000 </r>
      </set>
     </set>
    </set>
   </array>
  </eigenvalues>
  <separator name="orbital magnetization" >
   <v name="MAGDIPOLOUT">      0.00000000      0.00000000      0.00000000</v>
  </separator>
  <dos>
   <i name="efermi">     -7.21652349 </i>
   <total>
    <array>
     <dimension dim="1">gridpoints</dimension>
     <dimension dim="2">spin</dimension>
     <field>energy</field>
     <field>total</field>
     <field>integrated</field>
     <set>
      <set comment="spin 1">
       <r>   -21.6192     0.0000     0.0000 </r>
       <r>   -21.5207     0.0000     0.0000 </r>
       <r>   -21.4222     0.0000     0.0000 </r>
       <r>   -21.3237     0.0000     0.0000 </r>
       <r>   -21.2252     0.0000     0.0000 </r>
       <r>   -21.1267     0.0000     0.0000 </r>
       <r>   -21.0282     0.0000     0.0000 </r>
       <r>   -20.9297     0.0000     0.0000 </r>
       <r>   -20.8312     0.0000     0.0000 </r>
       <r>   -20.7327     0.0000     0.0000 </r>
       <r>   -20.6343     0.0000     0.0000 </r>
       <r>   -20.5358     0.0000     0.0000 </r>
       <r>   -20.4373     0.0000     0.0000 </r>
       <r>   -20.3388     0.0000     0.0000 </r>
       <r>   -20.2403     0.0000     0.0000 </r>
       <r>   -20.1418     0.0000     0.0000 </r>
       <r>   -20.0433     0.0000     0.0000 </r>
       <r>   -19.9448     0.0000     0.0000 </r>
       <r>   -19.8463     0.0000     0.0000 </r>
       <r>   -19.7478     0.0000     0.0000 </r>
       <r>   -19.6493     0.0001     0.0000 </r>
       <r>   -19.5508     0.7033     0.0693 </r>
       <r>   -19.4523     8.4748     0.9040 </r>
       <r>   -19.3538     0.9746     1.0000 </r>
       <r>   -19.2554     0.0002     1.0000 </r>
       <r>   -19.1569     0.0000     1.0000 </r>
       <r>   -19.0584     0.0000     1.0000 </r>
       <r>   -18.9599     0.0000     1.0000 </r>
       <r>   -18.8614     0.0000     1.0000 </r>
       <r>   -18.7629     0.0000     1.0000 </r>
       <r>   -18.6644     0.0000     1.0000 </r>
       <r>   -18.5659     0.0000     1.0000 </r>
       <r>   -18.4674     0.0000     1.0000 </r>
       <r>   -18.3689     0.0000     1.0000 </r>
       <r>   -18.2704     0.0000     1.0000 </r>
       <r>   -18.1719     0.0000     1.0000 </r>
       <r>   -18.0734     0.0000     1.0000 </r>
       <r>   -17.9749     0.0000     1.0000 </r>
       <r>   -17.8765     0.0000     1.0000 </r>
       <r>   -17.7780     0.0000     1.0000 </r>
       <r>   -17.6795     0.0000     1.0000 </r>
       <r>   -17.5810     0.0000     1.0000 </r>
       <r>   -17.4825     0.0000     1.0000 </r>
       <r>   -17.3840     0.0000     1.0000 </r>
       <r>   -17.2855     0.0000     1.0000 </r>
       <r>   -17.1870     0.0000     1.0000 </r>
       <r>   -17.0885     0.0000     1.0000 </r>
       <r>   -16.9900     0.0000     1.0000 </r>
       <r>   -16.8915     0.0000     1.0000 </r>
       <r>   -16.7930     0.0000     1.0000 </r>
       <r>   -16.6945     0.0000     1.0000 </r>
       <r>   -16.5960     0.0000     1.0000 </r>
       <r>   -16.4976     0.0000     1.0000 </r>
       <r>   -16.3991     0.0000     1.0000 </r>
       <r>   -16.3006     0.0000     1.0000 </r>
       <r>   -16.2021     0.0000     1.0000 </r>
       <r>   -16.1036     0.0000     1.0000 </r>
       <r>   -16.0051     0.0000     1.0000 </r>
       <r>   -15.9066     0.0000     1.0000 </r>
       <r>   -15.8081     0.0000     1.0000 </r>
       <r>   -15.7096     0.0000     1.0000 </r>
       <r>   -15.6111     0.0000     1.0000 </r>
       <r>   -15.5126     0.0000     1.0000 </r>
       <r>   -15.4141     0.0000     1.0000 </r>
       <r>   -15.3156     0.0000     1.0000 </r>
       <r>   -15.2171     0.0000     1.0000 </r>
       <r>   -15.1187     0.0000     1.0000 </r>
       <r>   -15.0202     0.0000     1.0000 </r>
       <r>   -14.9217     0.0000     1.0000 </r>
       <r>   -14.8232     0.0000     1.0000 </r>
       <r>   -14.7247     0.0000     1.0000 </r>
       <r>   -14.6262     0.0000     1.0000 </r>
       <r>   -14.5277     0.0000     1.0000 </r>
       <r>   -14.4292     0.0000     1.0000 </r>
       <r>   -14.3307     0.0000     1.0000 </r>
       <r>   -14.2322     0.0000     1.0000 </r>
       <r>   -14.1337     0.0000     1.0000 </r>
       <r>   -14.0352     0.0000     1.0000 </r>
       <r>   -13.9367     0.0000     1.0000 </r>
       <r>   -13.8382     0.0000     1.0000 </r>
       <r>   -13.7398     0.0000     1.0000 </r>
       <r>   -13.6413     0.0000     1.0000 </r>
       <r>   -13.5428     0.0000     1.0000 </r>
       <r>   -13.4443     0.0000     1.0000 </r>
       <r>   -13.3458     0.0000     1.0000 </r>
       <r>   -13.2473     0.0000     1.0000 </r>
       <r>   -13.1488     0.0000     1.0000 </r>
       <r>   -13.0503     0.0000     1.0000 </r>
       <r>   -12.9518     0.0000     1.0000 </r>
       <r>   -12.8533     0.0000     1.0000 </r>
       <r>   -12.7548     0.0000     1.0000 </r>
       <r>   -12.6563     0.0000     1.0000 </r>
       <r>   -12.5578     0.0000     1.0000 </r>
       <r>   -12.4593     0.0000     1.0000 </r>
       <r>   -12.3609     0.0000     1.0000 </r>
       <r>   -12.2624     0.0000     1.0000 </r>
       <r>   -12.1639     0.0000     1.0000 </r>
       <r>   -12.0654     0.0000     1.0000 </r>
       <r>   -11.9669     0.0000     1.0000 </r>
       <r>   -11.8684     0.0000     1.0000 </r>
       <r>   -11.7699     0.0000     1.0000 </r>
       <r>   -11.6714     0.0000     1.0000 </r>
       <r>   -11.5729     0.0000     1.0000 </r>
       <r>   -11.4744     0.0000     1.0000 </r>
       <r>   -11.3759     0.0000     1.0000 </r>
       <r>   -11.2774     0.0000     1.0000 </r>
       <r>   -11.1789     0.0000     1.0000 </r>
       <r>   -11.0804     0.0000     1.0000 </r>
       <r>   -10.9820     0.0000     1.0000 </r>
       <r>   -10.8835     0.0000     1.0000 </r>
       <r>   -10.7850     0.0000     1.0000 </r>
       <r>   -10.6865     0.0000     1.0000 </r>
       <r>   -10.5880     0.0000     1.0000 </r>
       <r>   -10.4895     0.0000     1.0000 </r>
       <r>   -10.3910     0.0000     1.0000 </r>
       <r>   -10.2925     0.0000     1.0000 </r>
       <r>   -10.1940     0.0000     1.0000 </r>
       <r>   -10.0955     0.0000     1.0000 </r>
       <r>    -9.9970     0.0000     1.0000 </r>
       <r>    -9.8985     0.0000     1.0000 </r>
       <r>    -9.8000     0.0000     1.0000 </r>
       <r>    -9.7015     0.0000     1.0000 </r>
       <r>    -9.6031     0.0000     1.0000 </r>
       <r>    -9.5046     0.0000     1.0000 </r>
       <r>    -9.4061     0.0000     1.0000 </r>
       <r>    -9.3076     0.0000     1.0000 </r>
       <r>    -9.2091     0.0000     1.0000 </r>
       <r>    -9.1106     0.0000     1.0000 </r>
       <r>    -9.0121     0.0000     1.0000 </r>
       <r>    -8.9136     0.0000     1.0000 </r>
       <r>    -8.8151     0.0000     1.0000 </r>
       <r>    -8.7166     0.0000     1.0000 </r>
       <r>    -8.6181     0.0000     1.0000 </r>
       <r>    -8.5196     0.0000     1.0000 </r>
       <r>    -8.4211     0.0000     1.0000 </r>
       <r>    -8.3226     0.0000     1.0000 </r>
       <r>    -8.2242     0.0000     1.0000 </r>
       <r>    -8.1257     0.0000     1.0000 </r>
       <r>    -8.0272     0.0000     1.0000 </r>
       <r>    -7.9287     0.0000     1.0000 </r>
       <r>    -7.8302     0.0000     1.0000 </r>
       <r>    -7.7317     0.0000     1.0000 </r>
       <r>    -7.6332     0.0000     1.0000 </r>
       <r>    -7.5347     0.0000     1.0000 </r>
       <r>    -7.4362     0.0000     1.0000 </r>
       <r>    -7.3377     0.0415     1.0041 </r>
       <r>    -7.2392    12.6382     2.2489 </r>
       <r>    -7.1407    17.6264     3.9849 </r>
       <r>    -7.0422     0.1529     4.0000 </r>
       <r>    -6.9437     0.0000     4.0000 </r>
       <r>    -6.8453     0.0000     4.0000 </r>
       <r>    -6.7468     0.0000     4.0000 </r>
       <r>    -6.6483     0.0000     4.0000 </r>
       <r>    -6.5498     0.0000     4.0000 </r>
       <r>    -6.4513     0.0000     4.0000 </r>
       <r>    -6.3528     0.0000     4.0000 </r>
       <r>    -6.2543     0.0000     4.0000 </r>
       <r>    -6.1558     0.0000     4.0000 </r>
       <r>    -6.0573     0.0000     4.0000 </r>
       <r>    -5.9588     0.0000     4.0000 </r>
       <r>    -5.8603     0.0000     4.0000 </r>
       <r>    -5.7618     0.0000     4.0000 </r>
       <r>    -5.6633     0.0000     4.0000 </r>
       <r>    -5.5648     0.0000     4.0000 </r>
       <r>    -5.4664     0.0000     4.0000 </r>
       <r>    -5.3679     0.0000     4.0000 </r>
       <r>    -5.2694     0.0000     4.0000 </r>
       <r>    -5.1709     0.0000     4.0000 </r>
       <r>    -5.0724     0.0000     4.0000 </r>
       <r>    -4.9739     0.0000     4.0000 </r>
       <r>    -4.8754     0.0000     4.0000 </r>
       <r>    -4.7769     0.0000     4.0000 </r>
       <r>    -4.6784     0.0000     4.0000 </r>
       <r>    -4.5799     0.0000     4.0000 </r>
       <r>    -4.4814     0.0000     4.0000 </r>
       <r>    -4.3829     0.0000     4.0000 </r>
       <r>    -4.2844     0.0000     4.0000 </r>
       <r>    -4.1859     0.0000     4.0000 </r>
       <r>    -4.0875     0.0000     4.0000 </r>
       <r>    -3.9890     0.0000     4.0000 </r>
       <r>    -3.8905     0.0000     4.0000 </r>
       <r>    -3.7920     0.0000     4.0000 </r>
       <r>    -3.6935     0.0000     4.0000 </r>
       <r>    -3.5950     0.0000     4.0000 </r>
       <r>    -3.4965     0.0000     4.0000 </r>
       <r>    -3.3980     0.0000     4.0000 </r>
       <r>    -3.2995     0.0000     4.0000 </r>
       <r>    -3.2010     0.0000     4.0000 </r>
       <r>    -3.1025     0.0000     4.0000 </r>
       <r>    -3.0040     0.0000     4.0000 </r>
       <r>    -2.9055     0.0000     4.0000 </r>
       <r>    -2.8070     0.0000     4.0000 </r>
       <r>    -2.7086     0.0000     4.0000 </r>
       <r>    -2.6101     0.0000     4.0000 </r>
       <r>    -2.5116     0.0000     4.0000 </r>
       <r>    -2.4131     0.0000     4.0000 </r>
       <r>    -2.3146     0.0000     4.0000 </r>
       <r>    -2.2161     0.0000     4.0000 </r>
       <r>    -2.1176     0.0000     4.0000 </r>
       <r>    -2.0191     0.0000     4.0000 </r>
       <r>    -1.9206     0.0000     4.0000 </r>
       <r>    -1.8221     0.0000     4.0000 </r>
       <r>    -1.7236     0.0000     4.0000 </r>
       <r>    -1.6251     0.0000     4.0000 </r>
       <r>    -1.5266     0.0000     4.0000 </r>
       <r>    -1.4281     0.0000     4.0000 </r>
       <r>    -1.3297     0.0000     4.0000 </r>
       <r>    -1.2312     0.0000     4.0000 </r>
       <r>    -1.1327     0.0000     4.0000 </r>
       <r>    -1.0342     0.0000     4.0000 </r>
       <r>    -0.9357     0.0000     4.0000 </r>
       <r>    -0.8372     0.0000     4.0000 </r>
       <r>    -0.7387     0.0000     4.0000 </r>
       <r>    -0.6402     0.0000     4.0000 </r>
       <r>    -0.5417     0.0378     4.0037 </r>
       <r>    -0.4432     5.4827     4.5437 </r>
       <r>    -0.3447     4.6132     4.9981 </r>
       <r>    -0.2462     0.0192     5.0000 </r>
       <r>    -0.1477     0.0000     5.0000 </r>
       <r>    -0.0492     0.0000     5.0000 </r>
       <r>     0.0492     0.0000     5.0000 </r>
       <r>     0.1477     0.0000     5.0000 </r>
       <r>     0.2462     0.0000     5.0000 </r>
       <r>     0.3447     0.0000     5.0000 </r>
       <r>     0.4432     0.0000     5.0000 </r>
       <r>     0.5417     0.0000     5.0000 </r>
       <r>     0.6402     0.0000     5.0000 </r>
       <r>     0.7387     0.0000     5.0000 </r>
       <r>     0.8372     0.0000     5.0000 </r>
       <r>     0.9357     0.0000     5.0000 </r>
       <r>     1.0342     0.0002     5.0000 </r>
       <r>     1.1327     1.2681     5.1249 </r>
       <r>     1.2312    38.2585     8.8931 </r>
       <r>     1.3296    21.3031    10.9913 </r>
       <r>     1.4281     0.0883    11.0000 </r>
       <r>     1.5266     0.0000    11.0000 </r>
       <r>     1.6251     0.0000    11.0000 </r>
       <r>     1.7236     0.0000    11.0000 </r>
       <r>     1.8221     0.0000    11.0000 </r>
       <r>     1.9206     0.0000    11.0000 </r>
       <r>     2.0191     0.0000    11.0000 </r>
       <r>     2.1176     0.0528    11.0052 </r>
       <r>     2.2161    13.5145    12.3363 </r>
       <r>     2.3146    16.7686    13.9879 </r>
       <r>     2.4131     0.1231    14.0000 </r>
       <r>     2.5116     0.0000    14.0000 </r>
       <r>     2.6101     0.0009    14.0001 </r>
       <r>     2.7085     3.2517    14.3204 </r>
       <r>     2.8070    40.7618    18.3351 </r>
       <r>     2.9055    30.5569    21.3447 </r>
       <r>     3.0040    13.8043    22.7044 </r>
       <r>     3.1025     2.9970    22.9996 </r>
       <r>     3.2010     0.0045    23.0000 </r>
       <r>     3.2995     0.0000    23.0000 </r>
       <r>     3.3980     0.0000    23.0000 </r>
       <r>     3.4965     0.0000    23.0000 </r>
       <r>     3.5950     0.0000    23.0000 </r>
       <r>     3.6935     0.0000    23.0000 </r>
       <r>     3.7920     0.0000    23.0000 </r>
       <r>     3.8905     0.9211    23.0907 </r>
       <r>     3.9890    23.9998    25.4545 </r>
       <r>     4.0874     5.6705    26.0130 </r>
       <r>     4.1859     7.1362    26.7159 </r>
       <r>     4.2844     2.8842    27.0000 </r>
       <r>     4.3829     4.1703    27.4107 </r>
       <r>     4.4814    45.0496    31.8478 </r>
       <r>     4.5799    11.6834    32.9985 </r>
       <r>     4.6784     0.0150    33.0000 </r>
       <r>     4.7769     0.0000    33.0000 </r>
       <r>     4.8754     0.0000    33.0000 </r>
       <r>     4.9739     0.0000    33.0000 </r>
       <r>     5.0724     0.0000    33.0000 </r>
       <r>     5.1709     0.0000    33.0000 </r>
       <r>     5.2694     0.0000    33.0000 </r>
       <r>     5.3679     0.0000    33.0000 </r>
       <r>     5.4663     0.0000    33.0000 </r>
       <r>     5.5648     0.0000    33.0000 </r>
       <r>     5.6633     0.0000    33.0000 </r>
       <r>     5.7618     0.2045    33.0201 </r>
       <r>     5.8603     9.2371    33.9299 </r>
       <r>     5.9588    10.4958    34.9637 </r>
       <r>     6.0573     0.3686    35.0000 </r>
       <r>     6.1558     0.0000    35.0000 </r>
       <r>     6.2543     0.0000    35.0000 </r>
       <r>     6.3528     0.0000    35.0000 </r>
       <r>     6.4513     0.0007    35.0001 </r>
       <r>     6.5498     1.5783    35.1555 </r>
       <r>     6.6483     8.1868    35.9619 </r>
       <r>     6.7468     0.3871    36.0000 </r>
       <r>     6.8452     0.0000    36.0000 </r>
       <r>     6.9437     0.0000    36.0000 </r>
       <r>     7.0422     0.0000    36.0000 </r>
       <r>     7.1407     0.0000    36.0000 </r>
       <r>     7.2392     0.0000    36.0000 </r>
       <r>     7.3377     0.0000    36.0000 </r>
       <r>     7.4362     0.0000    36.0000 </r>
       <r>     7.5347     0.0000    36.0000 </r>
       <r>     7.6332     0.0000    36.0000 </r>
       <r>     7.7317     0.0000    36.0000 </r>
       <r>     7.8302     0.0000    36.0000 </r>
       <r>     7.9287     0.0000    36.0000 </r>
      </set>
      <set comment="spin 2">
       <r>   -21.6192     0.0000     0.0000 </r>
       <r>   -21.5207     0.0000     0.0000 </r>
       <r>   -21.4222     0.0000     0.0000 </r>
       <r>   -21.3237     0.0000     0.0000 </r>
       <r>   -21.2252     0.0000     0.0000 </r>
       <r>   -21.1267     0.0000     0.0000 </r>
       <r>   -21.0282     0.0000     0.0000 </r>
       <r>   -20.9297     0.0000     0.0000 </r>
       <r>   -20.8312     0.0000     0.0000 </r>
       <r>   -20.7327     0.0000     0.0000 </r>
       <r>   -20.6343     0.0000     0.0000 </r>
       <r>   -20.5358     0.0000     0.0000 </r>
       <r>   -20.4373     0.0000     0.0000 </r>
       <r>   -20.3388     0.3871     0.0381 </r>
       <r>   -20.2403     8.1868     0.8445 </r>
       <r>   -20.1418     1.5783     0.9999 </r>
       <r>   -20.0433     0.0007     1.0000 </r>
       <r>   -19.9448     0.0000     1.0000 </r>
       <r>   -19.8463     0.0000     1.0000 </r>
       <r>   -19.7478     0.0000     1.0000 </r>
       <r>   -19.6493     0.0000     1.0000 </r>
       <r>   -19.5508     0.0000     1.0000 </r>
       <r>   -19.4523     0.0000     1.0000 </r>
       <r>   -19.3538     0.0000     1.0000 </r>
       <r>   -19.2554     0.0000     1.0000 </r>
       <r>   -19.1569     0.0000     1.0000 </r>
       <r>   -19.0584     0.0000     1.0000 </r>
       <r>   -18.9599     0.0000     1.0000 </r>
       <r>   -18.8614     0.0000     1.0000 </r>
       <r>   -18.7629     0.0000     1.0000 </r>
       <r>   -18.6644     0.0000     1.0000 </r>
       <r>   -18.5659     0.0000     1.0000 </r>
       <r>   -18.4674     0.0000     1.0000 </r>
       <r>   -18.3689     0.0000     1.0000 </r>
       <r>   -18.2704     0.0000     1.0000 </r>
       <r>   -18.1719     0.0000     1.0000 </r>
       <r>   -18.0734     0.0000     1.0000 </r>
       <r>   -17.9749     0.0000     1.0000 </r>
       <r>   -17.8765     0.0000     1.0000 </r>
       <r>   -17.7780     0.0000     1.0000 </r>
       <r>   -17.6795     0.0000     1.0000 </r>
       <r>   -17.5810     0.0000     1.0000 </r>
       <r>   -17.4825     0.0000     1.0000 </r>
       <r>   -17.3840     0.0000     1.0000 </r>
       <r>   -17.2855     0.0000     1.0000 </r>
       <r>   -17.1870     0.0000     1.0000 </r>
       <r>   -17.0885     0.0000     1.0000 </r>
       <r>   -16.9900     0.0000     1.0000 </r>
       <r>   -16.8915     0.0000     1.0000 </r>
       <r>   -16.7930     0.0000     1.0000 </r>
       <r>   -16.6945     0.0000     1.0000 </r>
       <r>   -16.5960     0.0000     1.0000 </r>
       <r>   -16.4976     0.0000     1.0000 </r>
       <r>   -16.3991     0.0000     1.0000 </r>
       <r>   -16.3006     0.0000     1.0000 </r>
       <r>   -16.2021     0.0000     1.0000 </r>
       <r>   -16.1036     0.0000     1.0000 </r>
       <r>   -16.0051     0.0000     1.0000 </r>
       <r>   -15.9066     0.0000     1.0000 </r>
       <r>   -15.8081     0.0000     1.0000 </r>
       <r>   -15.7096     0.0000     1.0000 </r>
       <r>   -15.6111     0.0000     1.0000 </r>
       <r>   -15.5126     0.0000     1.0000 </r>
       <r>   -15.4141     0.0000     1.0000 </r>
       <r>   -15.3156     0.0000     1.0000 </r>
       <r>   -15.2171     0.0000     1.0000 </r>
       <r>   -15.1187     0.0000     1.0000 </r>
       <r>   -15.0202     0.0000     1.0000 </r>
       <r>   -14.9217     0.0000     1.0000 </r>
       <r>   -14.8232     0.0000     1.0000 </r>
       <r>   -14.7247     0.0000     1.0000 </r>
       <r>   -14.6262     0.0000     1.0000 </r>
       <r>   -14.5277     0.0000     1.0000 </r>
       <r>   -14.4292     0.0000     1.0000 </r>
       <r>   -14.3307     0.0000     1.0000 </r>
       <r>   -14.2322     0.0000     1.0000 </r>
       <r>   -14.1337     0.0000     1.0000 </r>
       <r>   -14.0352     0.0000     1.0000 </r>
       <r>   -13.9367     0.0000     1.0000 </r>
       <r>   -13.8382     0.0000     1.0000 </r>
       <r>   -13.7398     0.0000     1.0000 </r>
       <r>   -13.6413     0.0000     1.0000 </r>
       <r>   -13.5428     0.0000     1.0000 </r>
       <r>   -13.4443     0.0000     1.0000 </r>
       <r>   -13.3458     0.0000     1.0000 </r>
       <r>   -13.2473     0.0000     1.0000 </r>
       <r>   -13.1488     0.0000     1.0000 </r>
       <r>   -13.0503     0.0000     1.0000 </r>
       <r>   -12.9518     0.0000     1.0000 </r>
       <r>   -12.8533     0.0000     1.0000 </r>
       <r>   -12.7548     0.0000     1.0000 </r>
       <r>   -12.6563     0.0000     1.0000 </r>
       <r>   -12.5578     0.0000     1.0000 </r>
       <r>   -12.4593     0.0000     1.0000 </r>
       <r>   -12.3609     0.0000     1.0000 </r>
       <r>   -12.2624     0.0000     1.0000 </r>
       <r>   -12.1639     0.0000     1.0000 </r>
       <r>   -12.0654     0.0000     1.0000 </r>
       <r>   -11.9669     0.0000     1.0000 </r>
       <r>   -11.8684     0.0000     1.0000 </r>
       <r>   -11.7699     0.0000     1.0000 </r>
       <r>   -11.6714     0.0000     1.0000 </r>
       <r>   -11.5729     0.0000     1.0000 </r>
       <r>   -11.4744     0.0000     1.0000 </r>
       <r>   -11.3759     0.0000     1.0000 </r>
       <r>   -11.2774     0.0000     1.0000 </r>
       <r>   -11.1789     0.0000     1.0000 </r>
       <r>   -11.0804     0.0000     1.0000 </r>
       <r>   -10.9820     0.0000     1.0000 </r>
       <r>   -10.8835     0.0000     1.0000 </r>
       <r>   -10.7850     0.0000     1.0000 </r>
       <r>   -10.6865     0.0000     1.0000 </r>
       <r>   -10.5880     0.0000     1.0000 </r>
       <r>   -10.4895     0.0000     1.0000 </r>
       <r>   -10.3910     0.0000     1.0000 </r>
       <r>   -10.2925     0.0000     1.0000 </r>
       <r>   -10.1940     0.0000     1.0000 </r>
       <r>   -10.0955     0.0000     1.0000 </r>
       <r>    -9.9970     0.0000     1.0000 </r>
       <r>    -9.8985     0.0000     1.0000 </r>
       <r>    -9.8000     0.0000     1.0000 </r>
       <r>    -9.7015     0.0000     1.0000 </r>
       <r>    -9.6031     0.0000     1.0000 </r>
       <r>    -9.5046     0.0000     1.0000 </r>
       <r>    -9.4061     0.0000     1.0000 </r>
       <r>    -9.3076     0.0000     1.0000 </r>
       <r>    -9.2091     0.0000     1.0000 </r>
       <r>    -9.1106     0.0000     1.0000 </r>
       <r>    -9.0121     0.0000     1.0000 </r>
       <r>    -8.9136     0.0000     1.0000 </r>
       <r>    -8.8151     0.0000     1.0000 </r>
       <r>    -8.7166     0.0000     1.0000 </r>
       <r>    -8.6181     0.0000     1.0000 </r>
       <r>    -8.5196     0.0000     1.0000 </r>
       <r>    -8.4211     0.0000     1.0000 </r>
       <r>    -8.3226     0.0000     1.0000 </r>
       <r>    -8.2242     0.0000     1.0000 </r>
       <r>    -8.1257     0.0042     1.0004 </r>
       <r>    -8.0272     6.0122     1.5926 </r>
       <r>    -7.9287    23.6362     3.9206 </r>
       <r>    -7.8302     0.8064     4.0000 </r>
       <r>    -7.7317     0.0000     4.0000 </r>
       <r>    -7.6332     0.0000     4.0000 </r>
       <r>    -7.5347     0.0000     4.0000 </r>
       <r>    -7.4362     0.0000     4.0000 </r>
       <r>    -7.3377     0.0000     4.0000 </r>
       <r>    -7.2392     0.0000     4.0000 </r>
       <r>    -7.1407     0.0000     4.0000 </r>
       <r>    -7.0422     0.0000     4.0000 </r>
       <r>    -6.9437     0.0000     4.0000 </r>
       <r>    -6.8453     0.0000     4.0000 </r>
       <r>    -6.7468     0.0000     4.0000 </r>
       <r>    -6.6483     0.0000     4.0000 </r>
       <r>    -6.5498     0.0000     4.0000 </r>
       <r>    -6.4513     0.0000     4.0000 </r>
       <r>    -6.3528     0.0000     4.0000 </r>
       <r>    -6.2543     0.0000     4.0000 </r>
       <r>    -6.1558     0.0000     4.0000 </r>
       <r>    -6.0573     0.0000     4.0000 </r>
       <r>    -5.9588     0.0000     4.0000 </r>
       <r>    -5.8603     0.0000     4.0000 </r>
       <r>    -5.7618     0.0000     4.0000 </r>
       <r>    -5.6633     0.0000     4.0000 </r>
       <r>    -5.5648     0.0000     4.0000 </r>
       <r>    -5.4664     0.0000     4.0000 </r>
       <r>    -5.3679     0.0000     4.0000 </r>
       <r>    -5.2694     0.0000     4.0000 </r>
       <r>    -5.1709     0.0000     4.0000 </r>
       <r>    -5.0724     0.0000     4.0000 </r>
       <r>    -4.9739     0.0000     4.0000 </r>
       <r>    -4.8754     0.0000     4.0000 </r>
       <r>    -4.7769     0.0000     4.0000 </r>
       <r>    -4.6784     0.0000     4.0000 </r>
       <r>    -4.5799     0.0000     4.0000 </r>
       <r>    -4.4814     0.0000     4.0000 </r>
       <r>    -4.3829     0.0000     4.0000 </r>
       <r>    -4.2844     0.0000     4.0000 </r>
       <r>    -4.1859     0.0000     4.0000 </r>
       <r>    -4.0875     0.0000     4.0000 </r>
       <r>    -3.9890     0.0000     4.0000 </r>
       <r>    -3.8905     0.0000     4.0000 </r>
       <r>    -3.7920     0.0000     4.0000 </r>
       <r>    -3.6935     0.0000     4.0000 </r>
       <r>    -3.5950     0.0000     4.0000 </r>
       <r>    -3.4965     0.0000     4.0000 </r>
       <r>    -3.3980     0.0000     4.0000 </r>
       <r>    -3.2995     0.0000     4.0000 </r>
       <r>    -3.2010     0.0000     4.0000 </r>
       <r>    -3.1025     0.0000     4.0000 </r>
       <r>    -3.0040     0.0000     4.0000 </r>
       <r>    -2.9055     0.0000     4.0000 </r>
       <r>    -2.8070     0.0000     4.0000 </r>
       <r>    -2.7086     0.0000     4.0000 </r>
       <r>    -2.6101     0.0000     4.0000 </r>
       <r>    -2.5116     0.0000     4.0000 </r>
       <r>    -2.4131     0.0000     4.0000 </r>
       <r>    -2.3146     0.0000     4.0000 </r>
       <r>    -2.2161     0.0000     4.0000 </r>
       <r>    -2.1176     0.0000     4.0000 </r>
       <r>    -2.0191     0.0000     4.0000 </r>
       <r>    -1.9206     0.0000     4.0000 </r>
       <r>    -1.8221     0.0000     4.0000 </r>
       <r>    -1.7236     0.0000     4.0000 </r>
       <r>    -1.6251     0.0000     4.0000 </r>
       <r>    -1.5266     0.0000     4.0000 </r>
       <r>    -1.4281     0.0000     4.0000 </r>
       <r>    -1.3297     0.0000     4.0000 </r>
       <r>    -1.2312     0.0000     4.0000 </r>
       <r>    -1.1327     0.0000     4.0000 </r>
       <r>    -1.0342     0.0000     4.0000 </r>
       <r>    -0.9357     0.0000     4.0000 </r>
       <r>    -0.8372     0.0000     4.0000 </r>
       <r>    -0.7387     0.0000     4.0000 </r>
       <r>    -0.6402     0.0065     4.0006 </r>
       <r>    -0.5417     3.3700     4.3326 </r>
       <r>    -0.4432     6.6819     4.9907 </r>
       <r>    -0.3447     0.0945     5.0000 </r>
       <r>    -0.2462     0.0000     5.0000 </r>
       <r>    -0.1477     0.0000     5.0000 </r>
       <r>    -0.0492     0.0000     5.0000 </r>
       <r>     0.0492     0.0000     5.0000 </r>
       <r>     0.1477     0.0000     5.0000 </r>
       <r>     0.2462     0.0000     5.0000 </r>
       <r>     0.3447     0.0000     5.0000 </r>
       <r>     0.4432     0.0000     5.0000 </r>
       <r>     0.5417     0.0000     5.0000 </r>
       <r>     0.6402     0.0000     5.0000 </r>
       <r>     0.7387     0.0000     5.0000 </r>
       <r>     0.8372     0.0000     5.0000 </r>
       <r>     0.9357     0.0000     5.0000 </r>
       <r>     1.0342     0.0847     5.0083 </r>
       <r>     1.1327    14.9200     6.4779 </r>
       <r>     1.2312    43.2952    10.7421 </r>
       <r>     1.3296     2.6178    10.9999 </r>
       <r>     1.4281     0.0005    11.0000 </r>
       <r>     1.5266     0.0000    11.0000 </r>
       <r>     1.6251     0.0000    11.0000 </r>
       <r>     1.7236     0.0000    11.0000 </r>
       <r>     1.8221     0.0000    11.0000 </r>
       <r>     1.9206     0.0000    11.0000 </r>
       <r>     2.0191     0.2292    11.0226 </r>
       <r>     2.1176    19.2204    12.9156 </r>
       <r>     2.2161    10.9838    13.9975 </r>
       <r>     2.3146     0.0257    14.0000 </r>
       <r>     2.4131     0.0000    14.0000 </r>
       <r>     2.5116     0.0000    14.0000 </r>
       <r>     2.6101     0.1294    14.0127 </r>
       <r>     2.7085    24.0019    16.3768 </r>
       <r>     2.8070    27.9793    19.1325 </r>
       <r>     2.9055    25.7563    21.6693 </r>
       <r>     3.0040    12.4505    22.8956 </r>
       <r>     3.1025     1.0594    23.0000 </r>
       <r>     3.2010     0.0003    23.0000 </r>
       <r>     3.2995     0.0000    23.0000 </r>
       <r>     3.3980     0.0000    23.0000 </r>
       <r>     3.4965     0.0000    23.0000 </r>
       <r>     3.5950     0.0000    23.0000 </r>
       <r>     3.6935     0.0000    23.0000 </r>
       <r>     3.7920     0.0515    23.0051 </r>
       <r>     3.8905    13.4217    24.3270 </r>
       <r>     3.9890    16.8599    25.9876 </r>
       <r>     4.0874     0.5178    26.0386 </r>
       <r>     4.1859     9.6144    26.9855 </r>
       <r>     4.2844    17.7121    28.7301 </r>
       <r>     4.3829    16.8980    30.3944 </r>
       <r>     4.4814    18.6686    32.2331 </r>
       <r>     4.5799     7.6642    32.9880 </r>
       <r>     4.6784     0.1220    33.0000 </r>
       <r>     4.7769     0.0000    33.0000 </r>
       <r>     4.8754     0.0000    33.0000 </r>
       <r>     4.9739     0.0000    33.0000 </r>
       <r>     5.0724     0.0000    33.0000 </r>
       <r>     5.1709     0.0000    33.0000 </r>
       <r>     5.2694     0.0000    33.0000 </r>
       <r>     5.3679     0.0000    33.0000 </r>
       <r>     5.4663     0.0000    33.0000 </r>
       <r>     5.5648     0.0004    33.0000 </r>
       <r>     5.6633     1.2987    33.1280 </r>
       <r>     5.7618    11.8515    34.2952 </r>
       <r>     5.8603     7.0692    34.9915 </r>
       <r>     5.9588     0.0862    35.0000 </r>
       <r>     6.0573     0.0001    35.0000 </r>
       <r>     6.1558     0.6611    35.0651 </r>
       <r>     6.2543     8.4606    35.8984 </r>
       <r>     6.3528     1.0309    36.0000 </r>
       <r>     6.4513     0.0003    36.0000 </r>
       <r>     6.5498     0.0000    36.0000 </r>
       <r>     6.6483     0.0000    36.0000 </r>
       <r>     6.7468     0.0000    36.0000 </r>
       <r>     6.8452     0.0000    36.0000 </r>
       <r>     6.9437     0.0000    36.0000 </r>
       <r>     7.0422     0.0000    36.0000 </r>
       <r>     7.1407     0.0000    36.0000 </r>
       <r>     7.2392     0.0000    36.0000 </r>
       <r>     7.3377     0.0000    36.0000 </r>
       <r>     7.4362     0.0000    36.0000 </r>
       <r>     7.5347     0.0000    36.0000 </r>
       <r>     7.6332     0.0000    36.0000 </r>
       <r>     7.7317     0.0000    36.0000 </r>
       <r>     7.8302     0.0000    36.0000 </r>
       <r>     7.9287     0.0000    36.0000 </r>
      </set>
     </set>
    </array>
   </total>
   <partial>
    <array>
     <dimension dim="1">gridpoints</dimension>
     <dimension dim="2">spin</dimension>
     <dimension dim="3">ion</dimension>
     <field>energy</field>
     <field>    s</field>
     <field>   py</field>
     <field>   pz</field>
     <field>   px</field>
     <field>  dxy</field>
     <field>  dyz</field>
     <field>  dz2</field>
     <field>  dxz</field>
     <field>x2-y2</field>
     <set>
      <set comment="ion 1">
       <set comment="spin 1">
        <r>   -21.6192     0.0000     0.0000     0.0000     0.0000     0.0000     0.0000     0.0000     0.0000     0.0000 </r>
        <r>   -21.5207     0.0000     0.0000     0.0000     0.0000     0.0000     0.0000     0.0000     0.0000     0.0000 </r>
        <r>   -21.4222     0.0000     0.0000     0.0000     0.0000     0.0000     0.0000     0.0000     0.0000     0.0000 </r>
        <r>   -21.3237     0.0000     0.0000     0.0000     0.0000     0.0000     0.0000     0.0000     0.0000     0.0000 </r>
        <r>   -21.2252     0.0000     0.0000     0.0000     0.0000     0.0000     0.0000     0.0000     0.0000     0.0000 </r>
        <r>   -21.1267     0.0000     0.0000     0.0000     0.0000     0.0000     0.0000     0.0000     0.0000     0.0000 </r>
        <r>   -21.0282     0.0000     0.0000     0.0000     0.0000     0.0000     0.0000     0.0000     0.0000     0.0000 </r>
        <r>   -20.9297     0.0000     0.0000     0.0000     0.0000     0.0000     0.0000     0.0000     0.0000     0.0000 </r>
        <r>   -20.8312     0.0000     0.0000     0.0000     0.0000     0.0000     0.0000     0.0000     0.0000     0.0000 </r>
        <r>   -20.7327     0.0000     0.0000     0.0000     0.0000     0.0000     0.0000     0.0000     0.0000     0.0000 </r>
        <r>   -20.6343     0.0000     0.0000     0.0000     0.0000     0.0000     0.0000     0.0000     0.0000     0.0000 </r>
        <r>   -20.5358     0.0000     0.0000     0.0000     0.0000     0.0000     0.0000     0.0000     0.0000     0.0000 </r>
        <r>   -20.4373     0.0000     0.0000     0.0000     0.0000     0.0000     0.0000     0.0000     0.0000     0.0000 </r>
        <r>   -20.3388     0.0000     0.0000     0.0000     0.0000     0.0000     0.0000     0.0000     0.0000     0.0000 </r>
        <r>   -20.2403     0.0000     0.0000     0.0000     0.0000     0.0000     0.0000     0.0000     0.0000     0.0000 </r>
        <r>   -20.1418     0.0000     0.0000     0.0000     0.0000     0.0000     0.0000     0.0000     0.0000     0.0000 </r>
        <r>   -20.0433     0.0000     0.0000     0.0000     0.0000     0.0000     0.0000     0.0000     0.0000     0.0000 </r>
        <r>   -19.9448     0.0000     0.0000     0.0000     0.0000     0.0000     0.0000     0.0000     0.0000     0.0000 </r>
        <r>   -19.8463     0.0000     0.0000     0.0000     0.0000     0.0000     0.0000     0.0000     0.0000     0.0000 </r>
        <r>   -19.7478     0.0000     0.0000     0.0000     0.0000     0.0000     0.0000     0.0000     0.0000     0.0000 </r>
        <r>   -19.6493     0.0001     0.0000     0.0000     0.0000     0.0000     0.0000     0.0000     0.0000     0.0000 </r>
        <r>   -19.5508     0.5654     0.0000     0.0000     0.0000     0.0000     0.0000     0.0000     0.0000     0.0000 </r>
        <r>   -19.4523     6.8137     0.0000     0.0000     0.0000     0.0000     0.0000     0.0000     0.0000     0.0000 </r>
        <r>   -19.3538     0.7836     0.0000     0.0000     0.0000     0.0000     0.0000     0.0000     0.0000     0.0000 </r>
        <r>   -19.2554     0.0002     0.0000     0.0000     0.0000     0.0000     0.0000     0.0000     0.0000     0.0000 </r>
        <r>   -19.1569     0.0000     0.0000     0.0000     0.0000     0.0000     0.0000     0.0000     0.0000     0.0000 </r>
        <r>   -19.0584     0.0000     0.0000     0.0000     0.0000     0.0000     0.0000     0.0000     0.0000     0.0000 </r>
        <r>   -18.9599     0.0000     0.0000     0.0000     0.0000     0.0000     0.0000     0.0000     0.0000     0.0000 </r>
        <r>   -18.8614     0.0000     0.0000     0.0000     0.0000     0.0000     0.0000     0.0000     0.0000     0.0000 </r>
        <r>   -18.7629     0.0000     0.0000     0.0000     0.0000     0.0000     0.0000     0.0000     0.0000     0.0000 </r>
        <r>   -18.6644     0.0000     0.0000     0.0000     0.0000     0.0000     0.0000     0.0000     0.0000     0.0000 </r>
        <r>   -18.5659     0.0000     0.0000     0.0000     0.0000     0.0000     0.0000     0.0000     0.0000     0.0000 </r>
        <r>   -18.4674     0.0000     0.0000     0.0000     0.0000     0.0000     0.0000     0.0000     0.0000     0.0000 </r>
        <r>   -18.3689     0.0000     0.0000     0.0000     0.0000     0.0000     0.0000     0.0000     0.0000     0.0000 </r>
        <r>   -18.2704     0.0000     0.0000     0.0000     0.0000     0.0000     0.0000     0.0000     0.0000     0.0000 </r>
        <r>   -18.1719     0.0000     0.0000     0.0000     0.0000     0.0000     0.0000     0.0000     0.0000     0.0000 </r>
        <r>   -18.0734     0.0000     0.0000     0.0000     0.0000     0.0000     0.0000     0.0000     0.0000     0.0000 </r>
        <r>   -17.9749     0.0000     0.0000     0.0000     0.0000     0.0000     0.0000     0.0000     0.0000     0.0000 </r>
        <r>   -17.8765     0.0000     0.0000     0.0000     0.0000     0.0000     0.0000     0.0000     0.0000     0.0000 </r>
        <r>   -17.7780     0.0000     0.0000     0.0000     0.0000     0.0000     0.0000     0.0000     0.0000     0.0000 </r>
        <r>   -17.6795     0.0000     0.0000     0.0000     0.0000     0.0000     0.0000     0.0000     0.0000     0.0000 </r>
        <r>   -17.5810     0.0000     0.0000     0.0000     0.0000     0.0000     0.0000     0.0000     0.0000     0.0000 </r>
        <r>   -17.4825     0.0000     0.0000     0.0000     0.0000     0.0000     0.0000     0.0000     0.0000     0.0000 </r>
        <r>   -17.3840     0.0000     0.0000     0.0000     0.0000     0.0000     0.0000     0.0000     0.0000     0.0000 </r>
        <r>   -17.2855     0.0000     0.0000     0.0000     0.0000     0.0000     0.0000     0.0000     0.0000     0.0000 </r>
        <r>   -17.1870     0.0000     0.0000     0.0000     0.0000     0.0000     0.0000     0.0000     0.0000     0.0000 </r>
        <r>   -17.0885     0.0000     0.0000     0.0000     0.0000     0.0000     0.0000     0.0000     0.0000     0.0000 </r>
        <r>   -16.9900     0.0000     0.0000     0.0000     0.0000     0.0000     0.0000     0.0000     0.0000     0.0000 </r>
        <r>   -16.8915     0.0000     0.0000     0.0000     0.0000     0.0000     0.0000     0.0000     0.0000     0.0000 </r>
        <r>   -16.7930     0.0000     0.0000     0.0000     0.0000     0.0000     0.0000     0.0000     0.0000     0.0000 </r>
        <r>   -16.6945     0.0000     0.0000     0.0000     0.0000     0.0000     0.0000     0.0000     0.0000     0.0000 </r>
        <r>   -16.5960     0.0000     0.0000     0.0000     0.0000     0.0000     0.0000     0.0000     0.0000     0.0000 </r>
        <r>   -16.4976     0.0000     0.0000     0.0000     0.0000     0.0000     0.0000     0.0000     0.0000     0.0000 </r>
        <r>   -16.3991     0.0000     0.0000     0.0000     0.0000     0.0000     0.0000     0.0000     0.0000     0.0000 </r>
        <r>   -16.3006     0.0000     0.0000     0.0000     0.0000     0.0000     0.0000     0.0000     0.0000     0.0000 </r>
        <r>   -16.2021     0.0000     0.0000     0.0000     0.0000     0.0000     0.0000     0.0000     0.0000     0.0000 </r>
        <r>   -16.1036     0.0000     0.0000     0.0000     0.0000     0.0000     0.0000     0.0000     0.0000     0.0000 </r>
        <r>   -16.0051     0.0000     0.0000     0.0000     0.0000     0.0000     0.0000     0.0000     0.0000     0.0000 </r>
        <r>   -15.9066     0.0000     0.0000     0.0000     0.0000     0.0000     0.0000     0.0000     0.0000     0.0000 </r>
        <r>   -15.8081     0.0000     0.0000     0.0000     0.0000     0.0000     0.0000     0.0000     0.0000     0.0000 </r>
        <r>   -15.7096     0.0000     0.0000     0.0000     0.0000     0.0000     0.0000     0.0000     0.0000     0.0000 </r>
        <r>   -15.6111     0.0000     0.0000     0.0000     0.0000     0.0000     0.0000     0.0000     0.0000     0.0000 </r>
        <r>   -15.5126     0.0000     0.0000     0.0000     0.0000     0.0000     0.0000     0.0000     0.0000     0.0000 </r>
        <r>   -15.4141     0.0000     0.0000     0.0000     0.0000     0.0000     0.0000     0.0000     0.0000     0.0000 </r>
        <r>   -15.3156     0.0000     0.0000     0.0000     0.0000     0.0000     0.0000     0.0000     0.0000     0.0000 </r>
        <r>   -15.2171     0.0000     0.0000     0.0000     0.0000     0.0000     0.0000     0.0000     0.0000     0.0000 </r>
        <r>   -15.1187     0.0000     0.0000     0.0000     0.0000     0.0000     0.0000     0.0000     0.0000     0.0000 </r>
        <r>   -15.0202     0.0000     0.0000     0.0000     0.0000     0.0000     0.0000     0.0000     0.0000     0.0000 </r>
        <r>   -14.9217     0.0000     0.0000     0.0000     0.0000     0.0000     0.0000     0.0000     0.0000     0.0000 </r>
        <r>   -14.8232     0.0000     0.0000     0.0000     0.0000     0.0000     0.0000     0.0000     0.0000     0.0000 </r>
        <r>   -14.7247     0.0000     0.0000     0.0000     0.0000     0.0000     0.0000     0.0000     0.0000     0.0000 </r>
        <r>   -14.6262     0.0000     0.0000     0.0000     0.0000     0.0000     0.0000     0.0000     0.0000     0.0000 </r>
        <r>   -14.5277     0.0000     0.0000     0.0000     0.0000     0.0000     0.0000     0.0000     0.0000     0.0000 </r>
        <r>   -14.4292     0.0000     0.0000     0.0000     0.0000     0.0000     0.0000     0.0000     0.0000     0.0000 </r>
        <r>   -14.3307     0.0000     0.0000     0.0000     0.0000     0.0000     0.0000     0.0000     0.0000     0.0000 </r>
        <r>   -14.2322     0.0000     0.0000     0.0000     0.0000     0.0000     0.0000     0.0000     0.0000     0.0000 </r>
        <r>   -14.1337     0.0000     0.0000     0.0000     0.0000     0.0000     0.0000     0.0000     0.0000     0.0000 </r>
        <r>   -14.0352     0.0000     0.0000     0.0000     0.0000     0.0000     0.0000     0.0000     0.0000     0.0000 </r>
        <r>   -13.9367     0.0000     0.0000     0.0000     0.0000     0.0000     0.0000     0.0000     0.0000     0.0000 </r>
        <r>   -13.8382     0.0000     0.0000     0.0000     0.0000     0.0000     0.0000     0.0000     0.0000     0.0000 </r>
        <r>   -13.7398     0.0000     0.0000     0.0000     0.0000     0.0000     0.0000     0.0000     0.0000     0.0000 </r>
        <r>   -13.6413     0.0000     0.0000     0.0000     0.0000     0.0000     0.0000     0.0000     0.0000     0.0000 </r>
        <r>   -13.5428     0.0000     0.0000     0.0000     0.0000     0.0000     0.0000     0.0000     0.0000     0.0000 </r>
        <r>   -13.4443     0.0000     0.0000     0.0000     0.0000     0.0000     0.0000     0.0000     0.0000     0.0000 </r>
        <r>   -13.3458     0.0000     0.0000     0.0000     0.0000     0.0000     0.0000     0.0000     0.0000     0.0000 </r>
        <r>   -13.2473     0.0000     0.0000     0.0000     0.0000     0.0000     0.0000     0.0000     0.0000     0.0000 </r>
        <r>   -13.1488     0.0000     0.0000     0.0000     0.0000     0.0000     0.0000     0.0000     0.0000     0.0000 </r>
        <r>   -13.0503     0.0000     0.0000     0.0000     0.0000     0.0000     0.0000     0.0000     0.0000     0.0000 </r>
        <r>   -12.9518     0.0000     0.0000     0.0000     0.0000     0.0000     0.0000     0.0000     0.0000     0.0000 </r>
        <r>   -12.8533     0.0000     0.0000     0.0000     0.0000     0.0000     0.0000     0.0000     0.0000     0.0000 </r>
        <r>   -12.7548     0.0000     0.0000     0.0000     0.0000     0.0000     0.0000     0.0000     0.0000     0.0000 </r>
        <r>   -12.6563     0.0000     0.0000     0.0000     0.0000     0.0000     0.0000     0.0000     0.0000     0.0000 </r>
        <r>   -12.5578     0.0000     0.0000     0.0000     0.0000     0.0000     0.0000     0.0000     0.0000     0.0000 </r>
        <r>   -12.4593     0.0000     0.0000     0.0000     0.0000     0.0000     0.0000     0.0000     0.0000     0.0000 </r>
        <r>   -12.3609     0.0000     0.0000     0.0000     0.0000     0.0000     0.0000     0.0000     0.0000     0.0000 </r>
        <r>   -12.2624     0.0000     0.0000     0.0000     0.0000     0.0000     0.0000     0.0000     0.0000     0.0000 </r>
        <r>   -12.1639     0.0000     0.0000     0.0000     0.0000     0.0000     0.0000     0.0000     0.0000     0.0000 </r>
        <r>   -12.0654     0.0000     0.0000     0.0000     0.0000     0.0000     0.0000     0.0000     0.0000     0.0000 </r>
        <r>   -11.9669     0.0000     0.0000     0.0000     0.0000     0.0000     0.0000     0.0000     0.0000     0.0000 </r>
        <r>   -11.8684     0.0000     0.0000     0.0000     0.0000     0.0000     0.0000     0.0000     0.0000     0.0000 </r>
        <r>   -11.7699     0.0000     0.0000     0.0000     0.0000     0.0000     0.0000     0.0000     0.0000     0.0000 </r>
        <r>   -11.6714     0.0000     0.0000     0.0000     0.0000     0.0000     0.0000     0.0000     0.0000     0.0000 </r>
        <r>   -11.5729     0.0000     0.0000     0.0000     0.0000     0.0000     0.0000     0.0000     0.0000     0.0000 </r>
        <r>   -11.4744     0.0000     0.0000     0.0000     0.0000     0.0000     0.0000     0.0000     0.0000     0.0000 </r>
        <r>   -11.3759     0.0000     0.0000     0.0000     0.0000     0.0000     0.0000     0.0000     0.0000     0.0000 </r>
        <r>   -11.2774     0.0000     0.0000     0.0000     0.0000     0.0000     0.0000     0.0000     0.0000     0.0000 </r>
        <r>   -11.1789     0.0000     0.0000     0.0000     0.0000     0.0000     0.0000     0.0000     0.0000     0.0000 </r>
        <r>   -11.0804     0.0000     0.0000     0.0000     0.0000     0.0000     0.0000     0.0000     0.0000     0.0000 </r>
        <r>   -10.9820     0.0000     0.0000     0.0000     0.0000     0.0000     0.0000     0.0000     0.0000     0.0000 </r>
        <r>   -10.8835     0.0000     0.0000     0.0000     0.0000     0.0000     0.0000     0.0000     0.0000     0.0000 </r>
        <r>   -10.7850     0.0000     0.0000     0.0000     0.0000     0.0000     0.0000     0.0000     0.0000     0.0000 </r>
        <r>   -10.6865     0.0000     0.0000     0.0000     0.0000     0.0000     0.0000     0.0000     0.0000     0.0000 </r>
        <r>   -10.5880     0.0000     0.0000     0.0000     0.0000     0.0000     0.0000     0.0000     0.0000     0.0000 </r>
        <r>   -10.4895     0.0000     0.0000     0.0000     0.0000     0.0000     0.0000     0.0000     0.0000     0.0000 </r>
        <r>   -10.3910     0.0000     0.0000     0.0000     0.0000     0.0000     0.0000     0.0000     0.0000     0.0000 </r>
        <r>   -10.2925     0.0000     0.0000     0.0000     0.0000     0.0000     0.0000     0.0000     0.0000     0.0000 </r>
        <r>   -10.1940     0.0000     0.0000     0.0000     0.0000     0.0000     0.0000     0.0000     0.0000     0.0000 </r>
        <r>   -10.0955     0.0000     0.0000     0.0000     0.0000     0.0000     0.0000     0.0000     0.0000     0.0000 </r>
        <r>    -9.9970     0.0000     0.0000     0.0000     0.0000     0.0000     0.0000     0.0000     0.0000     0.0000 </r>
        <r>    -9.8985     0.0000     0.0000     0.0000     0.0000     0.0000     0.0000     0.0000     0.0000     0.0000 </r>
        <r>    -9.8000     0.0000     0.0000     0.0000     0.0000     0.0000     0.0000     0.0000     0.0000     0.0000 </r>
        <r>    -9.7015     0.0000     0.0000     0.0000     0.0000     0.0000     0.0000     0.0000     0.0000     0.0000 </r>
        <r>    -9.6031     0.0000     0.0000     0.0000     0.0000     0.0000     0.0000     0.0000     0.0000     0.0000 </r>
        <r>    -9.5046     0.0000     0.0000     0.0000     0.0000     0.0000     0.0000     0.0000     0.0000     0.0000 </r>
        <r>    -9.4061     0.0000     0.0000     0.0000     0.0000     0.0000     0.0000     0.0000     0.0000     0.0000 </r>
        <r>    -9.3076     0.0000     0.0000     0.0000     0.0000     0.0000     0.0000     0.0000     0.0000     0.0000 </r>
        <r>    -9.2091     0.0000     0.0000     0.0000     0.0000     0.0000     0.0000     0.0000     0.0000     0.0000 </r>
        <r>    -9.1106     0.0000     0.0000     0.0000     0.0000     0.0000     0.0000     0.0000     0.0000     0.0000 </r>
        <r>    -9.0121     0.0000     0.0000     0.0000     0.0000     0.0000     0.0000     0.0000     0.0000     0.0000 </r>
        <r>    -8.9136     0.0000     0.0000     0.0000     0.0000     0.0000     0.0000     0.0000     0.0000     0.0000 </r>
        <r>    -8.8151     0.0000     0.0000     0.0000     0.0000     0.0000     0.0000     0.0000     0.0000     0.0000 </r>
        <r>    -8.7166     0.0000     0.0000     0.0000     0.0000     0.0000     0.0000     0.0000     0.0000     0.0000 </r>
        <r>    -8.6181     0.0000     0.0000     0.0000     0.0000     0.0000     0.0000     0.0000     0.0000     0.0000 </r>
        <r>    -8.5196     0.0000     0.0000     0.0000     0.0000     0.0000     0.0000     0.0000     0.0000     0.0000 </r>
        <r>    -8.4211     0.0000     0.0000     0.0000     0.0000     0.0000     0.0000     0.0000     0.0000     0.0000 </r>
        <r>    -8.3226     0.0000     0.0000     0.0000     0.0000     0.0000     0.0000     0.0000     0.0000     0.0000 </r>
        <r>    -8.2242     0.0000     0.0000     0.0000     0.0000     0.0000     0.0000     0.0000     0.0000     0.0000 </r>
        <r>    -8.1257     0.0000     0.0000     0.0000     0.0000     0.0000     0.0000     0.0000     0.0000     0.0000 </r>
        <r>    -8.0272     0.0000     0.0000     0.0000     0.0000     0.0000     0.0000     0.0000     0.0000     0.0000 </r>
        <r>    -7.9287     0.0000     0.0000     0.0000     0.0000     0.0000     0.0000     0.0000     0.0000     0.0000 </r>
        <r>    -7.8302     0.0000     0.0000     0.0000     0.0000     0.0000     0.0000     0.0000     0.0000     0.0000 </r>
        <r>    -7.7317     0.0000     0.0000     0.0000     0.0000     0.0000     0.0000     0.0000     0.0000     0.0000 </r>
        <r>    -7.6332     0.0000     0.0000     0.0000     0.0000     0.0000     0.0000     0.0000     0.0000     0.0000 </r>
        <r>    -7.5347     0.0000     0.0000     0.0000     0.0000     0.0000     0.0000     0.0000     0.0000     0.0000 </r>
        <r>    -7.4362     0.0000     0.0000     0.0000     0.0000     0.0000     0.0000     0.0000     0.0000     0.0000 </r>
        <r>    -7.3377     0.0000     0.0083     0.0083     0.0083     0.0000     0.0000     0.0000     0.0000     0.0000 </r>
        <r>    -7.2392     0.0000     2.5291     2.5291     2.5291     0.0000     0.0000     0.0000     0.0000     0.0000 </r>
        <r>    -7.1407     0.0000     3.5273     3.5273     3.5273     0.0000     0.0000     0.0000     0.0000     0.0000 </r>
        <r>    -7.0422     0.0000     0.0306     0.0306     0.0306     0.0000     0.0000     0.0000     0.0000     0.0000 </r>
        <r>    -6.9437     0.0000     0.0000     0.0000     0.0000     0.0000     0.0000     0.0000     0.0000     0.0000 </r>
        <r>    -6.8453     0.0000     0.0000     0.0000     0.0000     0.0000     0.0000     0.0000     0.0000     0.0000 </r>
        <r>    -6.7468     0.0000     0.0000     0.0000     0.0000     0.0000     0.0000     0.0000     0.0000     0.0000 </r>
        <r>    -6.6483     0.0000     0.0000     0.0000     0.0000     0.0000     0.0000     0.0000     0.0000     0.0000 </r>
        <r>    -6.5498     0.0000     0.0000     0.0000     0.0000     0.0000     0.0000     0.0000     0.0000     0.0000 </r>
        <r>    -6.4513     0.0000     0.0000     0.0000     0.0000     0.0000     0.0000     0.0000     0.0000     0.0000 </r>
        <r>    -6.3528     0.0000     0.0000     0.0000     0.0000     0.0000     0.0000     0.0000     0.0000     0.0000 </r>
        <r>    -6.2543     0.0000     0.0000     0.0000     0.0000     0.0000     0.0000     0.0000     0.0000     0.0000 </r>
        <r>    -6.1558     0.0000     0.0000     0.0000     0.0000     0.0000     0.0000     0.0000     0.0000     0.0000 </r>
        <r>    -6.0573     0.0000     0.0000     0.0000     0.0000     0.0000     0.0000     0.0000     0.0000     0.0000 </r>
        <r>    -5.9588     0.0000     0.0000     0.0000     0.0000     0.0000     0.0000     0.0000     0.0000     0.0000 </r>
        <r>    -5.8603     0.0000     0.0000     0.0000     0.0000     0.0000     0.0000     0.0000     0.0000     0.0000 </r>
        <r>    -5.7618     0.0000     0.0000     0.0000     0.0000     0.0000     0.0000     0.0000     0.0000     0.0000 </r>
        <r>    -5.6633     0.0000     0.0000     0.0000     0.0000     0.0000     0.0000     0.0000     0.0000     0.0000 </r>
        <r>    -5.5648     0.0000     0.0000     0.0000     0.0000     0.0000     0.0000     0.0000     0.0000     0.0000 </r>
        <r>    -5.4664     0.0000     0.0000     0.0000     0.0000     0.0000     0.0000     0.0000     0.0000     0.0000 </r>
        <r>    -5.3679     0.0000     0.0000     0.0000     0.0000     0.0000     0.0000     0.0000     0.0000     0.0000 </r>
        <r>    -5.2694     0.0000     0.0000     0.0000     0.0000     0.0000     0.0000     0.0000     0.0000     0.0000 </r>
        <r>    -5.1709     0.0000     0.0000     0.0000     0.0000     0.0000     0.0000     0.0000     0.0000     0.0000 </r>
        <r>    -5.0724     0.0000     0.0000     0.0000     0.0000     0.0000     0.0000     0.0000     0.0000     0.0000 </r>
        <r>    -4.9739     0.0000     0.0000     0.0000     0.0000     0.0000     0.0000     0.0000     0.0000     0.0000 </r>
        <r>    -4.8754     0.0000     0.0000     0.0000     0.0000     0.0000     0.0000     0.0000     0.0000     0.0000 </r>
[...]
        <r>     3.4965     0.0000     0.0000     0.0000     0.0000     0.0000     0.0000     0.0000     0.0000     0.0000 </r>
        <r>     3.5950     0.0000     0.0000     0.0000     0.0000     0.0000     0.0000     0.0000     0.0000     0.0000 </r>
        <r>     3.6935     0.0000     0.0000     0.0000     0.0000     0.0000     0.0000     0.0000     0.0000     0.0000 </r>
        <r>     3.7920     0.0000     0.0000     0.0000     0.0000     0.0004     0.0004     0.0000     0.0004     0.0000 </r>
        <r>     3.8905     0.0000     0.0000     0.0000     0.0000     0.1055     0.1049     0.0001     0.1018     0.0003 </r>
        <r>     3.9890     0.0000     0.0000     0.0000     0.0000     0.1320     0.1321     0.0002     0.1279     0.0004 </r>
        <r>     4.0874     0.0000     0.0001     0.0000     0.0000     0.0010     0.0010     0.0027     0.0010     0.0045 </r>
        <r>     4.1859     0.0000     0.0021     0.0008     0.0000     0.0000     0.0001     0.0927     0.0000     0.1462 </r>
        <r>     4.2844     0.0001     0.0024     0.0008     0.0010     0.0000     0.0000     0.5695     0.0000     0.5528 </r>
        <r>     4.3829     0.0043     0.0176     0.0403     0.0502     0.0008     0.0000     0.1327     0.0002     0.0878 </r>
        <r>     4.4814     0.0323     0.0380     0.0397     0.0334     0.0005     0.0001     0.0020     0.0002     0.0055 </r>
        <r>     4.5799     0.0328     0.0179     0.0025     0.0016     0.0000     0.0000     0.0002     0.0000     0.0021 </r>
        <r>     4.6784     0.0005     0.0003     0.0000     0.0000     0.0000     0.0000     0.0000     0.0000     0.0000 </r>
        <r>     4.7769     0.0000     0.0000     0.0000     0.0000     0.0000     0.0000     0.0000     0.0000     0.0000 </r>
        <r>     4.8754     0.0000     0.0000     0.0000     0.0000     0.0000     0.0000     0.0000     0.0000     0.0000 </r>
        <r>     4.9739     0.0000     0.0000     0.0000     0.0000     0.0000     0.0000     0.0000     0.0000     0.0000 </r>
        <r>     5.0724     0.0000     0.0000     0.0000     0.0000     0.0000     0.0000     0.0000     0.0000     0.0000 </r>
        <r>     5.1709     0.0000     0.0000     0.0000     0.0000     0.0000     0.0000     0.0000     0.0000     0.0000 </r>
        <r>     5.2694     0.0000     0.0000     0.0000     0.0000     0.0000     0.0000     0.0000     0.0000     0.0000 </r>
        <r>     5.3679     0.0000     0.0000     0.0000     0.0000     0.0000     0.0000     0.0000     0.0000     0.0000 </r>
        <r>     5.4663     0.0000     0.0000     0.0000     0.0000     0.0000     0.0000     0.0000     0.0000     0.0000 </r>
        <r>     5.5648     0.0000     0.0000     0.0000     0.0000     0.0000     0.0000     0.0000     0.0000     0.0000 </r>
        <r>     5.6633     0.0010     0.0000     0.0024     0.0022     0.0019     0.0012     0.0000     0.0658     0.0002 </r>
        <r>     5.7618     0.0119     0.0089     0.0156     0.0203     0.0609     0.0253     0.0020     0.4676     0.0067 </r>
        <r>     5.8603     0.0106     0.0166     0.0010     0.0120     0.0929     0.0337     0.0036     0.1059     0.0102 </r>
        <r>     5.9588     0.0001     0.0002     0.0000     0.0001     0.0012     0.0004     0.0000     0.0011     0.0001 </r>
        <r>     6.0573     0.0000     0.0000     0.0000     0.0000     0.0000     0.0000     0.0000     0.0000     0.0000 </r>
        <r>     6.1558     0.0001     0.0002     0.0011     0.0002     0.0014     0.0047     0.0088     0.0015     0.0006 </r>
        <r>     6.2543     0.0008     0.0019     0.0137     0.0022     0.0185     0.0595     0.1125     0.0190     0.0077 </r>
        <r>     6.3528     0.0001     0.0002     0.0017     0.0003     0.0023     0.0073     0.0137     0.0023     0.0009 </r>
        <r>     6.4513     0.0000     0.0000     0.0000     0.0000     0.0000     0.0000     0.0000     0.0000     0.0000 </r>
        <r>     6.5498     0.0000     0.0000     0.0000     0.0000     0.0000     0.0000     0.0000     0.0000     0.0000 </r>
        <r>     6.6483     0.0000     0.0000     0.0000     0.0000     0.0000     0.0000     0.0000     0.0000     0.0000 </r>
        <r>     6.7468     0.0000     0.0000     0.0000     0.0000     0.0000     0.0000     0.0000     0.0000     0.0000 </r>
        <r>     6.8452     0.0000     0.0000     0.0000     0.0000     0.0000     0.0000     0.0000     0.0000     0.0000 </r>
        <r>     6.9437     0.0000     0.0000     0.0000     0.0000     0.0000     0.0000     0.0000     0.0000     0.0000 </r>
        <r>     7.0422     0.0000     0.0000     0.0000     0.0000     0.0000     0.0000     0.0000     0.0000     0.0000 </r>
        <r>     7.1407     0.0000     0.0000     0.0000     0.0000     0.0000     0.0000     0.0000     0.0000     0.0000 </r>
        <r>     7.2392     0.0000     0.0000     0.0000     0.0000     0.0000     0.0000     0.0000     0.0000     0.0000 </r>
        <r>     7.3377     0.0000     0.0000     0.0000     0.0000     0.0000     0.0000     0.0000     0.0000     0.0000 </r>
        <r>     7.4362     0.0000     0.0000     0.0000     0.0000     0.0000     0.0000     0.0000     0.0000     0.0000 </r>
        <r>     7.5347     0.0000     0.0000     0.0000     0.0000     0.0000     0.0000     0.0000     0.0000     0.0000 </r>
        <r>     7.6332     0.0000     0.0000     0.0000     0.0000     0.0000     0.0000     0.0000     0.0000     0.0000 </r>
        <r>     7.7317     0.0000     0.0000     0.0000     0.0000     0.0000     0.0000     0.0000     0.0000     0.0000 </r>
        <r>     7.8302     0.0000     0.0000     0.0000     0.0000     0.0000     0.0000     0.0000     0.0000     0.0000 </r>
        <r>     7.9287     0.0000     0.0000     0.0000     0.0000     0.0000     0.0000     0.0000     0.0000     0.0000 </r>
       </set>
      </set>
     </set>
    </array>
   </partial>
  </dos>
  <projected>
   <eigenvalues>
    <array>
     <dimension dim="1">band</dimension>
     <dimension dim="2">kpoint</dimension>
     <dimension dim="3">spin</dimension>
     <field>eigene</field>
     <field>occ</field>
     <set>
      <set comment="spin 1">
       <set comment="kpoint 1">
        <r>  -19.4985    1.0000 </r>
        <r>   -7.2318    0.6667 </r>
        <r>   -7.2318    0.6667 </r>
        <r>   -7.2318    0.6667 </r>
        <r>   -0.4471    0.0000 </r>
        <r>    1.1800    0.0000 </r>
        <r>    1.2145    0.0000 </r>
        <r>    1.2147    0.0000 </r>
        <r>    1.2150    0.0000 </r>
        <r>    1.2339    0.0000 </r>
        <r>    1.2345    0.0000 </r>
        <r>    2.2207    0.0000 </r>
        <r>    2.2209    0.0000 </r>
        <r>    2.2212    0.0000 </r>
        <r>    2.7489    0.0000 </r>
        <r>    2.7495    0.0000 </r>
        <r>    2.7750    0.0000 </r>
        <r>    2.7806    0.0000 </r>
        <r>    2.7818    0.0000 </r>
        <r>    2.8671    0.0000 </r>
        <r>    2.8726    0.0000 </r>
        <r>    2.8922    0.0000 </r>
        <r>    2.9849    0.0000 </r>
        <r>    3.9565    0.0000 </r>
        <r>    3.9567    0.0000 </r>
        <r>    3.9573    0.0000 </r>
        <r>    4.1658    0.0000 </r>
        <r>    4.4035    0.0000 </r>
        <r>    4.4433    0.0000 </r>
        <r>    4.4438    0.0000 </r>
        <r>    4.4539    0.0000 </r>
        <r>    4.4610    0.0000 </r>
        <r>    4.4683    0.0000 </r>
        <r>    5.8344    0.0000 </r>
        <r>    5.8952    0.0000 </r>
        <r>    6.5856    0.0000 </r>
       </set>
      </set>
      <set comment="spin 2">
       <set comment="kpoint 1">
        <r>  -20.2761    1.0000 </r>
        <r>   -7.9971    1.0000 </r>
        <r>   -7.9971    1.0000 </r>
        <r>   -7.9971    1.0000 </r>
        <r>   -0.5264    0.0000 </r>
        <r>    1.1200    0.0000 </r>
        <r>    1.1528    0.0000 </r>
        <r>    1.1611    0.0000 </r>
        <r>    1.1624    0.0000 </r>
        <r>    1.1805    0.0000 </r>
        <r>    1.1892    0.0000 </r>
        <r>    2.1050    0.0000 </r>
        <r>    2.1051    0.0000 </r>
        <r>    2.1051    0.0000 </r>
        <r>    2.7029    0.0000 </r>
        <r>    2.7031    0.0000 </r>
        <r>    2.7139    0.0000 </r>
        <r>    2.7152    0.0000 </r>
        <r>    2.7187    0.0000 </r>
        <r>    2.8622    0.0000 </r>
        <r>    2.8624    0.0000 </r>
        <r>    2.8722    0.0000 </r>
        <r>    2.9596    0.0000 </r>
        <r>    3.8955    0.0000 </r>
        <r>    3.8956    0.0000 </r>
        <r>    3.8957    0.0000 </r>
        <r>    4.1499    0.0000 </r>
        <r>    4.2275    0.0000 </r>
        <r>    4.2586    0.0000 </r>
        <r>    4.3678    0.0000 </r>
        <r>    4.3717    0.0000 </r>
        <r>    4.4275    0.0000 </r>
        <r>    4.5001    0.0000 </r>
        <r>    5.7036    0.0000 </r>
        <r>    5.7759    0.0000 </r>
        <r>    6.2093    0.0000 </r>
       </set>
      </set>
     </set>
    </array>
   </eigenvalues>
   <array>
    <dimension dim="1">ion</dimension>
    <dimension dim="2">band</dimension>
    <dimension dim="3">kpoint</dimension>
    <dimension dim="4">spin</dimension>
    <field>    s</field>
    <field>   py</field>
    <field>   pz</field>
    <field>   px</field>
    <field>  dxy</field>
    <field>  dyz</field>
    <field>  dz2</field>
    <field>  dxz</field>
    <field>x2-y2</field>
    <set>
     <set comment="spin1">
      <set comment="kpoint 1">
       <set comment="band 1">
        <r>  0.8040  0.0000  0.0000  0.0000  0.0000  0.0000  0.0000  0.0000  0.0000 </r>
       </set>
       <set comment="band 2">
        <r>  0.0000  0.5651  0.0097  0.0256  0.0000  0.0000  0.0000  0.0000  0.0000 </r>
       </set>
       <set comment="band 3">
        <r>  0.0000  0.0073  0.5880  0.0050  0.0000  0.0000  0.0000  0.0000  0.0000 </r>
       </set>
       <set comment="band 4">
        <r>  0.0000  0.0280  0.0026  0.5697  0.0000  0.0000  0.0000  0.0000  0.0000 </r>
       </set>
       <set comment="band 5">
        <r>  0.0149  0.0000  0.0000  0.0000  0.0000  0.0000  0.0000  0.0000  0.0000 </r>
       </set>
       <set comment="band 6">
        <r>  0.0164  0.0000  0.0000  0.0001  0.0000  0.0000  0.0000  0.0000  0.0000 </r>
       </set>
       <set comment="band 7">
        <r>  0.0000  0.0072  0.0109  0.0053  0.0000  0.0000  0.0000  0.0000  0.0000 </r>
       </set>
       <set comment="band 8">
        <r>  0.0000  0.0078  0.0001  0.0146  0.0000  0.0000  0.0000  0.0000  0.0001 </r>
       </set>
       <set comment="band 9">
        <r>  0.0000  0.0070  0.0117  0.0033  0.0000  0.0000  0.0001  0.0000  0.0002 </r>
       </set>
       <set comment="band 10">
        <r>  0.0000  0.0008  0.0006  0.0000  0.0000  0.0000  0.0026  0.0000  0.0020 </r>
       </set>
       <set comment="band 11">
        <r>  0.0000  0.0005  0.0000  0.0003  0.0000  0.0000  0.0021  0.0000  0.0025 </r>
       </set>
       <set comment="band 12">
        <r>  0.0000  0.0000  0.0000  0.0000  0.0003  0.0009  0.0000  0.0186  0.0000 </r>
       </set>
       <set comment="band 13">
        <r>  0.0000  0.0000  0.0000  0.0000  0.0138  0.0050  0.0000  0.0008  0.0000 </r>
       </set>
       <set comment="band 14">
        <r>  0.0000  0.0000  0.0000  0.0000  0.0056  0.0138  0.0000  0.0003  0.0000 </r>
       </set>
       <set comment="band 15">
        <r>  0.0000  0.0000  0.0000  0.0000  0.0000  0.0000  0.0007  0.0000  0.0085 </r>
       </set>
       <set comment="band 16">
        <r>  0.0000  0.0000  0.0000  0.0000  0.0000  0.0000  0.0085  0.0000  0.0006 </r>
       </set>
       <set comment="band 17">
        <r>  0.0000  0.0145  0.0055  0.0051  0.0000  0.0000  0.0000  0.0000  0.0000 </r>
       </set>
       <set comment="band 18">
        <r>  0.0000  0.0033  0.0024  0.0175  0.0000  0.0000  0.0000  0.0000  0.0000 </r>
       </set>
       <set comment="band 19">
        <r>  0.0000  0.0066  0.0165  0.0001  0.0000  0.0000  0.0000  0.0000  0.0000 </r>
       </set>
       <set comment="band 20">
        <r>  0.0000  0.0008  0.0001  0.0014  0.0000  0.0000  0.0000  0.0000  0.0000 </r>
       </set>
       <set comment="band 21">
        <r>  0.0000  0.0000  0.0010  0.0004  0.0000  0.0000  0.0000  0.0000  0.0000 </r>
       </set>
       <set comment="band 22">
        <r>  0.0032  0.0007  0.0005  0.0012  0.0000  0.0000  0.0000  0.0000  0.0000 </r>
       </set>
       <set comment="band 23">
        <r>  0.0133  0.0004  0.0002  0.0002  0.0000  0.0000  0.0000  0.0000  0.0000 </r>
       </set>
       <set comment="band 24">
        <r>  0.0000  0.0000  0.0000  0.0000  0.0040  0.0076  0.0000  0.0067  0.0000 </r>
       </set>
       <set comment="band 25">
        <r>  0.0000  0.0000  0.0000  0.0000  0.0123  0.0058  0.0000  0.0000  0.0000 </r>
       </set>
       <set comment="band 26">
        <r>  0.0000  0.0000  0.0000  0.0000  0.0019  0.0047  0.0000  0.0113  0.0000 </r>
       </set>
       <set comment="band 27">
        <r>  0.0000  0.0000  0.0000  0.0008  0.0000  0.0000  0.0002  0.0000  0.0001 </r>
       </set>
       <set comment="band 28">
        <r>  0.0000  0.0024  0.0035  0.0025  0.0001  0.0000  0.0009  0.0004  0.0017 </r>
       </set>
       <set comment="band 29">
        <r>  0.0016  0.0005  0.0031  0.0017  0.0000  0.0000  0.0010  0.0000  0.0071 </r>
       </set>
       <set comment="band 30">
        <r>  0.0000  0.0001  0.0009  0.0007  0.0000  0.0000  0.0094  0.0000  0.0461 </r>
       </set>
       <set comment="band 31">
        <r>  0.0000  0.0000  0.0002  0.0002  0.0000  0.0000  0.0540  0.0000  0.0105 </r>
       </set>
       <set comment="band 32">
        <r>  0.0023  0.0040  0.0009  0.0004  0.0000  0.0000  0.0012  0.0000  0.0001 </r>
       </set>
       <set comment="band 33">
        <r>  0.0032  0.0012  0.0001  0.0024  0.0000  0.0000  0.0013  0.0000  0.0025 </r>
       </set>
       <set comment="band 34">
        <r>  0.0001  0.0002  0.0001  0.0003  0.0015  0.0692  0.0000  0.0045  0.0000 </r>
       </set>
       <set comment="band 35">
        <r>  0.0021  0.0001  0.0000  0.0003  0.0499  0.0008  0.0002  0.0000  0.0000 </r>
       </set>
       <set comment="band 36">
        <r>  0.0002  0.0002  0.0005  0.0000  0.0003  0.0034  0.0001  0.0173  0.0000 </r>
       </set>
      </set>
     </set>
     <set comment="spin2">
      <set comment="kpoint 1">
       <set comment="band 1">
        <r>  0.8257  0.0000  0.0000  0.0000  0.0000  0.0000  0.0000  0.0000  0.0000 </r>
       </set>
       <set comment="band 2">
        <r>  0.0000  0.0005  0.3110  0.3036  0.0000  0.0000  0.0000  0.0000  0.0000 </r>
       </set>
       <set comment="band 3">
        <r>  0.0000  0.4745  0.0768  0.0639  0.0000  0.0000  0.0000  0.0000  0.0000 </r>
       </set>
       <set comment="band 4">
        <r>  0.0000  0.1401  0.2274  0.2476  0.0000  0.0000  0.0000  0.0000  0.0000 </r>
       </set>
       <set comment="band 5">
        <r>  0.0171  0.0000  0.0000  0.0000  0.0000  0.0000  0.0000  0.0000  0.0000 </r>
       </set>
       <set comment="band 6">
        <r>  0.0168  0.0000  0.0000  0.0000  0.0000  0.0000  0.0000  0.0000  0.0000 </r>
       </set>
       <set comment="band 7">
        <r>  0.0000  0.0014  0.0111  0.0114  0.0000  0.0000  0.0000  0.0000  0.0000 </r>
       </set>
       <set comment="band 8">
        <r>  0.0000  0.0178  0.0008  0.0004  0.0000  0.0000  0.0001  0.0000  0.0014 </r>
       </set>
       <set comment="band 9">
        <r>  0.0000  0.0010  0.0079  0.0093  0.0000  0.0000  0.0004  0.0000  0.0012 </r>
       </set>
       <set comment="band 10">
        <r>  0.0000  0.0014  0.0036  0.0027  0.0000  0.0000  0.0018  0.0000  0.0028 </r>
       </set>
       <set comment="band 11">
        <r>  0.0000  0.0023  0.0002  0.0000  0.0000  0.0000  0.0047  0.0000  0.0015 </r>
       </set>
       <set comment="band 12">
        <r>  0.0000  0.0000  0.0000  0.0000  0.0003  0.0078  0.0000  0.0185  0.0000 </r>
       </set>
       <set comment="band 13">
        <r>  0.0000  0.0000  0.0000  0.0000  0.0096  0.0132  0.0000  0.0038  0.0000 </r>
       </set>
       <set comment="band 14">
        <r>  0.0000  0.0000  0.0000  0.0000  0.0169  0.0055  0.0000  0.0043  0.0000 </r>
       </set>
       <set comment="band 15">
        <r>  0.0000  0.0000  0.0000  0.0001  0.0000  0.0000  0.0130  0.0000  0.0005 </r>
       </set>
       <set comment="band 16">
        <r>  0.0000  0.0003  0.0001  0.0000  0.0000  0.0000  0.0005  0.0000  0.0128 </r>
       </set>
       <set comment="band 17">
        <r>  0.0000  0.0131  0.0044  0.0073  0.0000  0.0000  0.0000  0.0000  0.0001 </r>
       </set>
       <set comment="band 18">
        <r>  0.0000  0.0089  0.0000  0.0155  0.0000  0.0000  0.0000  0.0000  0.0000 </r>
       </set>
       <set comment="band 19">
        <r>  0.0000  0.0025  0.0197  0.0018  0.0000  0.0000  0.0000  0.0000  0.0000 </r>
       </set>
       <set comment="band 20">
        <r>  0.0000  0.0000  0.0005  0.0001  0.0000  0.0000  0.0000  0.0000  0.0000 </r>
       </set>
       <set comment="band 21">
        <r>  0.0000  0.0000  0.0003  0.0002  0.0000  0.0000  0.0000  0.0000  0.0000 </r>
       </set>
       <set comment="band 22">
        <r>  0.0011  0.0001  0.0001  0.0000  0.0000  0.0000  0.0000  0.0000  0.0000 </r>
       </set>
       <set comment="band 23">
        <r>  0.0153  0.0000  0.0000  0.0000  0.0000  0.0000  0.0000  0.0000  0.0000 </r>
       </set>
       <set comment="band 24">
        <r>  0.0000  0.0000  0.0000  0.0000  0.0232  0.0003  0.0000  0.0000  0.0000 </r>
       </set>
       <set comment="band 25">
        <r>  0.0000  0.0000  0.0000  0.0000  0.0000  0.0057  0.0000  0.0171  0.0001 </r>
       </set>
       <set comment="band 26">
        <r>  0.0000  0.0000  0.0000  0.0000  0.0003  0.0175  0.0000  0.0056  0.0000 </r>
       </set>
       <set comment="band 27">
        <r>  0.0000  0.0002  0.0001  0.0000  0.0000  0.0000  0.0069  0.0000  0.0114 </r>
       </set>
       <set comment="band 28">
        <r>  0.0000  0.0002  0.0000  0.0000  0.0000  0.0000  0.0212  0.0000  0.0385 </r>
       </set>
       <set comment="band 29">
        <r>  0.0000  0.0000  0.0000  0.0001  0.0000  0.0000  0.0502  0.0000  0.0279 </r>
       </set>
       <set comment="band 30">
        <r>  0.0003  0.0020  0.0011  0.0043  0.0000  0.0000  0.0004  0.0000  0.0000 </r>
       </set>
       <set comment="band 31">
        <r>  0.0001  0.0002  0.0049  0.0032  0.0001  0.0000  0.0001  0.0000  0.0001 </r>
       </set>
       <set comment="band 32">
        <r>  0.0021  0.0028  0.0020  0.0007  0.0000  0.0000  0.0000  0.0000  0.0005 </r>
       </set>
       <set comment="band 33">
        <r>  0.0045  0.0023  0.0002  0.0002  0.0000  0.0000  0.0000  0.0000  0.0003 </r>
       </set>
       <set comment="band 34">
        <r>  0.0008  0.0000  0.0019  0.0017  0.0014  0.0009  0.0000  0.0509  0.0002 </r>
       </set>
       <set comment="band 35">
        <r>  0.0016  0.0025  0.0000  0.0017  0.0140  0.0051  0.0006  0.0122  0.0015 </r>
       </set>
       <set comment="band 36">
        <r>  0.0001  0.0002  0.0016  0.0003  0.0022  0.0070  0.0133  0.0022  0.0009 </r>
       </set>
      </set>
     </set>
    </set>
   </array>
  </projected>
 </calculation>
 <structure name="finalpos" >
  <crystal>
   <varray name="basis" >
    <v>      10.00000000       0.00000000       0.00000000 </v>
    <v>       0.00000000      10.00000000       0.00000000 </v>
    <v>       0.00000000       0.00000000      10.00000000 </v>
   </varray>
   <i name="volume">   1000.00000000 </i>
   <varray name="rec_basis" >
    <v>       0.10000000       0.00000000       0.00000000 </v>
    <v>       0.00000000       0.10000000       0.00000000 </v>
    <v>       0.00000000       0.00000000       0.10000000 </v>
   </varray>
  </crystal>
  <varray name="positions" >
   <v>       0.50000000       0.50000000       0.50000000 </v>
  </varray>
 </structure>
</modeling>
